/*--------------------------------*- C++ -*----------------------------------*\
| =========                 |                                                 |
| \\      /  F ield         | OpenFOAM: The Open Source CFD Toolbox           |
|  \\    /   O peration     | Version:  2.4.0                                 |
|   \\  /    A nd           | Web:      www.OpenFOAM.org                      |
|    \\/     M anipulation  |                                                 |
\*---------------------------------------------------------------------------*/
FoamFile
{
    version     2.0;
    format      ascii;
    class       volScalarField;
    location    "0.01";
    object      alpha;
}
// * * * * * * * * * * * * * * * * * * * * * * * * * * * * * * * * * * * * * //

dimensions      [0 0 0 0 0 0 0];

internalField   nonuniform List<scalar> 
60
(
1.26561e-48
1.39774e-50
1.46245e-52
1.43466e-54
1.33482e-56
3.01157e-51
3.02921e-53
3.10003e-55
3.08939e-57
2.9593e-59
6.99134e-54
6.75428e-56
6.70045e-58
6.64032e-60
6.44253e-62
1.54186e-56
1.49463e-58
1.46106e-60
1.43392e-62
1.39452e-64
1.40133e-50
1.60707e-52
1.74322e-54
1.76996e-56
1.70211e-58
3.46379e-53
3.6046e-55
3.81638e-57
3.93131e-59
3.88831e-61
8.33995e-56
8.3171e-58
8.51798e-60
8.71195e-62
8.71711e-64
1.9043e-58
1.90299e-60
1.91731e-62
1.93897e-64
1.94226e-66
8.0785e-53
9.60847e-55
1.0793e-56
1.13305e-58
1.12516e-60
2.07165e-55
2.22809e-57
2.43805e-59
2.59354e-61
2.64631e-63
5.16741e-58
5.31454e-60
5.61403e-62
5.92068e-64
6.1047e-66
1.22034e-60
1.25609e-62
1.3033e-64
1.35707e-66
1.3991e-68
)
;

boundaryField
{
    inlet
    {
        type            zeroGradient;
    }
    outlet
    {
        type            zeroGradient;
    }
    bottom
    {
        type            fixedValue;
        value           uniform 0;
    }
    top
    {
        type            symmetryPlane;
    }
    side1
    {
        type            symmetryPlane;
    }
    side2
    {
        type            symmetryPlane;
    }
    procBoundary50to34
    {
        type            processor;
        value           nonuniform List<scalar> 
15
(
1.46361e-45
1.29412e-47
1.12468e-49
9.6949e-52
8.28529e-54
1.58848e-47
1.45482e-49
1.30859e-51
1.16671e-53
1.03054e-55
8.98071e-50
8.50986e-52
7.91382e-54
7.2903e-56
6.64912e-58
)
;
    }
    procBoundary50to49
    {
        type            processor;
        value           nonuniform List<scalar> 
12
(
3.27877e-46
6.50817e-49
1.25115e-51
2.34764e-54
3.56072e-48
7.3245e-51
1.45762e-53
2.8286e-56
2.01427e-50
4.28885e-53
8.82568e-56
1.76947e-58
)
;
    }
    procBoundary50to51
    {
        type            processor;
        value           nonuniform List<scalar> 
12
(
3.24218e-59
9.22375e-62
2.49256e-64
6.32027e-67
4.19531e-61
1.23293e-63
3.43685e-66
8.97808e-69
2.8132e-63
8.5329e-66
2.45161e-68
6.59306e-71
)
;
    }
    procBoundary50to114
    {
        type            processor;
        value           nonuniform List<scalar> 
20
(
1.16151e-55
1.34198e-57
1.47332e-59
1.53236e-61
1.52283e-63
2.92805e-58
3.26211e-60
3.58989e-62
3.80781e-64
3.87935e-66
7.13378e-61
7.93297e-63
8.79348e-65
9.48711e-67
9.88325e-69
1.66162e-63
1.88324e-65
2.12211e-67
2.33237e-69
2.48153e-71
)
;
    }
}


// ************************************************************************* //
