/*--------------------------------*- C++ -*----------------------------------*\
| =========                 |                                                 |
| \\      /  F ield         | OpenFOAM: The Open Source CFD Toolbox           |
|  \\    /   O peration     | Version:  2.4.0                                 |
|   \\  /    A nd           | Web:      www.OpenFOAM.org                      |
|    \\/     M anipulation  |                                                 |
\*---------------------------------------------------------------------------*/
FoamFile
{
    version     2.0;
    format      ascii;
    class       volSymmTensorField;
    location    "0.07";
    object      B;
}
// * * * * * * * * * * * * * * * * * * * * * * * * * * * * * * * * * * * * * //

dimensions      [0 2 -2 0 0 0 0];

internalField   nonuniform List<symmTensor> 
200
(
(2.40916e+11 2.13139e+10 -4.31244e+09 2.70025e+11 1.4524e+09 2.37044e+11)
(7.67571e+11 -3.16748e+10 3.4885e+10 7.42821e+11 2.69505e+10 7.13027e+11)
(2.661e+11 -3.83091e+10 5.91265e+10 2.09031e+11 -6.52379e+10 2.68857e+11)
(2.58671e+11 9.05161e+10 -1.17443e+11 1.62753e+11 4.10961e+10 1.78993e+11)
(3.14571e+11 -6.03163e+10 5.44733e+10 1.91727e+11 -1.67618e+10 2.41923e+11)
(5.21301e+11 7.86473e+10 2.21182e+10 3.23425e+11 -4.42398e+10 3.71645e+11)
(5.43905e+11 -1.17529e+11 1.02049e+11 4.86752e+11 1.83679e+10 4.84753e+11)
(3.90572e+11 1.66943e+11 1.3341e+11 2.48813e+11 1.24688e+10 4.00894e+11)
(5.2185e+11 -1.6155e+11 8.77156e+10 4.39572e+11 -5.51565e+10 3.78135e+11)
(7.59686e+10 1.48182e+10 1.02542e+11 5.4325e+10 -3.83238e+09 1.16819e+11)
(5.44285e+11 -1.60204e+10 3.09705e+10 5.21017e+11 4.50514e+09 5.06053e+11)
(1.18604e+11 2.1148e+10 3.9375e+10 1.66203e+11 2.21556e+09 1.4465e+11)
(1.36868e+10 -7.65625e+09 -5.2555e+10 -4.07582e+10 2.89823e+10 -3.37913e+10)
(1.13233e+11 -2.47872e+10 5.62621e+10 1.20839e+11 -1.3535e+10 1.31254e+11)
(1.12458e+11 -9.24724e+09 -1.62827e+10 9.78648e+10 -1.91871e+09 1.0473e+11)
(1.88097e+11 -1.97646e+10 3.42884e+10 1.48565e+11 -2.44985e+10 1.53694e+11)
(2.42902e+11 2.31608e+10 3.28755e+09 1.00732e+11 -3.59425e+10 1.42398e+11)
(5.16886e+11 -5.98185e+10 7.43815e+10 5.0573e+11 -1.94358e+10 4.48007e+11)
(1.03454e+11 4.91185e+10 8.91687e+10 3.92658e+10 2.64395e+10 1.49224e+11)
(4.85352e+11 -8.83398e+09 8.27894e+10 5.97022e+11 4.30725e+09 4.08094e+11)
(3.31628e+11 3.60028e+10 2.91601e+07 2.86859e+11 7.4588e+09 3.00135e+11)
(1.59905e+12 -8.3405e+10 8.11563e+10 1.56761e+12 -6.99061e+09 1.51627e+12)
(4.06233e+10 -3.45836e+10 7.25279e+10 1.39893e+11 -4.93432e+09 1.58746e+11)
(5.63286e+10 9.88234e+10 -3.83138e+10 1.41961e+11 -1.40888e+11 2.35766e+11)
(5.20001e+10 -4.2132e+10 5.3933e+10 1.17578e+11 -1.92053e+10 1.2426e+11)
(9.64463e+10 -1.72777e+10 -5.24237e+10 1.40432e+11 -2.33552e+09 1.12968e+11)
(1.28539e+11 -1.28329e+10 2.63527e+10 1.08328e+11 -2.29031e+10 9.89436e+10)
(1.07408e+11 3.27468e+10 -1.58862e+10 5.14719e+09 -3.53316e+10 3.0367e+10)
(3.90967e+11 -1.03237e+10 4.47162e+10 3.89022e+11 -1.53322e+10 3.14819e+11)
(1.73239e+10 1.36418e+10 4.49394e+10 2.18711e+10 1.23594e+10 4.56125e+10)
(1.58113e+11 -1.17616e+10 5.34007e+09 1.45641e+11 -1.17987e+09 1.29471e+11)
(2.03601e+11 8.40789e+09 4.05943e+09 1.85814e+11 -1.18165e+07 1.93896e+11)
(7.43869e+11 -7.28801e+10 7.27591e+10 8.04512e+11 -4.31681e+10 7.03792e+11)
(1.61313e+10 -3.39801e+10 3.44956e+10 1.4378e+11 3.30054e+10 1.26117e+11)
(1.60264e+11 -4.43576e+10 1.9097e+10 2.12168e+11 -7.38455e+10 1.72228e+11)
(-1.38165e+09 -1.79388e+10 2.4745e+10 4.75093e+10 -7.03309e+09 4.6231e+10)
(1.72256e+11 -2.5949e+10 -4.89682e+10 2.35766e+11 2.74513e+09 1.94377e+11)
(9.71177e+10 -8.46096e+08 1.20157e+10 8.8709e+10 -1.03556e+10 7.60598e+10)
(2.12221e+10 5.71615e+10 6.65671e+09 3.64704e+09 -7.16622e+09 -4.09176e+09)
(2.58319e+11 3.15565e+10 1.45639e+10 2.34685e+11 1.62235e+09 1.8932e+11)
(5.15261e+11 -4.95646e+10 -2.47985e+10 6.3201e+11 4.42541e+09 4.89374e+11)
(9.16531e+10 -5.22727e+10 5.31397e+10 1.24663e+11 -7.39903e+09 -6.84338e+10)
(6.11799e+11 -5.47839e+10 1.12942e+11 5.70979e+11 1.12315e+11 2.57328e+11)
(2.20943e+11 -5.6791e+10 7.4863e+10 1.44399e+11 1.59598e+09 1.37923e+11)
(5.19286e+11 -2.98553e+10 -4.21545e+10 2.40452e+11 3.53266e+10 2.89417e+11)
(4.65722e+11 -5.14445e+10 1.78805e+10 2.48446e+11 3.02211e+10 3.33476e+11)
(2.34333e+12 3.51943e+11 7.38531e+10 2.02975e+12 -6.6194e+10 2.14437e+12)
(2.8014e+12 -3.90998e+11 -8.522e+08 3.16431e+12 7.80086e+09 2.89891e+12)
(-1.33373e+11 1.05605e+11 -2.63694e+09 -1.21796e+11 2.59549e+11 1.47997e+11)
(1.15254e+12 3.37886e+11 -6.70237e+10 1.41081e+12 -1.95663e+11 7.84499e+11)
(3.17319e+11 3.60488e+10 -4.75262e+10 2.46374e+11 1.21133e+10 3.18734e+11)
(2.13873e+11 -3.20307e+10 9.88242e+09 2.37746e+11 3.42738e+10 1.13472e+11)
(3.19295e+11 -1.1398e+10 3.98011e+10 2.26217e+11 -1.95926e+09 1.69743e+11)
(5.75047e+11 -8.62247e+10 7.88436e+09 2.63653e+11 9.91437e+10 3.33377e+11)
(7.8723e+10 -5.35311e+10 4.65998e+10 1.06741e+11 3.09654e+09 7.23184e+10)
(2.1043e+11 -4.91212e+10 -1.02647e+11 2.27055e+11 6.33605e+10 2.01441e+11)
(2.22841e+11 -3.00055e+10 3.89263e+09 1.71415e+11 -3.57029e+08 1.7188e+11)
(1.90688e+12 2.57654e+11 4.0629e+10 1.39755e+12 -6.26016e+10 1.72953e+12)
(1.71769e+12 -4.05727e+10 1.3057e+10 1.97449e+12 1.71895e+10 1.72765e+12)
(-8.72172e+10 -3.95278e+11 -3.22522e+10 -4.77496e+10 1.11031e+11 3.21611e+11)
(1.61407e+11 1.82063e+09 -2.04468e+10 1.42483e+11 7.33436e+09 1.52463e+11)
(3.08282e+11 2.85121e+10 -1.73983e+10 2.50391e+11 3.52571e+09 2.84386e+11)
(1.85616e+12 -1.56853e+11 6.85861e+10 1.71423e+12 3.60568e+10 1.66439e+12)
(4.81342e+10 -4.55735e+10 3.94214e+10 1.29847e+11 1.48132e+10 7.29138e+10)
(1.18974e+11 2.39053e+11 -2.82205e+11 2.51093e+11 1.03535e+11 1.10002e+11)
(1.04018e+11 -3.46612e+10 2.17402e+10 1.46815e+11 3.9902e+07 1.12747e+11)
(1.49862e+11 -4.00946e+10 -8.43549e+10 3.19022e+11 5.60595e+10 2.72868e+11)
(1.59233e+11 -2.48506e+10 4.9158e+08 1.50848e+11 1.84405e+09 1.36272e+11)
(7.30648e+11 1.38469e+11 -5.89236e+09 2.56317e+11 -5.80518e+10 6.34568e+11)
(3.67161e+11 3.93226e+10 -1.51362e+09 4.07876e+11 -4.0277e+09 3.39465e+11)
(1.73584e+10 -3.04859e+09 -4.00526e+09 8.52473e+09 5.05845e+09 1.72983e+10)
(2.63722e+11 -1.60602e+10 -9.47402e+09 2.33071e+11 7.91802e+09 2.40863e+11)
(2.09352e+11 1.99119e+10 1.1374e+09 1.67892e+11 -1.69808e+09 1.91867e+11)
(8.44179e+11 -1.21243e+11 4.16026e+10 9.69465e+11 -2.84681e+10 7.9729e+11)
(1.14987e+10 -3.49437e+10 -1.54928e+09 7.01076e+10 5.9438e+09 4.60909e+10)
(1.09645e+11 2.93731e+09 -7.95132e+10 1.08547e+11 3.42346e+10 4.10674e+10)
(1.84215e+10 -1.4451e+10 1.56627e+10 5.71794e+10 -5.44181e+08 3.64656e+10)
(2.17531e+11 -5.56828e+09 -4.57571e+10 3.14897e+11 2.84968e+10 2.95603e+11)
(7.02026e+10 -8.56922e+08 -2.25224e+08 7.2177e+10 -5.76387e+08 6.26653e+10)
(1.35789e+11 6.3529e+10 -1.12672e+10 -2.67021e+10 -2.19723e+10 1.37388e+11)
(7.42891e+11 1.07616e+10 -4.67712e+10 7.15148e+11 -7.6444e+09 6.40311e+11)
(5.04386e+11 7.36518e+10 6.97563e+10 6.29262e+11 2.14431e+11 1.85866e+11)
(1.59114e+12 -8.73626e+10 3.443e+11 1.37561e+12 -5.90326e+09 1.1478e+12)
(1.00978e+12 -1.50691e+11 1.78015e+11 1.14181e+12 1.06093e+11 2.33397e+11)
(2.18314e+11 -2.06546e+11 4.98898e+10 2.09645e+11 8.88231e+10 1.62015e+11)
(1.04324e+11 -6.28362e+10 7.51342e+09 6.88566e+10 2.11476e+10 5.94202e+10)
(6.25312e+11 -6.09174e+10 -1.31256e+10 4.14495e+11 3.71127e+10 5.07201e+11)
(2.73132e+12 1.89756e+11 2.6969e+10 2.59645e+12 -5.8754e+10 2.63848e+12)
(3.53277e+12 -4.01034e+11 -3.40529e+10 4.079e+12 9.17678e+10 3.74153e+12)
(-1.79057e+11 -1.25949e+11 -5.98982e+10 -6.38875e+10 1.46469e+11 1.61659e+10)
(9.70293e+11 -2.31713e+10 -2.15276e+10 9.91603e+11 -4.63449e+09 9.83579e+11)
(3.65376e+11 -1.13058e+10 -9.69264e+10 3.1148e+11 2.53238e+10 1.32985e+11)
(7.37447e+11 -9.31029e+10 3.72065e+10 6.20696e+11 2.16477e+11 2.19132e+10)
(7.01583e+11 -3.09207e+10 4.31464e+10 4.80896e+11 1.14983e+09 4.1666e+11)
(9.4723e+11 -1.96809e+11 5.82773e+10 8.40366e+11 1.27137e+11 6.9972e+11)
(7.39805e+10 -5.75048e+10 4.08587e+10 5.16603e+10 1.41325e+10 2.58505e+10)
(3.03191e+11 -1.485e+11 -2.0582e+10 4.51608e+11 7.61414e+10 4.08116e+11)
(4.2474e+11 -2.60109e+10 -3.14286e+09 3.95659e+11 6.53372e+09 3.95184e+11)
(2.25344e+12 2.95437e+11 2.75446e+10 1.58911e+12 -1.25767e+11 1.98741e+12)
(2.03438e+12 -1.11741e+11 -7.70672e+09 2.38647e+12 5.47319e+10 2.06486e+12)
(1.23128e+11 2.54277e+10 -1.5065e+10 1.36255e+11 -3.0244e+09 1.63212e+11)
(3.33611e+11 5.93178e+09 -1.60371e+10 3.31331e+11 -5.5288e+09 3.57208e+11)
(3.60248e+11 4.4367e+09 -3.78457e+10 2.71941e+11 1.23893e+09 1.3606e+11)
(8.03126e+11 -1.08737e+11 -4.2365e+10 6.05668e+11 1.23805e+11 5.49412e+11)
(9.33433e+10 -3.16326e+10 -2.71115e+09 4.92575e+10 5.12827e+09 2.52324e+10)
(3.66513e+11 -1.22042e+11 -1.59649e+10 3.69263e+11 5.75673e+10 3.25288e+11)
(2.43397e+10 -3.06313e+10 2.87605e+10 7.40616e+10 6.07098e+09 3.57681e+10)
(1.64273e+11 -7.48245e+10 -2.08103e+10 3.7322e+11 6.15774e+10 3.07549e+11)
(3.44709e+11 -2.48602e+10 -1.07335e+08 3.37517e+11 6.1956e+09 3.2338e+11)
(7.8429e+11 1.06999e+11 1.94046e+10 3.75952e+11 -5.88727e+10 6.73519e+11)
(9.81456e+10 1.07799e+10 -8.29196e+09 9.23169e+10 -8.29122e+09 1.10904e+11)
(4.83373e+10 6.54964e+09 -2.81746e+09 3.21305e+10 5.15271e+09 6.12456e+10)
(2.17127e+11 -6.06882e+08 -1.15811e+10 1.88466e+11 8.09262e+09 2.38336e+11)
(4.08729e+10 -1.19592e+08 -1.18278e+10 3.23191e+09 -9.34497e+09 9.68644e+09)
(1.54731e+11 -4.19169e+10 -1.89536e+10 1.21588e+11 -2.8913e+09 1.45588e+11)
(3.94191e+09 -6.89339e+09 -2.88586e+09 6.631e+08 -2.44095e+09 1.81552e+09)
(1.54653e+11 -4.60592e+10 -1.52816e+10 1.91161e+11 1.70176e+10 1.62353e+11)
(7.8013e+09 -3.75904e+09 5.38069e+09 1.7164e+10 -3.44419e+08 1.08126e+10)
(1.11312e+11 -1.17859e+10 -1.13175e+10 2.08919e+11 2.06497e+10 1.86327e+11)
(8.16999e+10 -3.59139e+09 2.01949e+09 8.57008e+10 -1.36619e+09 7.71598e+10)
(6.31874e+12 3.74426e+12 -2.09558e+12 6.72554e+12 1.61131e+12 8.65232e+12)
(1.03097e+13 -1.05413e+11 2.38686e+12 9.34005e+12 -7.5707e+11 7.99521e+12)
(2.59218e+11 -4.67717e+11 2.26219e+12 4.13278e+12 -5.5597e+10 -2.39584e+12)
(1.91558e+12 -1.00648e+12 6.80541e+11 2.62457e+12 4.91895e+11 2.31143e+12)
(-1.33456e+11 -3.47946e+11 1.1502e+12 1.40807e+12 5.52565e+10 -5.67203e+11)
(4.52025e+11 -2.84101e+11 1.92631e+10 3.97447e+11 1.10445e+11 3.68251e+11)
(-4.81048e+10 -6.35837e+10 1.66743e+10 4.01848e+10 -1.39355e+10 5.19668e+10)
(4.79828e+11 -4.83153e+10 -5.13551e+10 3.42571e+11 2.4632e+10 4.30112e+11)
(1.39926e+12 9.53288e+10 1.8757e+09 1.34074e+12 -4.20629e+10 1.36741e+12)
(2.5234e+12 -2.98977e+11 -7.45368e+10 2.88343e+12 8.32566e+10 2.7268e+12)
(4.62448e+12 -2.98636e+09 -1.14435e+11 4.6936e+12 6.06184e+10 4.69281e+12)
(3.16597e+12 4.88268e+11 -9.19489e+11 2.36968e+12 3.41505e+11 3.38469e+12)
(3.65458e+12 9.69035e+10 1.40692e+12 2.2732e+12 -9.41825e+11 2.08436e+12)
(1.331e+12 -1.22257e+12 1.53246e+12 1.07795e+12 8.50458e+11 3.2713e+11)
(1.87103e+12 -1.052e+11 5.50706e+11 1.08461e+12 -9.9176e+10 1.239e+12)
(1.6122e+11 -3.32755e+11 1.30335e+11 3.34681e+11 9.22654e+10 2.8541e+11)
(4.74651e+10 -3.67e+10 4.58254e+10 6.17884e+10 -1.62804e+10 6.30153e+10)
(1.11061e+11 -7.30991e+10 1.11407e+10 2.35288e+11 1.57039e+10 2.09092e+11)
(2.79038e+11 -1.87917e+10 -6.52457e+09 2.67559e+11 5.32574e+09 2.69968e+11)
(1.17638e+12 1.18481e+11 7.22627e+09 9.32493e+11 -6.10537e+10 1.07919e+12)
(5.60914e+11 -1.59173e+10 1.09835e+10 5.71182e+11 -1.59196e+10 5.51857e+11)
(4.72915e+12 8.98397e+09 -1.43073e+11 4.8182e+12 4.62361e+10 4.82674e+12)
(2.45448e+11 -3.70471e+10 -3.79939e+10 1.41656e+11 1.99881e+10 4.64934e+11)
(4.14219e+12 7.17025e+10 7.40765e+11 3.54239e+12 6.15837e+10 3.51983e+12)
(4.65145e+11 -1.05776e+11 2.52711e+10 1.77e+10 7.11207e+10 2.53242e+11)
(6.41306e+11 -4.10461e+10 7.88391e+10 3.77164e+11 2.85346e+10 4.23039e+11)
(1.73981e+11 -7.1536e+10 -5.69918e+09 1.87833e+11 1.17438e+10 1.82098e+11)
(9.83599e+10 -3.10263e+10 3.26839e+10 1.35517e+11 -6.26844e+09 1.11091e+11)
(8.46295e+10 -4.00066e+10 2.31748e+10 1.86542e+11 8.53202e+09 1.40304e+11)
(3.01014e+11 -3.0305e+10 3.8058e+09 2.97011e+11 4.85231e+09 2.82848e+11)
(6.21652e+10 2.52132e+10 1.25567e+10 7.78444e+10 -1.72619e+10 8.4525e+10)
(1.48347e+11 7.18768e+09 1.84089e+10 1.74035e+11 -1.60049e+10 1.73576e+11)
(8.77608e+11 9.65712e+09 -4.83569e+10 9.4511e+11 6.20629e+10 9.65567e+11)
(1.03587e+12 -1.01218e+11 -3.17563e+10 1.00394e+12 -7.02073e+10 1.07385e+12)
(3.83928e+11 3.44448e+09 4.83127e+10 2.01596e+11 5.49687e+10 2.34996e+11)
(2.79202e+11 5.16511e+10 -2.56928e+10 2.10174e+11 -2.30191e+10 2.72452e+11)
(4.12624e+10 5.50728e+09 8.53798e+09 1.02714e+10 8.00927e+09 2.19017e+10)
(9.87392e+10 -2.21168e+10 -4.97487e+08 9.98798e+10 6.4215e+09 9.30622e+10)
(9.52411e+10 -1.17023e+10 1.53431e+10 9.572e+10 -2.98963e+09 9.00659e+10)
(4.56502e+10 -1.86924e+10 1.95821e+10 9.92826e+10 6.77538e+08 6.70632e+10)
(5.81222e+12 -4.44255e+11 -6.46528e+11 5.35545e+12 -1.01632e+11 6.20405e+12)
(2.50168e+13 1.02875e+12 -1.95692e+12 2.35464e+13 4.00097e+11 2.60085e+13)
(1.57746e+13 9.9664e+11 2.27229e+12 1.77709e+13 7.91999e+11 1.91904e+13)
(5.93337e+11 -7.82808e+11 2.52219e+12 7.6555e+12 -2.01636e+12 5.85965e+12)
(3.62456e+12 -6.36604e+11 -2.71784e+11 3.96377e+12 6.39945e+11 4.69771e+12)
(-2.53723e+10 -2.09187e+11 7.44486e+11 5.88746e+11 6.23274e+08 8.42635e+11)
(7.371e+11 -6.91111e+10 2.72681e+10 2.32462e+11 -1.9289e+10 5.14993e+11)
(9.9747e+10 9.26182e+09 -9.35593e+08 5.02587e+10 3.47589e+09 8.71845e+10)
(6.08214e+11 -2.78484e+10 -3.70019e+10 4.18586e+11 1.11429e+09 5.27914e+11)
(4.14933e+11 6.65476e+10 -4.73587e+09 3.03279e+11 -5.44988e+10 3.70645e+11)
(5.10608e+12 -2.65574e+11 1.05963e+11 5.08227e+12 -5.56337e+10 4.96633e+12)
(4.72783e+12 -1.25334e+11 -3.93408e+11 4.76712e+12 2.49203e+11 5.03269e+12)
(1.26647e+13 7.68185e+11 -1.56546e+12 1.04238e+13 8.73701e+11 1.36279e+13)
(6.86065e+12 4.02124e+11 7.11817e+11 6.47733e+12 -1.62373e+11 7.63373e+12)
(1.5692e+12 -9.13326e+11 1.39632e+12 1.76866e+12 4.83801e+11 2.63085e+12)
(3.26466e+11 1.14465e+11 1.3713e+11 3.23521e+11 -1.40268e+11 4.62896e+11)
(-5.71892e+10 -2.32419e+08 7.65331e+09 3.86462e+10 4.01136e+10 7.26744e+10)
(5.08679e+10 8.09159e+09 1.19006e+10 4.6727e+10 -2.26224e+10 6.02352e+10)
(-1.46498e+08 6.78266e+09 -5.845e+08 8.13838e+09 1.05075e+10 1.47996e+10)
(1.26797e+11 -1.30697e+10 -8.53607e+09 1.10293e+11 -2.6928e+09 1.21781e+11)
(1.36662e+12 -1.24963e+11 8.85476e+10 1.46356e+12 -2.88112e+10 1.40948e+12)
(8.04122e+12 -1.30608e+11 4.63196e+10 8.10392e+12 -3.81075e+10 8.00895e+12)
(2.91617e+12 2.80546e+11 -3.97521e+11 2.75165e+12 1.49645e+11 3.1057e+12)
(4.76079e+12 1.29539e+12 -1.03084e+12 2.22155e+12 9.31029e+11 4.64208e+12)
(3.35815e+12 3.269e+11 4.53679e+11 3.20087e+12 -1.86419e+11 3.22103e+12)
(6.2045e+10 -1.27751e+11 1.73151e+11 -1.5995e+11 1.49606e+11 2.44449e+11)
(2.25137e+11 -7.96288e+10 1.00206e+11 3.33336e+11 -7.24896e+10 2.99052e+11)
(5.78636e+10 -6.41057e+09 -8.42896e+09 1.0401e+11 9.99961e+09 9.64344e+10)
(5.81695e+10 -1.96387e+10 3.04759e+10 9.46021e+10 -2.75691e+10 8.87111e+10)
(-6.42642e+09 -2.20984e+09 1.01591e+10 1.86912e+10 6.00731e+09 9.1328e+09)
(8.87187e+09 -2.45486e+08 2.66502e+09 1.61035e+10 -2.0011e+09 6.46307e+09)
(1.83604e+12 -5.54293e+10 4.05208e+10 1.97338e+12 -2.86092e+10 1.88106e+12)
(7.23535e+12 -8.37578e+10 1.88834e+10 7.38395e+12 -4.31748e+10 7.23658e+12)
(3.29946e+12 5.1095e+11 -4.15308e+11 2.7605e+12 4.78339e+10 2.98704e+12)
(2.37601e+12 4.76831e+11 -2.01249e+11 3.73554e+11 5.84738e+11 1.86114e+12)
(5.5883e+11 -1.952e+11 2.64606e+11 1.91641e+11 -2.7285e+10 3.71819e+11)
(2.91337e+11 1.13582e+11 -3.03313e+10 2.32308e+11 4.08828e+10 2.74238e+11)
(6.5246e+10 -5.38055e+10 3.38011e+10 1.20929e+11 -2.08752e+10 1.17892e+11)
(3.88666e+10 -8.98986e+09 -6.43802e+09 6.17151e+10 9.35018e+09 5.78657e+10)
(7.43409e+10 -1.51608e+10 2.18886e+10 9.05391e+10 -1.76271e+10 8.71898e+10)
)
;

boundaryField
{
    inlet
    {
        type            calculated;
        value           nonuniform 0();
    }
    outlet
    {
        type            calculated;
        value           nonuniform 0();
    }
    bottom
    {
        type            calculated;
        value           nonuniform List<symmTensor> 
40
(
(-10854.8 22298.6 873.411 19598.9 -278.552 -2178.97)
(19549.7 -15339.5 36299 -2729.87 15142.4 -39140.3)
(16679.4 29330.8 11881 -19792.7 8964.14 -13391.2)
(13077.2 -8636.02 8198.47 3919.69 -7733.99 -12826.6)
(20215.7 -22345.6 23641.7 2754.8 36365.6 -25330.8)
(-8210.22 7744.81 30409.6 9221.26 -16377.5 55603.1)
(23160.5 -36858.3 48272.7 9262.78 18575.3 -23541.7)
(16478.3 20400.5 23071.3 -26678.9 -2068.93 -10047.6)
(4210.71 -10361.7 30376.7 -11225.1 -46551.9 55473.6)
(656.71 -1096.14 -5867.73 -7138.15 18306.1 -18881.3)
(-19790 -7905.84 36606.5 2903.27 -37242.1 58756.9)
(4613.25 -19729.2 29028.9 21029.8 6520.33 -2073.61)
(8467.19 13453.8 -19384.6 -5789.6 22313.5 -3149.37)
(-2834.73 -7393.75 29949 -565.93 -24371.3 29729)
(-7031.97 8906.81 -6371.7 685.989 12555.8 -10132.1)
(-23548 -8509.34 21578.1 8417.99 -14384.9 17356.1)
(16614.9 -15277.3 30431.5 -14499.7 -24572 -1018.54)
(6815.72 -6510.22 -16040.2 -3458.33 11738 -799.93)
(-12339.6 -9960.33 30654.3 3163.6 -29231 25215.9)
(812.175 -6369.99 620.849 8265.94 4790.7 -2261.84)
(27609.6 18113.3 5877.94 -17963.4 4066.88 5939.12)
(10366 -7752.07 30356.5 -5139.2 -32449.3 -17147.1)
(-5045.16 -4877.17 -22108.3 7371.14 7796.24 -615.519)
(-14084.2 -6192.87 23809.7 2794 -21510.6 10533.5)
(9336.51 -26982 48432.8 -3784.64 -3070.71 -20315.2)
(21410.5 6611.09 1188.07 -19170.8 2318.98 7650.76)
(7449.54 -5325.15 27467.1 -937.292 -33785.6 -28385.8)
(-7532.79 -8335.71 -25115.9 12869 8381.94 1859.9)
(4818.89 24807.1 19776.9 -16246 -18419.8 16890.7)
(11563.3 -16805.6 45283 8429.12 -14310.5 -37149.4)
(10896.1 7569.49 -4283.16 -12741.7 2629.54 8816.06)
(8096.69 -582.345 21630.1 2309.21 -29502 -38624.4)
(13775 -23073 43932.2 2023.99 19765.4 -19452.7)
(-4584.56 10936.3 19052.7 -18876.2 -15274.5 19963.7)
(13732.3 -3157.72 34001.4 13137.4 -13245.5 -49064.7)
(-495.208 12034 -1042.38 -4195.21 9743.54 12302.6)
(-5100.07 3012.2 29681.7 -9499.71 -29052.9 9061.16)
(6193.88 -1314.36 35969.5 22808.6 10953.9 -30557.5)
(-12129 5474.65 19908.6 -10304.2 5443.19 17558.2)
(13905.2 9145.89 16534.9 7055.29 -4624.7 -40249.6)
)
;
    }
    top
    {
        type            symmetryPlane;
    }
    side1
    {
        type            symmetryPlane;
    }
    side2
    {
        type            symmetryPlane;
    }
    procBoundary5to4
    {
        type            processor;
        value           nonuniform List<symmTensor> 
20
(
(7.6491e+09 -3.3436e+09 4.69592e+09 -1.00678e+09 -1.89102e+09 -1.02945e+10)
(3.42712e+09 1.91872e+10 -1.12419e+10 1.21138e+09 -1.86434e+08 -7.63849e+09)
(1.9223e+10 -3.69888e+09 2.64989e+09 -1.31227e+09 1.11324e+09 -9.93958e+09)
(1.99519e+09 -2.5895e+09 2.26596e+09 -2.05293e+09 1.58546e+09 -7.49681e+09)
(3.96788e+08 3.94986e+10 -3.28885e+10 4.32619e+09 -2.71606e+08 -6.84079e+09)
(2.15395e+09 -7.4225e+09 -2.71757e+10 4.20348e+09 3.69103e+09 1.53947e+10)
(1.43095e+09 2.38854e+09 -1.36403e+10 -1.07847e+09 5.03694e+09 5.3535e+09)
(5.40688e+09 -2.21958e+09 -9.03045e+09 -2.84e+09 3.26274e+08 3.56214e+09)
(5.49694e+10 -1.05541e+10 -9.42979e+08 -7.59642e+09 -2.34447e+10 1.7944e+10)
(-4.74228e+10 1.91222e+10 -1.06088e+10 1.91979e+10 7.10501e+09 1.49622e+10)
(-1.94187e+10 1.42519e+10 -4.41935e+09 1.33949e+09 -1.63131e+10 1.69607e+10)
(-5.206e+09 5.538e+09 -2.39686e+09 -3.54656e+09 -5.57108e+09 1.01721e+10)
(-4.04772e+10 -4.12414e+10 -1.26166e+11 -9.00267e+10 -1.2244e+09 2.31746e+10)
(3.15016e+10 -6.30255e+10 8.0263e+09 7.21855e+10 -4.92364e+09 -4.92856e+09)
(-5.20251e+10 1.33643e+10 1.45187e+10 -9.98696e+09 -2.02461e+10 -5.85575e+09)
(-1.13259e+10 1.61284e+09 4.32256e+09 7.76591e+09 -1.41763e+10 6.21532e+09)
(4.56659e+11 -3.04394e+11 1.18057e+11 -1.52916e+11 5.47245e+10 -1.28235e+11)
(-1.57433e+10 -1.12606e+11 1.78081e+11 -2.57954e+10 -7.58637e+10 -3.52553e+10)
(3.78325e+09 -1.00411e+10 -1.44352e+09 -5.60237e+09 -1.61955e+08 -4.41207e+09)
(1.00502e+10 -1.45562e+10 -2.10336e+09 1.97737e+10 4.1905e+08 -1.72982e+10)
)
;
    }
    procBoundary5to6
    {
        type            processor;
        value           nonuniform List<symmTensor> 
20
(
(6.05225e+10 -2.14601e+10 9.5309e+10 3.54258e+10 6.10365e+09 -3.41313e+10)
(-6.53104e+10 -4.10513e+10 5.13331e+10 -1.3368e+10 5.02698e+09 4.94479e+09)
(3.20691e+10 5.43629e+10 3.44713e+10 1.25912e+11 3.27469e+10 -2.71964e+10)
(-2.0784e+10 -1.05186e+10 3.07651e+10 -1.3381e+10 2.0877e+10 -8.21789e+09)
(-2.8351e+10 -4.86115e+10 -1.00736e+10 -1.51666e+10 2.02106e+10 6.23683e+09)
(-5.11639e+10 1.47723e+11 -3.95735e+10 5.15915e+11 -3.77339e+10 -8.79607e+10)
(-1.25984e+11 -1.21978e+11 -7.01878e+09 -8.41184e+10 2.12632e+10 5.70222e+10)
(2.74259e+10 1.92809e+10 -2.204e+10 -7.46657e+09 -1.01345e+10 3.79078e+09)
(3.58782e+11 3.30012e+11 -2.60434e+10 2.69955e+11 -1.95866e+11 -1.90978e+11)
(-3.45262e+11 -5.33061e+11 -1.49208e+10 -1.74493e+11 9.52517e+10 5.20866e+10)
(-5.37911e+10 1.77336e+11 1.35903e+10 1.49665e+11 -5.74334e+09 -4.07011e+07)
(4.09014e+10 4.28654e+09 -3.08859e+09 -9.78755e+10 -2.52592e+10 2.12308e+10)
(-1.89282e+10 -7.8421e+10 -6.70327e+10 -1.58787e+11 1.94051e+10 -1.78042e+10)
(-1.05804e+11 -1.38953e+11 -7.35009e+10 2.27222e+11 7.92165e+10 1.4801e+10)
(5.46957e+10 4.66026e+10 1.95974e+10 -1.05868e+11 -3.24824e+10 -1.0526e+10)
(1.51856e+10 -2.20949e+10 1.11636e+10 1.33016e+10 -7.2918e+09 -1.97754e+09)
(-5.62943e+09 -1.20276e+11 -5.59963e+10 -9.5576e+09 9.1983e+10 6.78603e+10)
(9.15812e+09 9.78134e+09 6.19944e+08 -2.03524e+10 -1.27607e+10 -2.03558e+09)
(5.99822e+09 -2.6162e+10 -4.79207e+09 1.14003e+10 -3.49938e+09 8.20555e+08)
(-1.23412e+10 -2.48729e+09 1.34229e+10 7.6794e+09 1.32831e+09 -5.96959e+09)
)
;
    }
    procBoundary5to13
    {
        type            processor;
        value           nonuniform List<symmTensor> 
50
(
(4.93126e+09 1.55599e+10 5.22045e+09 -3.61119e+09 4.37541e+09 -7.2537e+09)
(-4.84409e+08 -5.37699e+10 1.45126e+10 1.04068e+10 -1.7208e+10 -2.07716e+10)
(-1.27471e+10 2.88388e+10 2.6487e+10 1.88542e+10 2.82256e+10 -1.13424e+10)
(-3.2695e+10 -4.34485e+10 3.76224e+10 4.94296e+10 -2.05075e+10 8.89862e+09)
(-3.58664e+10 -3.86879e+10 -1.70253e+10 7.43867e+09 2.79208e+10 3.18403e+09)
(3.17154e+10 -1.88403e+10 1.28747e+10 1.58949e+10 -2.6249e+10 1.21758e+09)
(-1.48258e+10 2.37709e+09 1.01693e+10 -4.34026e+08 -3.75653e+09 9.37554e+08)
(-2.2847e+10 -8.26751e+09 -3.09972e+10 3.21916e+10 9.80881e+09 -1.47786e+09)
(1.6066e+10 1.17271e+10 7.78883e+09 5.5435e+09 -5.70743e+09 -8.91225e+09)
(-2.13717e+10 1.71313e+10 2.40917e+10 -2.91547e+09 1.81148e+10 -1.13742e+10)
(-1.16639e+09 -4.38176e+09 -8.16972e+09 1.66551e+10 -4.80574e+08 1.67707e+09)
(-2.2792e+09 8.68767e+08 -5.97146e+09 -9.07843e+09 1.88347e+09 3.49519e+08)
(1.63039e+10 -3.72975e+10 -5.99736e+09 4.17653e+09 8.77297e+09 1.97085e+09)
(7.17457e+09 1.53293e+10 5.1834e+09 -1.1404e+10 1.58584e+08 -5.47915e+09)
(-1.0948e+10 -2.97561e+10 2.73429e+10 6.27346e+10 -8.46287e+09 -4.63355e+09)
(-2.62123e+10 -2.90338e+10 -9.06633e+09 -8.54245e+08 1.64874e+09 -4.44441e+08)
(6.47437e+09 -2.52571e+09 -1.19937e+10 9.9684e+09 5.50636e+09 -3.01605e+09)
(-1.43861e+10 -1.27307e+09 6.81703e+09 5.13486e+09 -4.02754e+09 -2.99118e+09)
(-3.31198e+10 4.36124e+09 -2.69179e+10 2.2898e+10 1.94235e+10 1.80903e+10)
(3.49122e+09 4.33458e+09 -1.1389e+09 9.97326e+08 -2.43839e+09 -6.32836e+08)
(-6.33013e+08 -3.93039e+09 1.89116e+09 -7.98808e+09 2.01585e+08 5.61008e+09)
(-2.85053e+09 -1.54716e+09 -2.48898e+09 -9.49027e+09 -2.30733e+09 1.60513e+10)
(-2.8407e+09 6.99482e+08 1.72521e+09 -9.98545e+09 3.12213e+09 8.59205e+09)
(6.47624e+08 -9.50879e+09 -2.22746e+09 -5.10377e+09 6.1194e+09 1.7021e+10)
(-1.45722e+09 3.33709e+09 -2.59362e+09 -7.49984e+09 -7.68211e+09 1.9239e+09)
(-7.44777e+09 -7.05143e+09 -1.2313e+10 6.12142e+09 5.72314e+09 1.16072e+10)
(-1.01543e+09 -1.62976e+09 -3.49878e+09 -4.28211e+09 -8.20204e+08 -2.48956e+08)
(1.03923e+09 -1.19572e+10 -7.03708e+09 1.42221e+10 5.52307e+09 5.94792e+09)
(-9.63268e+08 3.36131e+08 9.42097e+08 -5.20856e+08 -8.31026e+08 -6.32263e+08)
(-8.70338e+09 4.84276e+09 -6.89679e+09 2.23602e+10 9.54291e+09 1.67329e+10)
(-4.29112e+09 4.96821e+09 1.25771e+09 1.91259e+08 -1.09558e+10 7.76124e+09)
(1.1312e+09 9.26932e+09 1.17699e+10 -1.30106e+10 -1.08622e+10 4.96382e+09)
(-8.6938e+08 3.97295e+09 1.0328e+10 -8.36407e+09 -1.66514e+10 8.4632e+09)
(-2.33695e+10 -1.18885e+10 -7.14569e+09 2.26209e+09 -3.80059e+09 1.70067e+10)
(-2.4874e+10 -1.651e+10 -1.31358e+10 5.07261e+10 -6.85597e+10 4.16887e+10)
(-1.06986e+09 2.57332e+10 -6.56821e+09 -4.6884e+09 2.03548e+09 1.53649e+09)
(7.78101e+09 1.08713e+10 -9.45213e+09 -6.62273e+09 -8.38807e+09 1.08138e+10)
(5.52912e+09 -1.50853e+09 2.53522e+09 -8.60436e+09 2.82904e+09 -4.11493e+08)
(6.90575e+09 -7.88921e+09 5.13368e+08 2.78477e+09 7.18673e+08 1.73555e+09)
(1.80762e+09 -2.32514e+09 4.85428e+09 -1.94097e+09 -3.36677e+09 -2.24693e+09)
(4.02923e+09 -8.16808e+09 1.77491e+09 7.79902e+09 -4.25712e+09 -8.99766e+09)
(-2.70395e+09 1.69981e+08 2.14851e+09 7.33336e+08 -3.01369e+09 -3.22282e+09)
(-5.36829e+10 -3.08346e+10 2.36436e+10 5.00303e+10 -1.89043e+10 -1.01737e+10)
(-1.03811e+10 -7.30057e+10 1.68867e+10 6.92524e+10 -2.28506e+10 -2.10948e+10)
(2.03607e+11 1.64953e+11 -1.06998e+11 -3.30729e+11 1.00955e+10 -1.17543e+11)
(9.91045e+10 4.67683e+11 -1.42982e+11 3.70946e+10 2.09665e+10 -4.14759e+10)
(4.84984e+10 1.96546e+10 -3.0928e+09 -1.09101e+11 -6.06561e+09 -2.10276e+10)
(2.75515e+10 2.95496e+09 -2.79992e+09 -1.42519e+10 1.62903e+10 -9.66096e+08)
(1.12304e+09 -3.6892e+10 1.49828e+10 7.54857e+09 -1.19249e+10 -1.40065e+09)
(-4.36138e+09 -4.25922e+09 -6.30349e+09 1.97302e+09 5.68832e+09 1.01703e+09)
)
;
    }
}


// ************************************************************************* //
