/*--------------------------------*- C++ -*----------------------------------*\
| =========                 |                                                 |
| \\      /  F ield         | OpenFOAM: The Open Source CFD Toolbox           |
|  \\    /   O peration     | Version:  2.4.0                                 |
|   \\  /    A nd           | Web:      www.OpenFOAM.org                      |
|    \\/     M anipulation  |                                                 |
\*---------------------------------------------------------------------------*/
FoamFile
{
    version     2.0;
    format      ascii;
    class       volVectorField;
    location    "0.07";
    object      U;
}
// * * * * * * * * * * * * * * * * * * * * * * * * * * * * * * * * * * * * * //

dimensions      [0 1 -1 0 0 0 0];

internalField   nonuniform List<vector> 
200
(
(-591288 -474248 72632.2)
(-38707.6 -1.34526e+06 844361)
(-1.43361e+06 2.11206e+06 -1.84912e+06)
(-214154 -1.04919e+06 104979)
(-1.78641e+06 1.64105e+06 33951.4)
(-906441 -578941 -197971)
(-2.93681e+06 577593 677174)
(-1.29546e+06 507456 -563022)
(-3.1376e+06 -792138 648423)
(-1.86942e+06 1.40861e+06 -302039)
(-640887 -1.15899e+06 1.30468e+06)
(-1.48706e+06 1.11569e+06 -1.85344e+06)
(-298794 -1.17663e+06 629377)
(-1.51443e+06 1.53165e+06 -990966)
(-180681 -432740 26664.3)
(-1.79842e+06 2.07589e+06 571570)
(-612598 -262207 -255025)
(-2.69052e+06 846375 1.23831e+06)
(-1.0944e+06 623472 -665458)
(-2.4995e+06 -616968 1.01858e+06)
(-1.11782e+06 -246759 446374)
(-1.29423e+06 -2.11369e+06 784725)
(-2.08285e+06 2.70691e+06 -1.95856e+06)
(-469645 -1.00202e+06 337736)
(-1.78985e+06 1.92924e+06 -840532)
(44503.2 -150675 20517.3)
(-1.57963e+06 2.17516e+06 946194)
(-265894 -194971 -293869)
(-2.03363e+06 780882 1.63549e+06)
(-838075 -492106 -585272)
(-517898 490396 427553)
(-1.25134e+06 343792 334920)
(-1.20449e+06 -1.41857e+06 69120.2)
(-1.44356e+06 1.47449e+06 -578535)
(-223325 -696374 75394.7)
(-1.4774e+06 1.46163e+06 -351117)
(363518 -184099 -61996.6)
(-1.16354e+06 1.90819e+06 1.28748e+06)
(26155.9 -471311 -410085)
(-1.1429e+06 241715 1.34165e+06)
(-337839 -1.90223e+06 1.91482e+06)
(-374423 591680 1.59075e+06)
(-465004 -1.37223e+06 1.18826e+06)
(-1.15673e+06 1.17382e+06 345119)
(-923445 -497242 204153)
(-2.51028e+06 2.06471e+06 1.11233e+06)
(-2.14256e+06 -210576 -111357)
(-3.89901e+06 -3.88368e+06 -284008)
(-1.03829e+06 4.99504e+06 251654)
(-3.25164e+06 -3.31387e+06 -125150)
(-150702 -589304 969649)
(-197271 -1.23664e+06 1.67635e+06)
(-454640 245238 189384)
(-1.03218e+06 -827439 652226)
(-1.76256e+06 2.19213e+06 -209959)
(-886474 136882 -154588)
(-1.77122e+06 2.56765e+06 1.22538e+06)
(-1.56861e+06 179072 -199929)
(-3.49677e+06 -3.7726e+06 -82027)
(-1.19136e+06 899248 -311789)
(-191545 29749.7 750594)
(-573861 -563867 1.00491e+06)
(-908114 -1.5097e+06 996829)
(-2.18721e+06 3.72827e+06 -1.55647e+06)
(-595103 -796466 208107)
(-1.81583e+06 1.80278e+06 30335)
(-330429 50361.2 -301979)
(-960624 2.29416e+06 1.21548e+06)
(-681176 61105.9 -360924)
(-2.01457e+06 -1.34747e+06 688794)
(-413031 -360188 632869)
(-228229 487306 607800)
(-1.12484e+06 599294 762333)
(-880101 -1.61658e+06 45915.2)
(-1.23573e+06 2.0163e+06 -412761)
(-360954 -703811 37419.6)
(-1.41228e+06 1.44773e+06 118902)
(72060.3 -241977 -434570)
(-573210 1.58666e+06 1.18668e+06)
(-144999 -633495 -529292)
(-1.21829e+06 721815 1.18219e+06)
(274027 -1.20203e+06 3.4685e+06)
(-1.32219e+06 -142840 1.72777e+06)
(-1.01865e+06 -1.62484e+06 830175)
(-2.11189e+06 518960 1.50892e+06)
(-1.11866e+06 -617013 419368)
(-2.33818e+06 1.90716e+06 1.44563e+06)
(-2.41266e+06 -33807.2 428723)
(-3.59325e+06 -5.44454e+06 -91162.3)
(-779610 5.11307e+06 1.28558e+06)
(1.47154e+06 -712935 164387)
(284294 -463076 859251)
(881618 -767131 1.89699e+06)
(-655440 -693488 1.24387e+06)
(-742465 -647957 708957)
(-1.55851e+06 823845 755473)
(-861162 78895.1 138966)
(-964746 2.23441e+06 1.08097e+06)
(-1.66198e+06 385146 188684)
(-3.01802e+06 -4.52909e+06 -176141)
(778699 -898948 2607.35)
(954068 -1.0193e+06 576794)
(576703 -1.12064e+06 619662)
(-130462 -852872 652731)
(-588898 -49812 447691)
(-550276 -461974 420353)
(-855649 944044 389908)
(-129879 -16891.4 -187626)
(-51394.6 1.67537e+06 682925)
(-639947 187810 -218867)
(224396 -234750 274805)
(260685 -777300 380991)
(283064 -292044 369491)
(16075.1 -470445 363104)
(-61391.1 -468197 232341)
(-265843 253379 340048)
(-37505.1 -471281 222646)
(-240540 789522 270127)
(374078 -281258 -354833)
(476686 1.03286e+06 475423)
(2.22356e+06 1.51193e+06 1.06698e+07)
(-4.7253e+06 -3.24128e+06 7.2057e+06)
(-586623 -1.49613e+06 2.56552e+06)
(-3.64467e+06 -1.38823e+06 4.77066e+06)
(-917100 -1.54646e+06 622253)
(-2.75475e+06 268750 1.72398e+06)
(-1.26119e+06 -696648 -151943)
(-1.99557e+06 1.6396e+06 887986)
(-2.11932e+06 71403.8 386567)
(-2.60958e+06 -3.97142e+06 -9604.85)
(-2.0778e+06 1.95116e+06 -1.0582e+06)
(2.09975e+06 1.34139e+06 9.18885e+06)
(-2.60493e+06 -3.33171e+06 6.02395e+06)
(254394 -610556 3.75962e+06)
(-2.359e+06 -820625 1.48563e+06)
(-1.3613e+06 -659818 819532)
(-1.85844e+06 726151 692748)
(-1.16797e+06 1596.47 -130621)
(-963532 1.78994e+06 540491)
(-1.61092e+06 484710 97990.5)
(468640 389871 -876541)
(-528381 897765 -1.12758e+06)
(2.47512e+06 815585 8.26679e+06)
(116756 12682.7 -35263)
(349112 -413336 1.38457e+06)
(-944326 -8317.66 63200.5)
(-959541 -627002 531756)
(-925140 712000 439122)
(-564313 -44387.5 -314663)
(-272744 1.3243e+06 201170)
(97424.8 581403 -608027)
(136552 -156052 -734191)
(547447 -105211 -1.49926e+06)
(1.37557e+06 728152 1.33883e+06)
(308463 2.6102e+06 -960263)
(238329 494879 323210)
(-97985.5 454583 -74877.7)
(-70998.5 -562567 325374)
(-245340 620222 217984)
(-85492.9 -151603 -451428)
(-5.77353e+06 3.20561e+06 -3.01118e+06)
(-3.09958e+06 4.9207e+06 8.68506e+06)
(-6.59143e+06 -5.35533e+06 1.28506e+07)
(1.09049e+06 -2.97738e+06 -1.42247e+06)
(-2.26399e+06 -1.33812e+06 6.22362e+06)
(1.02321e+06 -1.09381e+06 47950.2)
(-562799 1.30764e+06 1.17494e+06)
(-116022 -332132 -371526)
(-1.03787e+06 1.41579e+06 634304)
(-1.32292e+06 261234 108781)
(-2.03779e+06 2.60632e+06 -1.53105e+06)
(-3.18893e+06 5.74302e+06 -3.10988e+06)
(-1.30783e+06 3.20673e+06 6.90864e+06)
(-3.74883e+06 -2.78021e+06 7.80072e+06)
(-1.11451e+06 -106335 1.15098e+06)
(-2.09459e+06 1.30547e+06 893071)
(-1.06611e+06 137981 206956)
(-1.25736e+06 1.85335e+06 513647)
(-992913 363846 -255220)
(-1.02008e+06 1.58345e+06 548359)
(-642946 1.54141e+06 -270659)
(24057.2 5.70278e+06 -2.66434e+06)
(-650672 9.72331e+06 -3.86702e+06)
(-202131 1.18354e+06 3.13107e+06)
(-1.90758e+06 1.03917e+06 1.25992e+06)
(-1.42397e+06 -971798 1.21969e+06)
(-1.65056e+06 1.33143e+06 160702)
(-1.23424e+06 -15205.9 334475)
(-1.09061e+06 1.52845e+06 607689)
(-920982 431006 -308966)
(-735166 1.29708e+06 -92011.8)
(-244805 1.09345e+06 -479556)
(929288 4.74859e+06 -2.28658e+06)
(984446 7.08963e+06 -2.01216e+06)
(-574631 -1.64288e+06 2.3935e+06)
(-835921 3.42099e+06 -663268)
(-1.22922e+06 -671548 576106)
(-1.11842e+06 1.05492e+06 136777)
(-844104 24537.1 223453)
(-759678 1.29588e+06 660511)
)
;

boundaryField
{
    inlet
    {
        type            calculated;
        value           nonuniform 0();
    }
    outlet
    {
        type            calculated;
        value           nonuniform 0();
    }
    bottom
    {
        type            calculated;
        value           uniform (0 0 0);
    }
    top
    {
        type            symmetryPlane;
    }
    side1
    {
        type            symmetryPlane;
    }
    side2
    {
        type            symmetryPlane;
    }
    procBoundary5to4
    {
        type            processor;
        value           nonuniform List<vector> 
20
(
(-490990 488164 178036)
(-672494 -425872 370374)
(-599254 392034 377527)
(-706461 -348516 370754)
(-432137 -421501 841074)
(133214 154029 599479)
(-208259 -602639 559954)
(-177827 208168 484123)
(1.28217e+06 928451 854742)
(625424 -485056 -691051)
(350929 -232538 -52469.8)
(272942 -556646 52387.9)
(-7.0991e+06 6.43078e+06 -834725)
(-39601.2 230612 -848260)
(-162041 997824 -890404)
(-231966 612292 -491406)
(-3.15311e+06 1.24002e+06 -1.88889e+06)
(-2.01991e+06 789860 -97544.2)
(-1.13719e+06 1.67253e+06 305600)
(-351789 1.25397e+06 -492403)
)
;
    }
    procBoundary5to6
    {
        type            processor;
        value           nonuniform List<vector> 
20
(
(-2.92509e+06 -728117 511729)
(-1.35248e+06 217329 -538548)
(-1.52826e+06 -353635 1.02404e+06)
(-553227 -1.63509e+06 -359366)
(-1.54315e+06 2.12694e+06 275668)
(-2.36862e+06 -1.48766e+06 316916)
(-923294 -1.47472e+06 -383860)
(-830582 -318563 868311)
(-2.93313e+06 -3.52017e+06 91109.4)
(-1.28838e+06 2.11553e+06 443955)
(-1.29573e+06 -2.18153e+06 -243969)
(207346 -562772 -543401)
(-700743 4.82361e+06 1.86559e+06)
(-2.34133e+06 -3.28988e+06 -322423)
(-964437 433944 -382694)
(142757 965706 310.703)
(-1.6956e+06 -619142 366265)
(-1.32015e+06 815604 -13546.5)
(-768027 1.48031e+06 433011)
(-664825 378689 -399299)
)
;
    }
    procBoundary5to13
    {
        type            processor;
        value           nonuniform List<vector> 
50
(
(-1.0631e+06 -573400 509382)
(-876375 109543 270067)
(-1.05603e+06 954419 501142)
(-495815 -1.70352e+06 -950999)
(-702463 1.24041e+06 101953)
(52098.2 -383508 -48455)
(-1.08346e+06 1.10275e+06 9451.86)
(405588 -387405 -147338)
(-706353 1.13048e+06 1.18985e+06)
(-34841 -1.08005e+06 -418776)
(-208427 713322 305489)
(-451915 -39967.6 699384)
(-97435.4 723233 582453)
(-830671 1.34134e+06 643057)
(-521122 -1.35114e+06 -257604)
(-745953 1.46224e+06 1648.8)
(-151890 -561677 -80984.4)
(-908392 1.08645e+06 225397)
(208421 -495771 -408031)
(-321419 845526 926618)
(-49142.9 -580347 390268)
(98432.4 298416 215601)
(15887.9 -360813 354631)
(233324 265021 84410.6)
(-4111.8 189860 216691)
(304260 -212441 -28421.5)
(126410 180481 251601)
(359412 -276358 92394.5)
(102914 455604 163895)
(527629 -482392 -290076)
(-173890 449317 -341967)
(25532.1 333733 -472416)
(-201928 117970 -723133)
(50978.4 380831 -1.03899e+06)
(647971 1.7504e+06 -557294)
(523357 1.07888e+06 -649286)
(677709 98253.7 -37714.7)
(390508 374824 -204926)
(379400 -109507 -54709.4)
(189474 446128 -5016.93)
(-276336 1.08422e+06 -346521)
(-548915 1.18978e+06 -178108)
(-105776 1.05988e+06 -438053)
(1.36582e+06 4.09052e+06 -1.89477e+06)
(345396 8.07418e+06 -2.31676e+06)
(-189929 706850 -165090)
(-262700 1.63546e+06 -339215)
(-461603 -365153 163438)
(-632440 1.05128e+06 2219.25)
(-474755 172799 128705)
)
;
    }
}


// ************************************************************************* //
