/*--------------------------------*- C++ -*----------------------------------*\
| =========                 |                                                 |
| \\      /  F ield         | OpenFOAM: The Open Source CFD Toolbox           |
|  \\    /   O peration     | Version:  2.4.0                                 |
|   \\  /    A nd           | Web:      www.OpenFOAM.org                      |
|    \\/     M anipulation  |                                                 |
\*---------------------------------------------------------------------------*/
FoamFile
{
    version     2.0;
    format      ascii;
    class       volScalarField;
    location    "0.03";
    object      nut;
}
// * * * * * * * * * * * * * * * * * * * * * * * * * * * * * * * * * * * * * //

dimensions      [0 2 -1 0 0 0 0];

internalField   nonuniform List<scalar> 
200
(
0.00188153
0.00338085
0.00506161
0.00265046
0.00384192
0.00907077
0.00358259
0.00270171
0.00236271
0.00627829
0.00368734
0.00526847
0.00390419
0.0042449
0.00394477
0.00390217
0.00745821
0.00384276
0.00332311
0.00880215
0.00551703
0.00603444
0.00508221
0.00525315
0.00465038
0.0046851
0.00387502
0.00517247
0.0043859
0.00488295
0.00399332
0.00708593
0.00565648
0.00471876
0.00541656
0.00320534
0.00473944
0.00202268
0.00379365
0.00736395
0.00496037
0.00505987
0.00339941
0.0045123
0.00449221
0.00434347
0.00793578
0.00355256
0.00150914
0.00677774
0.00649115
0.00426304
0.00396505
0.00505608
0.0044491
0.00439028
0.00322003
0.00297521
0.00360595
0.00270616
0.00491722
0.00476434
0.00435231
0.00517164
0.00495528
0.00365315
0.00343669
0.00180385
0.00296871
0.00582214
0.00569016
0.0042188
0.00318229
0.00498386
0.00532429
0.00490451
0.003151
0.00224697
0.00144383
0.00615635
0.00534751
0.00490092
0.00421241
0.00552583
0.00457687
0.00440158
0.00320475
0.00192497
0.00304984
0.00137287
0.00424961
0.004562
0.0047155
0.00503793
0.0055867
0.00502374
0.00356844
0.00253802
0.00229645
0.00529431
0.00592263
0.00369965
0.00384365
0.00565954
0.00589301
0.0057263
0.00518046
0.00251592
0.00159032
0.00385292
0.00480896
0.00462397
0.00427066
0.0048968
0.00611171
0.00662527
0.00518717
0.00442184
0.00247259
0.00324298
0.00425192
0.00427012
0.00488411
0.00473249
0.00546
0.00438
0.00323121
0.00346514
0.00170677
0.00485183
0.00434132
0.00443705
0.00411373
0.0056618
0.0058471
0.00679425
0.00507516
0.00216218
0.00161037
0.00226083
0.00468991
0.00394864
0.00441594
0.00510002
0.00708551
0.00722453
0.00570015
0.00486549
0.00310957
0.00265327
0.00473686
0.00645883
0.0043598
0.00790999
0.00849258
0.00966644
0.00822551
0.00628965
0.0127957
0.00290947
0.00286103
0.00479834
0.00353478
0.00402732
0.00421576
0.00443657
0.0052574
0.00191152
0.0030571
0.00211309
0.00687277
0.00372879
0.0070424
0.00455888
0.00694023
0.00731923
0.00616797
0.00532174
0.00347201
0.00110144
0.0044668
0.0089195
0.00555165
0.00977638
0.00624134
0.0120074
0.0107312
0.00818835
0.0172348
0.00470828
0.0123944
0.0065964
0.0139976
0.00678147
0.0181607
0.00903999
0.0172342
0.0250978
0.0296256
0.0131246
)
;

boundaryField
{
    inlet
    {
        type            calculated;
        value           nonuniform 0();
    }
    outlet
    {
        type            calculated;
        value           nonuniform List<scalar> 
20
(
1.09554e-27
2.07008e-27
3.56645e-27
3.14762e-27
7.36817e-28
9.07238e-28
3.84247e-27
2.34163e-27
5.67214e-28
3.54493e-27
2.39389e-27
2.01691e-27
2.8513e-27
8.43517e-28
2.15786e-27
2.09896e-27
7.49379e-28
8.13913e-28
1.70736e-27
4.74052e-27
)
;
    }
    bottom
    {
        type            calculated;
        value           nonuniform List<scalar> 
40
(
2.4944e-27
2.10965e-27
5.39114e-27
2.53241e-27
1.75064e-27
6.70233e-27
4.6121e-27
7.74992e-27
7.01822e-27
3.9111e-27
7.17422e-27
5.62559e-27
2.72483e-27
6.11422e-27
4.97986e-27
5.98933e-27
4.26588e-27
3.10499e-27
4.4919e-27
4.96625e-27
9.05604e-27
3.25616e-27
3.99284e-27
3.23187e-27
1.13575e-26
6.49575e-27
3.79289e-27
4.13839e-27
3.75629e-27
7.57814e-27
4.76509e-27
3.0468e-27
8.93095e-27
4.25486e-27
4.94394e-27
3.85853e-27
4.73598e-27
1.11057e-26
4.44858e-27
7.65018e-27
)
;
    }
    top
    {
        type            symmetryPlane;
    }
    side1
    {
        type            symmetryPlane;
    }
    side2
    {
        type            symmetryPlane;
    }
    procBoundary23to15
    {
        type            processor;
        value           nonuniform List<scalar> 
50
(
0.000778553
0.00217648
0.00246624
0.00518701
0.00731482
0.0031031
0.00244034
0.00305046
0.00144258
0.00768448
0.00322298
0.00379323
0.00466925
0.00221962
0.00454521
0.00819051
0.00254013
0.00160192
0.00202964
0.00365142
0.00364454
0.00454468
0.00482636
0.00552438
0.00404848
0.0039658
0.00387247
0.00324032
0.0010851
0.00471312
0.00243953
0.00437876
0.00395994
0.00588407
0.00531003
0.00426626
0.00292495
0.00355772
0.00282393
0.00246398
0.00372224
0.00249981
0.00319029
0.00307707
0.00268609
0.00314586
0.003494
0.00212404
0.00160255
0.00435318
)
;
    }
    procBoundary23to22
    {
        type            processor;
        value           nonuniform List<scalar> 
20
(
0.000917035
0.00245089
0.00254331
0.00286799
0.00299022
0.00415212
0.00550934
0.00386054
0.00332607
0.00516161
0.00389557
0.00386787
0.00285416
0.00420517
0.00449841
0.00685905
0.00545649
0.00309802
0.00948169
0.00404452
)
;
    }
    procBoundary23to31
    {
        type            processor;
        value           nonuniform List<scalar> 
50
(
0.00437905
0.00552903
0.00752614
0.0052239
0.0036293
0.00426804
0.00215294
0.00590262
0.00231616
0.00501478
0.00487413
0.00577969
0.00418752
0.00323207
0.00460592
0.00479725
0.0044998
0.00189941
0.00355267
0.00433227
0.00360377
0.00662338
0.00374617
0.00557879
0.00630403
0.00492345
0.00469037
0.00366156
0.00513296
0.00606477
0.00644849
0.00342144
0.00747583
0.00704043
0.0129678
0.00745457
0.0087887
0.00937391
0.0173473
0.00521293
0.00756058
0.0150218
0.0097858
0.0207346
0.00847087
0.0276675
0.0226367
0.0349456
0.0286872
0.0202652
)
;
    }
}


// ************************************************************************* //
