/*--------------------------------*- C++ -*----------------------------------*\
| =========                 |                                                 |
| \\      /  F ield         | OpenFOAM: The Open Source CFD Toolbox           |
|  \\    /   O peration     | Version:  2.4.0                                 |
|   \\  /    A nd           | Web:      www.OpenFOAM.org                      |
|    \\/     M anipulation  |                                                 |
\*---------------------------------------------------------------------------*/
FoamFile
{
    version     2.0;
    format      ascii;
    class       volVectorField;
    location    "0.03";
    object      U;
}
// * * * * * * * * * * * * * * * * * * * * * * * * * * * * * * * * * * * * * //

dimensions      [0 1 -1 0 0 0 0];

internalField   nonuniform List<vector> 
200
(
(51.1892 -4.64008 -3.49749)
(31.1343 28.023 46.5473)
(17.553 90.0179 -54.3592)
(-30.6802 118.082 66.6236)
(-4.92451 124.633 42.2074)
(-55.584 177.214 74.8239)
(-37.0581 59.5416 -148.088)
(-16.196 177.625 101.417)
(-25.6885 40.5882 -117.625)
(-16.9906 156.522 95.3962)
(15.8534 11.0552 57.5303)
(12.48 62.0759 -49.0323)
(-41.7879 135.228 107.667)
(-31.4246 109.86 -39.133)
(-62.0932 94.9967 86.8647)
(-30.7667 70.9677 86.1964)
(-50.1709 122.45 80.0545)
(-29.0909 59.9453 -80.6151)
(-23.7027 155.799 94.2888)
(-30.8373 47.4974 -98.1798)
(30.6688 10.286 0.0413361)
(-22.0966 111.447 112.72)
(-14.1955 99.9124 -54.2792)
(-78.4083 143.09 135.485)
(-77.8737 55.4695 11.1746)
(-113.783 63.5374 105.38)
(-112.352 19.7148 43.4063)
(-108.933 71.2652 91.8103)
(-79.87 41.2037 -17.7677)
(-58.5198 125.393 106.36)
(7.95958 12.4395 40.5683)
(47.2438 46.8982 -20.3228)
(-18.6525 182.163 151.545)
(12.8812 86.6527 -40.9071)
(-75.5856 125.398 149.496)
(-64.0468 -5.83001 -8.57821)
(-109.079 42.7847 124.688)
(-100.308 -53.1181 2.23692)
(-107.744 14.1703 146.348)
(-84.9099 -57.6737 -7.04649)
(2.87887 68.7358 78.6478)
(-18.6136 94.2483 -34.4736)
(-73.6465 157.585 102.01)
(-72.345 95.0731 -9.95251)
(-106.629 55.9087 48.1118)
(-35.357 64.2448 92.8081)
(-49.4937 129.066 83.8478)
(-50.3421 38.6143 -135.696)
(-47.4656 123.297 81.5729)
(-68.4434 34.1987 -74.5366)
(2.01233 77.5021 -16.1151)
(-70.3214 212.181 158.158)
(-55.6591 117.235 -28.9412)
(-115.795 160.999 122.55)
(-114.489 50.6255 5.90642)
(-127.714 39.5978 53.5987)
(-95.944 10.2339 33.2205)
(-80.7947 60.2728 72.0002)
(-62.1224 42.8131 -24.3487)
(-52.2423 117.6 85.2999)
(-44.7872 176.51 159.689)
(-7.96195 118.198 -34.6958)
(-95.0449 278.144 208.538)
(-65.8492 89.7519 -11.3741)
(-134.216 133.117 130.767)
(-114.418 14.467 10.9505)
(-151.878 36.6829 85.2703)
(-128.607 -8.64445 21.1041)
(-119.28 34.3699 81.8241)
(-84.9634 13.1179 -7.70508)
(28.3015 86.6189 10.5416)
(-55.9828 270.255 218.083)
(9.05491 118.543 -36.4768)
(-89.2557 289.705 235.702)
(-48.8141 29.3594 -16.3704)
(-132.621 124.559 168.735)
(-96.7378 -31.1409 -16.6403)
(-138.79 24.3829 94.3639)
(-97.7548 -48.1898 -14.984)
(-99.6569 7.62879 125.223)
(17.8607 68.2961 21.7263)
(-57.1663 182.568 138.775)
(-58.5093 103.321 -9.20143)
(-117.103 161.771 116.896)
(-129.583 46.8715 12.4174)
(-159.955 51.999 78.8565)
(-129.961 12.4112 25.316)
(-109.556 71.4399 76.8793)
(-101.673 36.4472 -17.7941)
(-83.9784 96.0692 58.3328)
(-48.3705 205.884 190.141)
(-18.2128 118.969 -16.5507)
(-112.028 287.17 198.112)
(-80.6647 98.4282 -4.28093)
(-158.875 175.132 140.798)
(-144.545 33.3011 10.0139)
(-195.423 43.564 72.5862)
(-170.6 -3.89594 14.2095)
(-157.161 40.2646 66.0587)
(-122.149 22.1313 -9.06613)
(12.5717 101.011 16.8388)
(-88.194 345.097 275.302)
(-19.8619 122.987 -26.8602)
(-136.03 335.681 254.661)
(-75.2652 55.1269 -1.48421)
(-182.115 187.8 186.979)
(-128.639 -2.75178 6.7352)
(-189.306 23.662 72.0107)
(-139.64 -25.9224 3.30382)
(-140.225 4.46726 68.3776)
(-82.3695 286.742 269.577)
(23.1411 98.0094 -6.68711)
(-108.655 429.534 351.247)
(-0.097946 80.065 -24.769)
(-155.42 346.502 325.419)
(-54.4656 -7.47949 -1.12787)
(-174.202 154.308 207.632)
(-102.051 -39.1785 -3.63248)
(-139.919 9.10039 86.4207)
(-106.843 -53.9551 -13.0207)
(-18.2306 128.367 145.267)
(-1.13377 88.8079 5.11356)
(-81.1474 215.785 137.842)
(-69.854 80.9397 -17.1495)
(-130.177 142.902 91.6031)
(-129.323 20.4736 -13.6329)
(-153.566 39.3854 46.0121)
(-131.238 -32.1485 -57.9949)
(-132.417 12.6772 36.28)
(-127.63 -17.7391 -26.9751)
(21.8491 86.4904 10.1041)
(-76.3485 294.165 218.862)
(-22.3064 115.683 -29.5345)
(-135.837 301.785 192.409)
(-82.3086 60.1133 -20.775)
(-187.358 163.44 136.057)
(-155 -3.82888 -9.76066)
(-196.02 11.954 46.6034)
(-163.162 -20.9145 -4.75938)
(-161.975 7.67294 43.0697)
(-86.0367 292.246 249.411)
(14.7328 97.9946 -26.7357)
(-125.995 423.658 305.412)
(-10.5616 87.0505 -41.1013)
(-181.181 347.714 266.273)
(-71.7579 18.2745 -14.7783)
(-203.573 128.532 149.609)
(-132.37 -22.0287 -4.73872)
(-177.794 -3.19553 56.2685)
(-148.615 -39.3043 -7.53022)
(56.1001 69.5005 -15.8431)
(-141.996 452.515 370.418)
(39.7521 69.0393 -45.6762)
(-187.915 497.523 393.215)
(-8.48124 28.825 -27.5693)
(-239.692 285.92 273.213)
(-108.774 1.74168 -12.0046)
(-246.595 -7.77985 43.1742)
(-143.392 -54.0655 21.6506)
(-106.565 -14.6276 65.4304)
(10.9653 31.7275 -6.36657)
(-60.2042 191.785 162.656)
(4.99655 62.3629 -16.1545)
(-72.6131 211.311 125.488)
(-14.6201 51.8982 -19.4095)
(-98.179 145.541 74.0105)
(-49.4736 4.49281 -12.6562)
(-108.449 -4.97401 12.689)
(-69.7533 -37.404 -4.72367)
(-83.0121 -69.1137 -26.5735)
(-121.238 268.194 240.341)
(17.6214 32.969 -42.6728)
(-110.664 345.22 273.499)
(31.6786 49.7912 -41.2457)
(-120.112 321.588 236.309)
(14.1073 16.5431 -16.3231)
(-145.243 152.133 126.627)
(-47.202 -16.2034 -19.6384)
(-119.304 -21.9614 11.7433)
(-89.3475 -52.3615 -8.62497)
(25.0018 22.9607 -57.5753)
(-180.812 417.222 350.886)
(49.818 19.3291 -67.0398)
(-174.261 499.129 404.424)
(76.4187 45.0151 -47.3576)
(-188.663 451.157 374.737)
(20.3997 52.8361 -25.1712)
(-222.92 187.369 150.465)
(-78.327 -7.92739 -35.8599)
(-105.077 -49.6861 -15.0431)
(-302.067 548.945 492.432)
(68.3918 -0.883009 -84.8436)
(-284.017 663.722 585.552)
(139.19 36.0384 -89.395)
(-258.916 623.845 544.136)
(67.4645 52.4773 -70.9989)
(-284.49 521.687 361.662)
(-34.3695 216.262 -56.3401)
(-362.288 -329.381 -438.939)
(-230.453 -65.6566 -45.1238)
)
;

boundaryField
{
    inlet
    {
        type            calculated;
        value           nonuniform 0();
    }
    outlet
    {
        type            calculated;
        value           nonuniform List<vector> 
20
(
(-16.9906 156.522 95.3962)
(-30.8373 47.4974 -98.1798)
(-58.5198 125.393 106.36)
(-84.9099 -57.6737 -7.04649)
(-68.4434 34.1987 -74.5366)
(-52.2423 117.6 85.2999)
(-84.9703 13.1339 -7.71213)
(-99.6569 7.62889 125.223)
(-83.9784 96.0692 58.3328)
(-122.149 22.1313 -9.06613)
(-140.225 4.4673 68.3776)
(-106.843 -53.9551 -13.0207)
(-127.63 -17.7391 -26.9751)
(-161.975 7.67294 43.0697)
(-148.615 -39.3043 -7.53022)
(-106.565 -14.6276 65.4304)
(-83.0121 -69.1137 -26.5735)
(-89.3475 -52.3615 -8.62497)
(-105.077 -49.6861 -15.0431)
(-230.453 -65.6566 -45.1238)
)
;
    }
    bottom
    {
        type            calculated;
        value           uniform (0 0 0);
    }
    top
    {
        type            symmetryPlane;
    }
    side1
    {
        type            symmetryPlane;
    }
    side2
    {
        type            symmetryPlane;
    }
    procBoundary23to15
    {
        type            processor;
        value           nonuniform List<vector> 
50
(
(62.8211 -9.208 19.111)
(58.9883 13.0596 -11.8301)
(36.0914 31.5168 29.7018)
(25.4157 83.0026 -17.5534)
(-31.8225 138.495 59.8319)
(-40.4259 70.3754 -181.37)
(-19.4116 201.076 108.937)
(-34.1966 36.4691 -137.909)
(-23.2627 154.12 91.8044)
(-41.2002 35.0887 -86.4424)
(38.1416 17.9323 6.68962)
(-2.76304 74.6405 57.5957)
(-17.6328 89.3165 -18.3353)
(-76.5596 81.4028 49.8208)
(-3.93553 111.377 96.7184)
(-45.1862 167.417 87.2099)
(-57.7069 45.9492 -142.646)
(-54.3062 127.024 78.4532)
(-72.62 28.8505 -82.3433)
(-65.906 98.1885 45.8453)
(25.0569 45.5045 83.3104)
(1.855 58.4504 9.67207)
(-53.3156 113.438 81.0826)
(-72.1017 51.2116 14.539)
(-118.715 23.9035 58.4957)
(-57.2809 42.7224 62.5695)
(-55.9299 110.688 79.0244)
(-65.3533 36.1613 -43.6138)
(-56.3613 96.8813 49.3777)
(-73.0876 24.3941 -62.1494)
(46.7011 35.7328 38.4143)
(-7.02396 89.2284 106.637)
(-18.6121 64.1981 7.22103)
(-67.2056 110.563 60.1701)
(-92.739 38.7373 6.78238)
(-113.869 32.1119 62.0622)
(-103.91 10.8001 -15.1369)
(-77.6793 40.1628 41.2659)
(-64.5271 -4.37504 -47.2223)
(-54.5899 32.4795 28.484)
(-33.9878 83.3852 116.134)
(11.6513 34.2213 11.9433)
(-32.3055 110.828 89.8733)
(-12.9169 56.0645 -7.33312)
(-64.0186 113.854 39.2079)
(-37.848 23.6152 -25.299)
(-80.0807 44.8284 7.31606)
(-67.008 -26.0936 -74.5975)
(-70.3169 2.99746 36.5962)
(-62.2266 -25.0042 -32.5531)
)
;
    }
    procBoundary23to22
    {
        type            processor;
        value           nonuniform List<vector> 
20
(
(48.9466 -28.9975 24.8273)
(42.2942 -23.2996 17.2125)
(23.9136 -25.1432 33.5691)
(46.0497 -41.8038 -8.05122)
(44.1159 16.7671 26.0869)
(6.36487 44.8949 86.5425)
(32.9852 58.2513 35.0373)
(-22.9027 111.3 130.682)
(20.86 54.9636 105.766)
(33.7926 66.8503 48.3096)
(-40.045 165.93 189.538)
(45.4683 72.6458 35.1557)
(51.1486 47.5433 41.4953)
(-27.8761 148.967 165.661)
(41.6657 85.0497 21.4119)
(-96.4731 314.453 296.715)
(-67.1493 138.231 159.99)
(16.0132 26.0226 -30.2213)
(-185.283 361.051 326.461)
(29.2905 20.9857 -60.8748)
)
;
    }
    procBoundary23to31
    {
        type            processor;
        value           nonuniform List<vector> 
50
(
(54.5858 -55.3504 -25.8401)
(-4.06787 61.4054 66.0268)
(80.2868 46.7254 -34.207)
(4.03511 209.735 186.094)
(68.062 36.7534 -46.3171)
(-32.3635 153.389 198.582)
(20.3952 -55.1564 -35.7771)
(-42.083 27.6405 142.708)
(-43.3904 -70.357 -22.5573)
(-39.2314 7.31084 111.117)
(-44.4919 170.239 176.516)
(52.6085 74.6339 -9.43539)
(-49.413 325.32 269.363)
(41.5101 76.5696 -39.9915)
(-69.9825 267.727 271.104)
(-1.4459 -28.6494 -34.337)
(-93.4064 101.1 177.604)
(-44.1981 -51.9786 -30.0477)
(-81.733 29.5783 104.124)
(-77.4292 -62.9437 -29.3499)
(69.7164 40.1906 8.11254)
(-106.846 385.575 364.474)
(54.913 53.4891 -19.0961)
(-134.137 460.629 435.774)
(29.5571 5.21327 -5.59179)
(-153.071 290.304 356.235)
(-24.6592 -55.45 0.677559)
(-109.37 151.76 235.548)
(-4.87143 -65.4962 -9.84265)
(-31.9396 -7.62714 74.3997)
(-194.021 475.508 454.327)
(97.9474 0.135727 -47.1661)
(-198.719 567.841 512.158)
(84.7843 -3.58394 -42.6257)
(-220.074 457.333 421.415)
(-6.323 2.6426 3.49021)
(-110.088 307.662 105.527)
(-134.274 -79.6726 -93.8621)
(-28.9625 -86.7901 -3.61612)
(-8.43665 -40.9755 -5.03354)
(50.3385 34.8248 -88.9289)
(-412.594 743.926 672.607)
(143.654 -2.81132 -99.8028)
(-320.392 928.914 831.812)
(224.99 52.9414 -85.4085)
(-294.809 1034.06 888.453)
(171.863 151.537 32.8917)
(300.635 703.638 5.17581)
(-254.197 -313.078 -834.755)
(-118.681 -192.724 -65.1021)
)
;
    }
}


// ************************************************************************* //
