/*--------------------------------*- C++ -*----------------------------------*\
| =========                 |                                                 |
| \\      /  F ield         | OpenFOAM: The Open Source CFD Toolbox           |
|  \\    /   O peration     | Version:  2.4.0                                 |
|   \\  /    A nd           | Web:      www.OpenFOAM.org                      |
|    \\/     M anipulation  |                                                 |
\*---------------------------------------------------------------------------*/
FoamFile
{
    version     2.0;
    format      ascii;
    class       volVectorField;
    location    "0.03";
    object      Ua;
}
// * * * * * * * * * * * * * * * * * * * * * * * * * * * * * * * * * * * * * //

dimensions      [0 1 -1 0 0 0 0];

internalField   nonuniform List<vector> 
200
(
(3.09895 19.3148 -8.97419)
(3.09896 19.3148 -8.9742)
(3.09896 19.3148 -8.97421)
(3.10836 19.2959 -8.96361)
(3.73748 14.8523 -3.25489)
(4.36598 10.4462 2.37719)
(4.41434 10.3444 2.36272)
(8.1668 2.54453 1.04745)
(8.20828 2.44488 1.03388)
(8.21624 2.41121 1.03233)
(3.08913 19.2475 -8.9277)
(3.09896 19.3149 -8.97423)
(3.09897 19.3149 -8.97424)
(3.10187 19.3077 -8.96888)
(3.73394 14.8554 -3.25454)
(4.37339 10.4296 2.37412)
(4.4286 10.3109 2.35803)
(8.04832 2.58139 1.1042)
(-5.64392 3.11207 7.93126)
(-6.62554 3.15471 8.42037)
(1.02091 4.86406 1.50076)
(2.96106 18.3517 -8.26671)
(3.09891 19.3145 -8.97392)
(3.10052 19.3097 -8.96937)
(3.7411 14.8095 -3.24817)
(4.38048 10.4127 2.37113)
(4.44198 10.2771 2.35378)
(7.90726 2.61844 1.17224)
(-6.61289 3.15906 8.41372)
(-7.23951 3.18558 8.72599)
(1.14067 5.41357 1.73949)
(1.15951 5.50415 1.76471)
(1.87943 10.6048 -2.15386)
(3.13828 12.8514 -5.50216)
(8.10184 -10.9998 -1.02447)
(4.88994 7.55959 1.93042)
(4.45491 10.2401 2.34955)
(7.7451 2.65545 1.25086)
(-6.96644 3.17644 8.58973)
(-7.45558 3.19652 8.83355)
(3.09895 19.3148 -8.97421)
(3.09895 19.3149 -8.97422)
(3.09896 19.3149 -8.97423)
(3.09916 19.3134 -8.97231)
(3.72519 14.8776 -3.26173)
(4.35789 10.4628 2.38058)
(4.39843 10.3775 2.3683)
(8.1827 2.51146 1.04188)
(8.21143 2.42821 1.03351)
(8.20994 2.40052 1.03626)
(3.09896 19.3149 -8.97424)
(3.09897 19.3149 -8.97425)
(3.09897 19.3149 -8.97425)
(3.09923 19.313 -8.9718)
(3.72808 14.8685 -3.25843)
(4.36496 10.4457 2.37777)
(4.41197 10.3432 2.36402)
(7.98688 2.55204 1.13713)
(-6.9201 3.17084 8.5669)
(-7.40215 3.19258 8.80703)
(3.09053 19.256 -8.93096)
(3.09897 19.3149 -8.97425)
(3.09897 19.3149 -8.97426)
(3.09934 19.3123 -8.97113)
(3.74687 14.7425 -3.24375)
(4.37149 10.4283 2.37515)
(4.42404 10.3084 2.3605)
(7.74756 2.59337 1.25413)
(-7.39659 3.1944 8.80411)
(-7.69278 3.20739 8.95169)
(1.16766 5.56215 1.7194)
(2.98047 18.4594 -8.30653)
(3.10081 19.3033 -8.97104)
(4.68946 9.68604 -6.46754)
(8.02005 -11.078 -0.99037)
(5.54898 3.67869 1.32986)
(4.43576 10.2653 2.35669)
(7.46929 2.63497 1.39063)
(-7.56201 3.20269 8.88645)
(-7.79207 3.21248 9.0011)
(3.1005 19.1157 -8.8295)
(3.10033 19.1376 -8.8454)
(3.10017 19.1596 -8.86135)
(3.10061 19.1357 -8.84294)
(3.75264 14.6276 -3.13776)
(4.4076 10.1894 2.35987)
(4.46989 9.91283 2.33414)
(5.82344 3.59672 1.7262)
(-7.51603 3.24395 8.84724)
(-7.75311 3.23792 8.9738)
(3.09954 19.2406 -8.92024)
(3.09949 19.248 -8.92562)
(3.09943 19.2554 -8.93099)
(3.0938 19.2364 -8.91257)
(-3.62633 7.46703 4.51249)
(-6.42907 4.16141 8.24551)
(-7.4568 3.56746 8.80504)
(-8.05932 3.22637 9.13292)
(-8.08301 3.22665 9.14596)
(-8.08302 3.22665 9.14596)
(3.0956 19.2362 -8.91918)
(3.10069 19.268 -8.94457)
(3.10261 19.2579 -8.94346)
(5.10377 4.69919 -4.90345)
(6.78646 -9.44479 -0.789956)
(-6.28717 2.85722 8.05737)
(-7.76355 3.40072 8.97187)
(-8.07187 3.22631 9.13976)
(-8.08302 3.22665 9.14596)
(-8.08303 3.22665 9.14596)
(1.71101 4.45386 1.49426)
(7.9484 -9.64538 -1.47207)
(8.06048 -10.7216 -1.16103)
(8.03488 -11.1686 -0.982515)
(7.86902 -10.9384 -0.962093)
(8.0294 -11.1638 -0.978867)
(-0.904736 -3.03788 4.67373)
(-8.07212 3.22328 9.13968)
(-8.08302 3.22665 9.14596)
(-8.08303 3.22665 9.14597)
(3.10231 18.8787 -8.65724)
(3.10202 18.9213 -8.68821)
(3.10168 18.9641 -8.71928)
(3.08085 18.8894 -8.67416)
(-6.25182 5.25834 -2.60699)
(-7.55692 3.53928 -1.79731)
(-7.40096 3.54231 -1.75375)
(5.00696 3.81827 1.75532)
(-7.53729 3.25377 8.84882)
(-7.77034 3.24334 8.97864)
(3.10172 19.1402 -8.85271)
(3.10263 19.1469 -8.86102)
(3.10572 19.133 -8.86334)
(5.14131 0.261149 -3.30541)
(5.66203 -7.88427 -0.67689)
(-5.93099 2.18589 6.29778)
(-7.83526 3.35477 8.39452)
(-8.06263 3.22678 9.13416)
(-8.08301 3.22665 9.14596)
(-8.08302 3.22665 9.14596)
(7.1101 -8.62971 -1.32791)
(7.2187 -9.37608 -1.12128)
(7.09224 -9.63488 -0.948271)
(6.8722 -9.55258 -0.840285)
(6.54034 -9.09147 -0.799645)
(6.86896 -9.54988 -0.83813)
(0.423229 -4.0287 3.47986)
(-8.06901 3.22191 9.13741)
(-8.08302 3.22665 9.14596)
(-8.08302 3.22665 9.14596)
(8.1872 -11.3887 -0.999878)
(8.16407 -11.3485 -0.998173)
(8.0349 -11.169 -0.982377)
(7.86883 -10.9381 -0.962071)
(7.64752 -10.6305 -0.935012)
(7.86883 -10.9381 -0.962071)
(8.03458 -11.1687 -0.982177)
(7.0548 -10.3531 -0.305557)
(-7.99423 3.14672 9.09081)
(-8.06138 3.2071 9.13257)
(3.10162 18.6036 -8.43925)
(3.10395 18.6688 -8.48738)
(3.10347 18.7311 -8.53422)
(3.0271 18.5614 -8.44531)
(-8.14056 3.50574 -2.50779)
(-8.80419 2.86067 -2.2194)
(-8.7021 2.86865 -2.19049)
(4.26534 3.8961 1.66279)
(-7.50883 3.26062 8.79909)
(-7.75756 3.24705 8.9421)
(-3.63668 18.0659 -4.46893)
(3.10799 18.9994 -8.75631)
(3.12306 18.9154 -8.74519)
(5.955 -5.15295 -1.84771)
(6.0607 -8.4414 -0.729792)
(-5.2305 1.00092 4.83491)
(-8.00651 3.25972 7.89873)
(-8.06251 3.22703 9.11095)
(-8.083 3.22665 9.12587)
(-8.08301 3.22665 9.12333)
(-13.6536 16.5746 1.9232)
(6.76191 -9.26327 -0.891907)
(7.32405 -10.1057 -0.918431)
(7.13107 -9.91251 -0.868208)
(6.87308 -9.55398 -0.837099)
(7.12897 -9.91072 -0.866919)
(2.91845 -6.32209 1.88587)
(-8.06166 3.21519 9.10741)
(-8.08301 3.22664 9.12337)
(-8.08302 3.22665 9.12082)
(-13.5961 16.4995 1.91761)
(7.92399 -11.0524 -0.960288)
(8.1643 -11.3488 -0.994042)
(8.0352 -11.1694 -0.978717)
(7.8693 -10.9388 -0.958894)
(8.0352 -11.1694 -0.978717)
(8.16413 -11.3487 -0.993922)
(7.69008 -10.9724 -0.64858)
(-7.86638 3.03108 8.98725)
(-8.03096 3.17954 9.08632)
)
;

boundaryField
{
    inlet
    {
        type            calculated;
        value           nonuniform 0();
    }
    outlet
    {
        type            calculated;
        value           uniform (0 0 0);
    }
    bottom
    {
        type            calculated;
        value           uniform (0 0 0);
    }
    top
    {
        type            symmetryPlane;
    }
    side1
    {
        type            symmetryPlane;
    }
    side2
    {
        type            symmetryPlane;
    }
    procBoundary23to15
    {
        type            processor;
        value           nonuniform List<vector> 
50
(
(2.8853 16.7489 -7.76656)
(2.9135 16.3985 -7.60338)
(3.0513 15.7872 -7.31591)
(12.9668 0.845761 -0.136086)
(11.1419 0.651128 0.0784605)
(3.95092 8.78431 2.01683)
(3.75008 8.76173 2.01781)
(6.87674 2.6297 1.09917)
(7.03762 2.58459 1.10395)
(7.1464 2.58338 1.1137)
(2.70911 16.8208 -7.79935)
(2.65313 16.479 -7.64232)
(2.57854 16.0212 -7.4314)
(2.65773 16.4708 -7.63703)
(3.23485 12.9123 -2.81071)
(3.69239 8.87375 2.0343)
(3.65244 8.52977 1.96708)
(6.67372 2.87218 1.22153)
(6.84013 2.85732 1.234)
(6.95309 2.86786 1.24762)
(3.22671 2.7814 3.04015)
(3.22668 2.77476 3.04519)
(3.22673 2.76797 3.05012)
(3.22719 2.77518 3.04496)
(4.8762 3.93533 2.50405)
(6.33298 4.85078 2.13336)
(6.35057 4.84909 2.13758)
(6.36405 4.84782 2.14099)
(6.35074 4.8463 2.14744)
(6.33342 4.84433 2.15583)
(3.22545 2.7578 3.05734)
(3.22743 2.75497 3.06059)
(3.22724 2.75157 3.06297)
(2.44885 2.73734 2.72258)
(-9.48261 2.46913 -2.45963)
(-9.50371 2.47211 -2.47273)
(-9.42625 2.4837 -2.45021)
(5.24169 4.6799 1.81467)
(5.68851 4.74737 1.95589)
(5.83119 4.76946 2.01197)
(3.0763 2.72523 2.99248)
(3.22606 2.74854 3.05215)
(3.22699 2.74608 3.05949)
(1.61526 2.71274 2.36083)
(-9.53829 2.46348 -2.46868)
(-9.54937 2.46525 -2.4768)
(-9.50385 2.47207 -2.46463)
(4.01002 4.49551 1.45383)
(4.93366 4.63442 1.73316)
(5.25906 4.68393 1.84251)
)
;
    }
    procBoundary23to22
    {
        type            processor;
        value           nonuniform List<vector> 
20
(
(3.09741 19.3072 -8.96943)
(1.00349 5.04692 0.684915)
(0.975677 4.63066 1.48784)
(1.11709 5.30181 1.70351)
(3.09895 19.3148 -8.9742)
(3.09841 19.311 -8.97162)
(1.1521 5.77663 0.838927)
(1.14063 5.41354 1.73939)
(3.10067 19.0948 -8.81441)
(3.09931 19.2319 -8.91413)
(1.32078 6.92807 0.196399)
(1.15839 5.51643 1.78627)
(2.87594 18.4088 -8.42235)
(2.51933 18.9344 -8.45274)
(-13.3581 16.2606 1.89177)
(-13.0752 15.9074 1.87419)
(-0.148568 17.1542 -6.2429)
(-13.7159 16.659 1.92989)
(-13.7202 16.6585 1.9342)
(-13.7201 16.6584 1.93578)
)
;
    }
    procBoundary23to31
    {
        type            processor;
        value           nonuniform List<vector> 
50
(
(1.30565 6.19671 1.99105)
(1.30565 6.1967 1.99104)
(1.30629 6.19541 1.99062)
(3.71811 0.395236 1.03802)
(9.19239 -12.7726 -1.12246)
(9.19565 -12.7781 -1.12342)
(8.35994 -8.71532 -0.510093)
(7.67007 1.68539 1.17886)
(-7.13069 3.16722 8.66967)
(-7.56093 3.19771 8.88568)
(1.30565 6.19669 1.99104)
(1.32258 6.16328 1.98005)
(8.33293 -9.66079 -1.3979)
(9.19721 -12.7833 -1.12493)
(9.19766 -12.7853 -1.12454)
(9.19738 -12.784 -1.12434)
(8.88104 -11.2523 -0.892764)
(7.47646 0.255597 1.12637)
(-7.62096 3.18325 8.91336)
(-7.83614 3.20936 9.02252)
(1.83488 4.92376 1.78211)
(9.18138 -12.7461 -1.11814)
(9.19764 -12.7853 -1.12454)
(9.19766 -12.7853 -1.12454)
(9.19767 -12.7853 -1.12454)
(9.19766 -12.7853 -1.12454)
(9.19691 -12.7846 -1.1241)
(6.81323 -10.5752 0.292636)
(-8.03994 3.18672 9.12036)
(-8.07261 3.21698 9.13978)
(9.19701 -12.7838 -1.12429)
(9.19765 -12.7853 -1.12454)
(9.19766 -12.7853 -1.12454)
(9.19767 -12.7853 -1.12454)
(9.19768 -12.7853 -1.12454)
(9.19767 -12.7853 -1.12454)
(9.19766 -12.7853 -1.12454)
(9.1976 -12.7852 -1.12451)
(9.09265 -12.688 -1.06214)
(8.67793 -12.3037 -0.815658)
(8.69367 -12.1355 -1.05252)
(9.19759 -12.7852 -1.11991)
(9.19765 -12.7853 -1.12037)
(9.19766 -12.7853 -1.12084)
(9.19767 -12.7853 -1.1213)
(9.19766 -12.7853 -1.12084)
(9.19765 -12.7853 -1.12037)
(9.19761 -12.7852 -1.1199)
(9.145 -12.7365 -1.08827)
(8.93363 -12.5406 -0.96263)
)
;
    }
}


// ************************************************************************* //
