/*--------------------------------*- C++ -*----------------------------------*\
| =========                 |                                                 |
| \\      /  F ield         | OpenFOAM: The Open Source CFD Toolbox           |
|  \\    /   O peration     | Version:  2.4.0                                 |
|   \\  /    A nd           | Web:      www.OpenFOAM.org                      |
|    \\/     M anipulation  |                                                 |
\*---------------------------------------------------------------------------*/
FoamFile
{
    version     2.0;
    format      ascii;
    class       volVectorField;
    location    "0.03";
    object      Uc;
}
// * * * * * * * * * * * * * * * * * * * * * * * * * * * * * * * * * * * * * //

dimensions      [0 1 -1 0 0 0 0];

internalField   nonuniform List<vector> 
200
(
(5.88039e-09 3.66506e-08 -1.70289e-08)
(3.48475e-07 2.17193e-06 -1.00914e-06)
(1.18035e-05 7.35671e-05 -3.41813e-05)
(3.49923e-07 2.17223e-06 -1.00908e-06)
(1.429e-08 5.67868e-08 -1.24449e-08)
(4.9934e-07 1.19475e-06 2.71881e-07)
(1.73099e-05 4.05635e-05 9.2649e-06)
(3.20247e-05 9.97793e-06 4.10739e-06)
(9.38986e-07 2.79682e-07 1.1827e-07)
(1.60024e-08 4.69623e-09 2.01062e-09)
(5.59e-11 3.48298e-10 -1.61553e-10)
(2.94085e-09 1.83294e-08 -8.51634e-09)
(8.71714e-08 5.43312e-07 -2.52438e-07)
(2.94515e-09 1.83322e-08 -8.51572e-09)
(1.3552e-10 5.39162e-10 -1.1812e-10)
(4.23035e-09 1.00884e-08 2.29647e-09)
(1.28791e-07 2.99857e-07 6.85753e-08)
(2.35523e-07 7.55408e-08 3.23127e-08)
(-3.64497e-08 2.00984e-08 5.12219e-08)
(-1.37336e-09 6.53915e-10 1.74539e-09)
(2.36864e-11 1.12852e-10 3.48193e-11)
(1.42974e-11 8.86111e-11 -3.99157e-11)
(3.67899e-10 2.29299e-09 -1.06537e-09)
(1.39742e-11 8.70295e-11 -4.04253e-11)
(7.17681e-13 2.841e-12 -6.23118e-13)
(2.01593e-11 4.79201e-11 1.09121e-11)
(5.47506e-10 1.26673e-09 2.9012e-10)
(9.88244e-10 3.27251e-10 1.46506e-10)
(-3.36899e-10 1.60941e-10 4.28643e-10)
(-1.37091e-11 6.03238e-12 1.6524e-11)
(5.55073e-09 2.63435e-08 8.46471e-09)
(7.14463e-11 3.39152e-10 1.08737e-10)
(1.92775e-12 1.08775e-11 -2.20923e-12)
(7.62513e-14 3.12253e-13 -1.33687e-13)
(4.7051e-13 -6.38808e-13 -5.94956e-14)
(9.11208e-14 1.40868e-13 3.59721e-14)
(1.74585e-12 4.01301e-12 9.20774e-13)
(3.10501e-12 1.06457e-12 5.01471e-13)
(-1.6458e-12 7.50425e-13 2.0293e-12)
(-7.35915e-14 3.15518e-14 8.7193e-14)
(1.78088e-06 1.10997e-05 -5.15723e-06)
(0.000120633 0.000751871 -0.00034934)
(0.00476753 0.0297146 -0.0138062)
(0.000120662 0.000751939 -0.000349324)
(4.30561e-06 1.71956e-05 -3.76993e-06)
(0.000172173 0.000413366 9.40524e-05)
(0.0069379 0.0163691 0.00373566)
(0.0129073 0.00396154 0.00164344)
(0.000324605 9.59892e-05 4.08554e-05)
(4.83275e-06 1.41305e-06 6.0999e-07)
(1.50253e-08 9.36484e-08 -4.35117e-08)
(8.906e-07 5.55084e-06 -2.57908e-06)
(3.01725e-05 0.000188056 -8.73761e-05)
(8.90869e-07 5.55149e-06 -2.57893e-06)
(3.63809e-08 1.45097e-07 -3.17978e-08)
(1.27597e-06 3.0535e-06 6.95069e-07)
(4.42327e-05 0.000103697 2.37007e-05)
(8.09556e-05 2.58676e-05 1.15261e-05)
(-2.83421e-05 1.29865e-05 3.50867e-05)
(-8.81818e-07 3.80333e-07 1.04918e-06)
(7.14084e-11 4.4492e-10 -2.06355e-10)
(3.75729e-09 2.3418e-08 -1.08807e-08)
(1.11395e-07 6.94291e-07 -3.22587e-07)
(3.75877e-09 2.34214e-08 -1.08799e-08)
(1.74484e-10 6.86526e-10 -1.51055e-10)
(5.40328e-09 1.28897e-08 2.93575e-09)
(1.64469e-07 3.83226e-07 8.77545e-08)
(2.95227e-07 9.88226e-08 4.77897e-08)
(-2.16858e-07 9.36553e-08 2.58124e-07)
(-7.60708e-09 3.17166e-09 8.85196e-09)
(2.11274e-11 1.00641e-10 3.11105e-11)
(1.21908e-11 7.55033e-11 -3.39757e-11)
(3.13665e-10 1.95264e-09 -9.07473e-10)
(2.62321e-11 5.41821e-11 -3.61783e-11)
(3.7254e-10 -5.14584e-10 -4.60038e-11)
(3.14968e-11 2.08808e-11 7.54849e-12)
(4.66129e-10 1.07872e-09 2.4765e-10)
(8.17511e-10 2.88396e-10 1.52203e-10)
(-9.25696e-10 3.92055e-10 1.08783e-09)
(-3.64197e-11 1.5015e-11 4.20707e-11)
(5.94378e-09 3.66456e-08 -1.69265e-08)
(3.51815e-07 2.17167e-06 -1.00375e-06)
(1.19024e-05 7.35592e-05 -3.40213e-05)
(3.51924e-07 2.17193e-06 -1.00369e-06)
(1.46254e-08 5.70093e-08 -1.2229e-08)
(5.24931e-07 1.21352e-06 2.81053e-07)
(1.88091e-05 4.17128e-05 9.82198e-06)
(8.11747e-05 5.01358e-05 2.40621e-05)
(-7.61969e-05 3.28869e-05 8.96926e-05)
(-2.31885e-06 9.68418e-07 2.68394e-06)
(5.59725e-11 3.47452e-10 -1.61084e-10)
(2.94779e-09 1.83059e-08 -8.48876e-09)
(8.73542e-08 5.42694e-07 -2.51711e-07)
(2.94483e-09 1.83102e-08 -8.48342e-09)
(-3.56611e-10 7.34301e-10 4.43755e-10)
(-4.79135e-08 3.10135e-08 6.14507e-08)
(-4.51074e-06 2.15801e-06 5.32631e-06)
(-0.00031425 0.000125803 0.000356112)
(-0.0124352 0.004964 0.0140705)
(-0.000319294 0.000127458 0.000361282)
(2.9491e-13 1.83259e-12 -8.4971e-13)
(1.39758e-11 8.68471e-11 -4.0316e-11)
(3.68683e-10 2.28842e-09 -1.06275e-09)
(4.59804e-11 4.23354e-11 -4.41756e-11)
(8.09862e-10 -1.12709e-09 -9.42694e-11)
(-4.43385e-10 2.01498e-10 5.68224e-10)
(-3.86271e-08 1.69201e-08 4.4639e-08)
(-2.32156e-06 9.27922e-07 2.6287e-06)
(-7.86994e-05 3.14159e-05 8.90486e-05)
(-2.36214e-06 9.42939e-07 2.67277e-06)
(6.91563e-14 1.80018e-13 6.03954e-14)
(2.13942e-12 -2.59619e-12 -3.96229e-13)
(1.47934e-10 -1.96774e-10 -2.13085e-11)
(7.61095e-09 -1.05793e-08 -9.30677e-10)
(2.20985e-07 -3.07182e-07 -2.70184e-08)
(7.60836e-09 -1.05784e-08 -9.27538e-10)
(-3.74464e-11 -1.25736e-10 1.93442e-10)
(-9.79404e-09 3.91087e-09 1.10893e-08)
(-2.90554e-07 1.15986e-07 3.28762e-07)
(-9.98611e-09 3.98634e-09 1.12993e-08)
(1.11876e-11 6.80809e-11 -3.122e-11)
(5.87858e-10 3.58575e-09 -1.64649e-09)
(1.73807e-08 1.06268e-07 -4.88597e-08)
(5.85039e-10 3.587e-09 -1.64718e-09)
(-1.91772e-10 1.61297e-10 -7.99682e-11)
(-1.07252e-08 5.02313e-09 -2.55083e-09)
(-3.15143e-07 1.50836e-07 -7.46772e-08)
(1.79815e-07 1.37125e-07 6.30388e-08)
(-2.20405e-07 9.51465e-08 2.58756e-07)
(-7.67217e-09 3.20236e-09 8.86521e-09)
(1.1605e-13 7.16124e-13 -3.31221e-13)
(5.50168e-12 3.39519e-11 -1.57127e-11)
(1.45173e-10 8.94349e-10 -4.14306e-10)
(2.88558e-11 1.46571e-12 -1.85517e-11)
(5.74843e-10 -8.00458e-10 -6.8722e-11)
(-1.98859e-10 7.32902e-11 2.11157e-10)
(-1.60448e-08 6.86979e-09 1.719e-08)
(-9.06519e-07 3.62802e-07 1.027e-06)
(-3.07427e-05 1.22722e-05 3.47855e-05)
(-9.22743e-07 3.68349e-07 1.04409e-06)
(2.84322e-14 -3.45089e-14 -5.31011e-15)
(2.40264e-12 -3.1207e-12 -3.73202e-13)
(1.64764e-10 -2.23834e-10 -2.20299e-11)
(8.33214e-09 -1.15819e-08 -1.0188e-09)
(2.35098e-07 -3.268e-07 -2.87439e-08)
(8.33002e-09 -1.15812e-08 -1.0164e-09)
(1.75526e-11 -1.67083e-10 1.44321e-10)
(-7.65072e-09 3.05489e-09 8.66373e-09)
(-2.26997e-07 9.06144e-08 2.56847e-07)
(-7.80172e-09 3.11435e-09 8.82766e-09)
(5.31678e-12 -7.39586e-12 -6.49322e-13)
(5.00897e-10 -6.96274e-10 -6.12417e-11)
(3.89574e-08 -5.4153e-08 -4.76308e-09)
(2.2614e-06 -3.14348e-06 -2.76487e-07)
(7.44586e-05 -0.000103502 -9.10357e-06)
(2.2614e-06 -3.14348e-06 -2.76487e-07)
(3.89566e-08 -5.41527e-08 -4.7622e-09)
(4.64568e-10 -6.81764e-10 -2.01213e-11)
(-9.52464e-10 3.74912e-10 1.08311e-09)
(-3.70548e-11 1.47417e-11 4.19786e-11)
(1.56446e-14 9.38366e-14 -4.25675e-14)
(7.39345e-13 4.44681e-12 -2.02165e-12)
(1.9406e-11 1.17126e-10 -5.33645e-11)
(7.25876e-13 4.45087e-12 -2.02512e-12)
(-8.67266e-13 3.73489e-13 -2.67171e-13)
(-4.20534e-11 1.36641e-11 -1.0601e-11)
(-1.10319e-09 3.63668e-10 -2.77696e-10)
(2.5111e-10 2.29372e-10 9.78922e-11)
(-3.63676e-10 1.57922e-10 4.26167e-10)
(-1.42724e-11 5.97393e-12 1.64517e-11)
(-3.45935e-16 1.7185e-15 -4.25102e-16)
(7.63653e-15 4.66828e-14 -2.15148e-14)
(1.8246e-13 1.1051e-12 -5.10924e-13)
(1.09009e-13 -9.43272e-14 -3.38232e-14)
(2.28391e-12 -3.18105e-12 -2.75014e-13)
(-4.38399e-13 8.38931e-14 4.05242e-13)
(-3.17168e-11 1.2913e-11 3.12898e-11)
(-1.4959e-09 5.98734e-10 1.69042e-09)
(-4.43857e-08 1.77183e-08 5.01123e-08)
(-1.52573e-09 6.09055e-10 1.7221e-09)
(-8.26403e-14 1.0032e-13 1.16404e-14)
(1.03781e-14 -1.42171e-14 -1.36889e-15)
(6.9813e-13 -9.63281e-13 -8.7545e-14)
(3.21255e-11 -4.46559e-11 -3.91129e-12)
(8.1594e-10 -1.1342e-09 -9.93764e-11)
(3.21204e-11 -4.46539e-11 -3.90601e-12)
(3.89458e-13 -8.43662e-13 2.51664e-13)
(-1.41982e-11 5.6626e-12 1.604e-11)
(-3.74613e-10 1.49541e-10 4.22829e-10)
(-1.45145e-11 5.79401e-12 1.6378e-11)
(-7.10904e-12 8.62717e-12 1.00267e-12)
(2.03926e-12 -2.84437e-12 -2.47133e-13)
(1.47076e-10 -2.04443e-10 -1.79071e-11)
(7.62524e-09 -1.05995e-08 -9.28783e-10)
(2.21357e-07 -3.07699e-07 -2.69729e-08)
(7.62524e-09 -1.05995e-08 -9.28782e-10)
(1.47075e-10 -2.04444e-10 -1.79053e-11)
(2.01951e-12 -2.88148e-12 -1.70325e-13)
(-1.75402e-12 6.7586e-13 2.00395e-12)
(-7.64602e-14 3.02713e-14 8.6508e-14)
)
;

boundaryField
{
    inlet
    {
        type            calculated;
        value           nonuniform 0();
    }
    outlet
    {
        type            calculated;
        value           uniform (0 0 0);
    }
    bottom
    {
        type            calculated;
        value           uniform (0 0 0);
    }
    top
    {
        type            symmetryPlane;
    }
    side1
    {
        type            symmetryPlane;
    }
    side2
    {
        type            symmetryPlane;
    }
    procBoundary23to15
    {
        type            processor;
        value           nonuniform List<vector> 
50
(
(5.32676e-11 3.09214e-10 -1.43384e-10)
(2.84855e-09 1.6033e-08 -7.43388e-09)
(8.99963e-08 4.65634e-07 -2.15778e-07)
(4.80118e-07 3.13159e-08 -5.03883e-09)
(1.62276e-08 9.48337e-10 1.14274e-10)
(3.97495e-09 8.83773e-09 2.0291e-09)
(1.10187e-07 2.57443e-07 5.92888e-08)
(2.37756e-07 9.09188e-08 3.80028e-08)
(8.11389e-09 2.97986e-09 1.27278e-09)
(1.58057e-10 5.71366e-11 2.46317e-11)
(1.31838e-08 8.18577e-08 -3.79553e-08)
(7.64988e-07 4.75146e-06 -2.20354e-06)
(2.51779e-05 0.000156438 -7.25632e-05)
(7.66797e-07 4.75208e-06 -2.2034e-06)
(3.17955e-08 1.26915e-07 -2.76266e-08)
(1.09075e-06 2.62135e-06 6.00944e-07)
(3.71524e-05 8.67644e-05 2.0009e-05)
(9.2286e-05 3.97173e-05 1.68916e-05)
(2.7685e-06 1.15648e-06 4.99454e-07)
(4.79674e-08 1.97846e-08 8.60696e-09)
(1.57035e-08 1.35363e-08 1.47956e-08)
(9.3036e-07 8.00057e-07 8.7803e-07)
(3.15071e-05 2.70276e-05 2.97826e-05)
(9.3072e-07 8.00359e-07 8.78165e-07)
(5.59205e-08 4.51306e-08 2.87166e-08)
(3.65195e-06 2.79723e-06 1.23022e-06)
(0.000247573 0.000189038 8.33321e-05)
(0.00979085 0.00745819 0.00329384)
(0.000247451 0.000188832 8.36731e-05)
(3.68853e-06 2.8213e-06 1.25554e-06)
(5.81209e-11 4.9694e-11 5.50916e-11)
(3.06277e-09 2.61442e-09 2.90444e-09)
(9.07816e-08 7.7401e-08 8.61607e-08)
(2.47481e-09 2.76635e-09 2.75144e-09)
(-4.63786e-08 1.20763e-08 -1.20298e-08)
(-2.74926e-06 7.15137e-07 -7.15317e-07)
(-9.28356e-05 2.4461e-05 -2.41312e-05)
(2.14432e-05 1.91449e-05 7.4236e-06)
(6.66903e-07 5.56567e-07 2.29303e-07)
(1.15732e-08 9.46598e-09 3.99316e-09)
(1.15975e-13 1.0274e-13 1.12815e-13)
(5.68292e-12 4.84174e-12 5.37656e-12)
(1.4975e-10 1.27433e-10 1.41977e-10)
(3.25548e-12 5.46741e-12 4.75814e-12)
(-1.72661e-10 4.45937e-11 -4.46879e-11)
(-9.09574e-09 2.34814e-09 -2.35914e-09)
(-2.69097e-07 6.99953e-08 -6.97846e-08)
(2.58279e-08 2.89548e-08 9.36387e-09)
(1.00402e-09 9.43127e-10 3.52707e-10)
(2.01533e-11 1.79494e-11 7.06073e-12)
)
;
    }
    procBoundary23to22
    {
        type            processor;
        value           nonuniform List<vector> 
20
(
(7.44249e-11 4.63915e-10 -2.15519e-10)
(4.11977e-12 2.07199e-11 2.81189e-12)
(1.18732e-09 5.63513e-09 1.81058e-09)
(3.22092e-07 1.52868e-06 4.91175e-07)
(2.0032e-08 1.24853e-07 -5.80104e-08)
(1.90145e-10 1.18509e-09 -5.50576e-10)
(5.56286e-12 2.78921e-11 4.05071e-12)
(1.08242e-09 5.13728e-09 1.65062e-09)
(7.53128e-11 4.63797e-10 -2.14095e-10)
(7.87327e-13 4.88553e-12 -2.26448e-12)
(1.42675e-14 7.48397e-14 2.12158e-15)
(2.04244e-12 9.72643e-12 3.14951e-12)
(1.49817e-13 9.58974e-13 -4.38748e-13)
(1.51479e-15 1.13846e-14 -5.08234e-15)
(-4.00087e-14 4.87021e-14 5.66602e-15)
(-3.42255e-12 4.16389e-12 4.90586e-13)
(-1.49252e-17 1.72332e-15 -6.27164e-16)
(-5.17412e-14 6.28435e-14 7.2802e-15)
(-8.91712e-12 1.08268e-11 1.25709e-12)
(-8.45214e-10 1.02623e-09 1.19252e-10)
)
;
    }
    procBoundary23to31
    {
        type            processor;
        value           nonuniform List<vector> 
50
(
(7.52791e-07 3.57281e-06 1.14797e-06)
(8.47114e-09 4.02047e-08 1.29181e-08)
(8.048e-11 3.81697e-10 1.22641e-10)
(2.78449e-12 2.95992e-13 7.77376e-13)
(5.54942e-11 -7.7108e-11 -6.77627e-12)
(2.10575e-12 -2.92611e-12 -2.57257e-13)
(4.90396e-14 -5.11243e-14 -2.99222e-15)
(8.80341e-15 1.93443e-15 1.35305e-15)
(-5.86105e-15 2.60329e-15 7.12601e-15)
(-2.87092e-16 1.21418e-16 3.37393e-16)
(2.47751e-09 1.17584e-08 3.77807e-09)
(3.18427e-11 1.48388e-10 4.7672e-11)
(3.33713e-11 -3.8689e-11 -5.59823e-12)
(1.70172e-09 -2.36523e-09 -2.0814e-10)
(5.04505e-08 -7.01292e-08 -6.16825e-09)
(1.70173e-09 -2.36533e-09 -2.08029e-10)
(3.34097e-11 -4.23302e-11 -3.3585e-12)
(2.35734e-12 8.05902e-14 3.55147e-13)
(-2.9412e-12 1.22853e-12 3.43998e-12)
(-1.28678e-13 5.27011e-14 1.48159e-13)
(6.91561e-12 1.85575e-11 6.71671e-12)
(2.20508e-10 -3.06123e-10 -2.68542e-11)
(1.74206e-08 -2.42157e-08 -2.12991e-09)
(1.03257e-06 -1.43533e-06 -1.26245e-07)
(3.49819e-05 -4.8627e-05 -4.27701e-06)
(1.03257e-06 -1.43533e-06 -1.26245e-07)
(1.742e-08 -2.42154e-08 -2.12916e-09)
(1.89444e-10 -2.94048e-10 8.13684e-12)
(-8.15013e-10 3.23039e-10 9.24536e-10)
(-3.16417e-11 1.26094e-11 3.58246e-11)
(5.64292e-10 -7.84362e-10 -6.89819e-11)
(5.94548e-08 -8.26458e-08 -7.26916e-09)
(5.28564e-06 -7.34736e-06 -6.46241e-07)
(0.000358038 -0.000497695 -4.3775e-05)
(0.01415 -0.0196693 -0.00173003)
(0.000358038 -0.000497695 -4.3775e-05)
(5.28564e-06 -7.34736e-06 -6.46241e-07)
(5.94547e-08 -8.26458e-08 -7.26901e-09)
(5.61255e-10 -7.83182e-10 -6.55617e-11)
(4.66672e-12 -6.61655e-12 -4.38635e-13)
(2.25478e-12 -3.14747e-12 -2.72981e-13)
(2.20897e-10 -3.07061e-10 -2.68966e-11)
(1.74529e-08 -2.42606e-08 -2.12596e-09)
(1.03427e-06 -1.43769e-06 -1.26037e-07)
(3.50324e-05 -4.86971e-05 -4.27084e-06)
(1.03427e-06 -1.43769e-06 -1.26037e-07)
(1.74529e-08 -2.42606e-08 -2.12596e-09)
(2.20898e-10 -3.07061e-10 -2.68964e-11)
(2.32369e-12 -3.23627e-12 -2.76523e-13)
(2.15118e-14 -3.01974e-14 -2.31798e-15)
)
;
    }
}


// ************************************************************************* //
