/*--------------------------------*- C++ -*----------------------------------*\
| =========                 |                                                 |
| \\      /  F ield         | OpenFOAM: The Open Source CFD Toolbox           |
|  \\    /   O peration     | Version:  2.4.0                                 |
|   \\  /    A nd           | Web:      www.OpenFOAM.org                      |
|    \\/     M anipulation  |                                                 |
\*---------------------------------------------------------------------------*/
FoamFile
{
    version     2.0;
    format      ascii;
    class       volScalarField;
    location    "0.09";
    object      p;
}
// * * * * * * * * * * * * * * * * * * * * * * * * * * * * * * * * * * * * * //

dimensions      [1 -1 -2 0 0 0 0];

internalField   nonuniform List<scalar> 
200
(
6.24948e+16
6.24949e+16
6.24949e+16
6.24948e+16
6.24948e+16
6.24947e+16
6.24946e+16
6.24944e+16
6.24942e+16
6.2494e+16
6.24952e+16
6.24953e+16
6.24953e+16
6.24954e+16
6.24953e+16
6.24953e+16
6.24951e+16
6.2495e+16
6.2495e+16
6.24951e+16
6.24955e+16
6.24956e+16
6.24957e+16
6.24958e+16
6.24958e+16
6.24957e+16
6.24956e+16
6.24956e+16
6.24956e+16
6.24958e+16
6.24956e+16
6.24958e+16
6.24959e+16
6.24961e+16
6.24961e+16
6.24961e+16
6.2496e+16
6.24958e+16
6.2496e+16
6.24964e+16
6.24947e+16
6.24947e+16
6.24947e+16
6.24947e+16
6.24946e+16
6.24946e+16
6.24945e+16
6.24944e+16
6.24941e+16
6.24939e+16
6.24951e+16
6.24952e+16
6.24952e+16
6.24953e+16
6.24953e+16
6.24953e+16
6.24951e+16
6.2495e+16
6.24949e+16
6.24948e+16
6.24954e+16
6.24955e+16
6.24956e+16
6.24957e+16
6.24957e+16
6.24957e+16
6.24956e+16
6.24955e+16
6.24956e+16
6.24957e+16
6.24956e+16
6.24957e+16
6.24958e+16
6.24959e+16
6.2496e+16
6.2496e+16
6.24959e+16
6.24958e+16
6.24959e+16
6.2496e+16
6.24944e+16
6.24945e+16
6.24946e+16
6.24947e+16
6.24948e+16
6.24947e+16
6.24946e+16
6.24944e+16
6.24941e+16
6.2494e+16
6.2495e+16
6.24951e+16
6.24952e+16
6.24953e+16
6.24953e+16
6.24953e+16
6.24952e+16
6.24951e+16
6.2495e+16
6.24949e+16
6.24953e+16
6.24954e+16
6.24956e+16
6.24957e+16
6.24957e+16
6.24957e+16
6.24957e+16
6.24956e+16
6.24956e+16
6.24957e+16
6.24955e+16
6.24956e+16
6.24958e+16
6.24959e+16
6.2496e+16
6.2496e+16
6.2496e+16
6.2496e+16
6.24959e+16
6.24958e+16
6.24942e+16
6.24942e+16
6.24943e+16
6.24944e+16
6.24945e+16
6.24946e+16
6.24947e+16
6.24947e+16
6.24948e+16
6.24945e+16
6.24948e+16
6.24949e+16
6.2495e+16
6.24952e+16
6.24953e+16
6.24954e+16
6.24954e+16
6.24955e+16
6.24954e+16
6.24951e+16
6.24952e+16
6.24953e+16
6.24955e+16
6.24956e+16
6.24957e+16
6.24958e+16
6.24958e+16
6.24958e+16
6.24958e+16
6.24958e+16
6.24953e+16
6.24955e+16
6.24957e+16
6.24958e+16
6.24959e+16
6.2496e+16
6.2496e+16
6.2496e+16
6.24961e+16
6.24963e+16
6.2494e+16
6.24941e+16
6.24942e+16
6.24943e+16
6.24943e+16
6.24944e+16
6.24944e+16
6.24944e+16
6.24943e+16
6.24943e+16
6.24947e+16
6.24948e+16
6.24949e+16
6.2495e+16
6.24951e+16
6.24952e+16
6.24953e+16
6.24953e+16
6.24954e+16
6.24955e+16
6.2495e+16
6.24952e+16
6.24954e+16
6.24955e+16
6.24956e+16
6.24957e+16
6.24958e+16
6.24959e+16
6.24961e+16
6.24964e+16
6.24952e+16
6.24954e+16
6.24956e+16
6.24957e+16
6.24958e+16
6.24959e+16
6.2496e+16
6.24962e+16
6.24964e+16
6.24968e+16
)
;

boundaryField
{
    inlet
    {
        type            zeroGradient;
    }
    outlet
    {
        type            fixedValue;
        value           nonuniform 0();
    }
    bottom
    {
        type            zeroGradient;
    }
    top
    {
        type            symmetryPlane;
    }
    side1
    {
        type            symmetryPlane;
    }
    side2
    {
        type            symmetryPlane;
    }
    procBoundary25to17
    {
        type            processor;
        value           nonuniform List<scalar> 
50
(
6.24942e+16
6.24942e+16
6.24942e+16
6.24943e+16
6.24942e+16
6.24941e+16
6.24939e+16
6.24937e+16
6.24933e+16
6.2493e+16
6.2494e+16
6.2494e+16
6.2494e+16
6.2494e+16
6.2494e+16
6.2494e+16
6.24938e+16
6.24936e+16
6.24933e+16
6.2493e+16
6.24937e+16
6.24937e+16
6.24938e+16
6.24938e+16
6.24939e+16
6.24939e+16
6.24938e+16
6.24936e+16
6.24932e+16
6.24927e+16
6.24932e+16
6.24932e+16
6.24933e+16
6.24933e+16
6.24933e+16
6.24934e+16
6.24934e+16
6.24934e+16
6.24933e+16
6.24933e+16
6.2493e+16
6.2493e+16
6.24931e+16
6.24931e+16
6.24931e+16
6.24931e+16
6.24931e+16
6.2493e+16
6.24929e+16
6.24928e+16
)
;
    }
    procBoundary25to24
    {
        type            processor;
        value           nonuniform List<scalar> 
20
(
6.24948e+16
6.24952e+16
6.24954e+16
6.24955e+16
6.24946e+16
6.2495e+16
6.24953e+16
6.24954e+16
6.24944e+16
6.24949e+16
6.24952e+16
6.24953e+16
6.24941e+16
6.24947e+16
6.2495e+16
6.24952e+16
6.24939e+16
6.24945e+16
6.24949e+16
6.24951e+16
)
;
    }
    procBoundary25to26
    {
        type            processor;
        value           nonuniform List<scalar> 
20
(
6.24938e+16
6.24953e+16
6.24964e+16
6.24969e+16
6.24937e+16
6.24949e+16
6.24959e+16
6.24963e+16
6.24939e+16
6.24948e+16
6.24958e+16
6.24962e+16
6.24938e+16
6.24949e+16
6.24959e+16
6.24966e+16
6.24942e+16
6.24956e+16
6.24966e+16
6.24974e+16
)
;
    }
}


// ************************************************************************* //
