/*--------------------------------*- C++ -*----------------------------------*\
| =========                 |                                                 |
| \\      /  F ield         | OpenFOAM: The Open Source CFD Toolbox           |
|  \\    /   O peration     | Version:  2.4.0                                 |
|   \\  /    A nd           | Web:      www.OpenFOAM.org                      |
|    \\/     M anipulation  |                                                 |
\*---------------------------------------------------------------------------*/
FoamFile
{
    version     2.0;
    format      ascii;
    class       volSymmTensorField;
    location    "0.01";
    object      B;
}
// * * * * * * * * * * * * * * * * * * * * * * * * * * * * * * * * * * * * * //

dimensions      [0 2 -2 0 0 0 0];

internalField   nonuniform List<symmTensor> 
40
(
(5.13324e+17 -9.32241e+11 3.1508e+13 5.13326e+17 -8.31483e+12 5.13316e+17)
(3.42115e+17 -5.58702e+12 2.69047e+13 3.42132e+17 -5.92939e+12 3.42126e+17)
(3.54447e+17 -6.79756e+12 1.75884e+13 3.54472e+17 -5.50919e+12 3.54464e+17)
(2.89272e+17 -1.69224e+13 2.60069e+13 2.89321e+17 -9.22924e+12 2.89306e+17)
(3.15571e+17 -1.72664e+13 2.4596e+13 3.1563e+17 -1.11484e+13 3.15605e+17)
(2.51691e+17 -2.28841e+13 3.08681e+13 2.51746e+17 -1.33495e+13 2.51714e+17)
(1.91771e+17 -3.36543e+13 3.58392e+13 1.91845e+17 -1.74191e+13 1.91812e+17)
(2.17705e+17 -3.35345e+13 3.02907e+13 2.17788e+17 -1.75142e+13 2.17747e+17)
(1.62916e+17 -1.91412e+13 1.50126e+13 1.62954e+17 -7.54857e+12 1.62937e+17)
(1.81747e+17 -2.3363e+13 2.39999e+13 1.81848e+17 -1.32369e+13 1.81797e+17)
(1.33409e+17 -9.38313e+12 3.03847e+13 1.33468e+17 -7.42609e+12 1.33425e+17)
(9.19203e+16 -9.40363e+12 2.68237e+13 9.19724e+16 -8.26815e+12 9.1939e+16)
(6.02326e+16 -9.41788e+12 2.4788e+13 6.02697e+16 -9.64741e+12 6.02458e+16)
(4.5462e+16 -2.83685e+12 2.63267e+13 4.55138e+16 -1.1702e+13 4.54897e+16)
(4.34847e+16 5.99648e+12 1.77354e+13 4.35513e+16 -8.9242e+12 4.35224e+16)
(5.70389e+16 -8.19922e+12 7.0984e+13 5.71937e+16 6.29591e+11 5.71016e+16)
(5.24033e+16 -1.59971e+13 4.83556e+13 5.2512e+16 -2.22623e+12 5.24523e+16)
(4.20532e+16 -2.07565e+13 6.46051e+13 4.22368e+16 -8.99325e+12 4.21488e+16)
(3.39703e+16 -3.01008e+12 4.03848e+13 3.40813e+16 -9.3238e+12 3.40159e+16)
(1.2151e+16 4.46193e+12 4.46609e+13 1.22005e+16 -8.99378e+12 1.21641e+16)
(7.21121e+16 -1.80605e+13 -5.49274e+12 7.20552e+16 2.70434e+13 7.2073e+16)
(1.12325e+17 -1.57103e+12 -1.03663e+12 1.12322e+17 9.3777e+11 1.12322e+17)
(6.75702e+16 -1.61267e+13 -6.36774e+12 6.75681e+16 8.22062e+12 6.75591e+16)
(7.61758e+16 -1.68574e+13 -5.89269e+12 7.62133e+16 7.90436e+12 7.61886e+16)
(5.72214e+16 -3.72892e+12 -1.84137e+12 5.72298e+16 1.49404e+12 5.72267e+16)
(5.08479e+16 -6.15509e+13 1.59338e+12 5.09521e+16 3.18807e+13 5.09285e+16)
(4.78509e+16 -1.36287e+14 -1.93054e+13 4.79472e+16 4.47098e+13 4.78984e+16)
(1.144e+17 -5.37717e+13 -9.6726e+12 1.1442e+17 1.21673e+13 1.14392e+17)
(1.44814e+17 -2.26059e+13 -3.31792e+12 1.44823e+17 3.32664e+12 1.44808e+17)
(1.35546e+17 -3.33757e+13 -6.12463e+12 1.35566e+17 5.10827e+12 1.35545e+17)
(3.95194e+16 -9.6482e+12 -1.40109e+13 3.96084e+16 1.27026e+13 3.95811e+16)
(2.36321e+16 -4.20684e+13 -5.5815e+13 2.39967e+16 4.28907e+13 2.38884e+16)
(1.85158e+16 -3.39535e+13 -3.79632e+13 1.86917e+16 2.05769e+13 1.86246e+16)
(1.01892e+16 -6.34375e+13 -7.05456e+13 1.03919e+16 2.21032e+13 1.02955e+16)
(1.4446e+16 -4.18849e+12 -4.1283e+12 1.44542e+16 -4.06331e+11 1.44476e+16)
(8.04353e+15 -8.74627e+12 -1.23039e+13 8.07105e+15 6.32959e+12 8.05839e+15)
(5.03256e+15 -1.30805e+13 -1.61733e+13 5.07331e+15 8.52447e+12 5.05447e+15)
(8.31852e+15 -3.21795e+12 -1.20228e+13 8.3613e+15 5.73689e+12 8.33926e+15)
(6.62456e+15 4.18874e+12 -2.78313e+13 6.71332e+15 3.44046e+12 6.6687e+15)
(6.83848e+15 1.50302e+12 -9.22197e+12 6.87972e+15 -1.8193e+12 6.85761e+15)
)
;

boundaryField
{
    inlet
    {
        type            calculated;
        value           nonuniform 0();
    }
    outlet
    {
        type            calculated;
        value           nonuniform 0();
    }
    bottom
    {
        type            calculated;
        value           nonuniform List<symmTensor> 
20
(
(3.82106e+06 -988950 7.75408e+07 5.93473e+06 -2.82007e+07 -5.61551e+06)
(-1.58674e+07 -1.30548e+07 4.15912e+07 1.55923e+07 -2.04165e+07 -3.92071e+06)
(-8.68178e+06 -3.66957e+06 2.7634e+07 1.44233e+07 -9.24451e+06 -5.15138e+06)
(-7.85868e+06 -932189 2.14084e+07 9.73424e+06 -1.79117e+06 -1.70574e+06)
(-1.40582e+07 -6.82301e+06 7.59012e+07 5.8305e+06 -2.37976e+07 778909)
(-1.69876e+07 -1.34386e+07 3.52883e+07 1.27395e+07 -1.76522e+07 206058)
(-8.27612e+06 -3.55176e+06 2.4833e+07 1.14021e+07 -8.84719e+06 -2.65915e+06)
(-8.09018e+06 -2.52595e+06 1.95911e+07 9.06692e+06 -2.36453e+06 -921705)
(-2.80383e+07 -1.11089e+07 6.42958e+07 1.35335e+07 -2.65965e+07 5.334e+06)
(-1.55525e+07 -1.2739e+07 2.81465e+07 1.59416e+07 -1.45527e+07 2.57508e+06)
(-5.29143e+06 -3.31874e+06 2.25702e+07 7.77491e+06 -7.87431e+06 -1.38182e+06)
(-9.33664e+06 -2.03139e+06 1.6207e+07 8.63106e+06 -3.27583e+06 -306663)
(-2.97423e+07 -1.47149e+07 5.19812e+07 1.34687e+07 -2.19368e+07 3.59197e+06)
(-1.22716e+07 -1.24648e+07 2.33515e+07 1.24939e+07 -1.23746e+07 3.36175e+06)
(-7.93492e+06 -837425 2.13057e+07 7.33472e+06 -8.0607e+06 1.00029e+06)
(-6.03757e+06 -380556 1.31525e+07 8.00443e+06 -2.9585e+06 -353131)
(-2.75708e+07 -1.35163e+07 4.23106e+07 1.88305e+07 -2.46396e+07 293361)
(-1.46023e+07 -7.52016e+06 1.82857e+07 1.78394e+07 -1.1492e+07 3.52977e+06)
(-1.03559e+07 1.74183e+06 1.60118e+07 8.99621e+06 -4.24701e+06 1.83736e+06)
(-1.72382e+06 445027 1.20128e+07 3.21082e+06 -1.00613e+06 -415488)
)
;
    }
    top
    {
        type            symmetryPlane;
    }
    side1
    {
        type            symmetryPlane;
    }
    side2
    {
        type            symmetryPlane;
    }
    procBoundary59to43
    {
        type            processor;
        value           nonuniform List<symmTensor> 10((1.09091e+13 1.8565e+13 2.18747e+13 -1.81899e+12 -7.18078e+12 -5.01397e+12) (8.27753e+12 6.19366e+12 1.34271e+13 -5.4235e+11 -3.58751e+12 -1.65374e+12) (5.5938e+12 2.52452e+12 8.60115e+12 -3.33296e+11 -3.52708e+12 -4.94303e+11) (4.73506e+12 1.37332e+12 1.00071e+13 1.20664e+12 -5.02134e+12 -5.01756e+11) (1.6772e+12 2.1676e+12 1.03467e+13 1.93209e+12 -5.45009e+12 -2.98199e+11) (-1.05977e+13 4.14262e+13 5.87288e+12 -9.37059e+11 1.62266e+13 9.08893e+12) (1.63666e+12 6.06586e+12 -1.96784e+12 -2.93567e+11 1.66665e+12 9.56189e+11) (2.56502e+13 9.90855e+12 -1.50787e+13 -5.60672e+12 1.18916e+13 -2.33047e+12) (1.34914e+13 1.27006e+13 -9.2213e+12 5.87993e+12 5.24847e+12 -2.94268e+11) (4.14152e+12 1.17867e+13 -6.2872e+12 -7.16008e+11 2.72805e+12 9.11648e+11));
    }
    procBoundary59to58
    {
        type            processor;
        value           nonuniform List<symmTensor> 8((2.45394e+13 -8.23822e+12 5.23059e+13 9.50211e+12 -1.34416e+13 -1.28691e+13) (-1.75938e+13 -2.52879e+13 4.06327e+13 2.46592e+13 -1.13594e+13 -1.07286e+13) (-3.45263e+13 -7.53469e+12 5.23352e+13 6.43884e+13 -9.46759e+12 -1.18927e+13) (-6.68149e+13 6.22874e+12 5.57552e+13 8.02308e+13 -2.71559e+12 -5.6735e+12) (-3.12193e+12 -2.49781e+12 5.94154e+12 4.95044e+12 2.21303e+13 1.24545e+13) (-1.01662e+14 -4.88431e+13 -5.68734e+12 1.72299e+13 4.20715e+13 1.57165e+13) (-8.41245e+13 -4.52696e+13 -3.88124e+13 4.01726e+13 4.0677e+13 1.15174e+13) (-3.13042e+13 -2.1811e+13 -1.79296e+13 2.83823e+13 1.27916e+13 1.567e+12));
    }
    procBoundary59to60
    {
        type            processor;
        value           nonuniform List<symmTensor> 8((-2.45221e+13 -8.64925e+12 2.05089e+13 1.90982e+13 -9.22134e+12 -1.21194e+12) (-7.02624e+13 -1.76301e+13 2.90988e+13 6.77258e+13 -1.51603e+13 2.83987e+12) (-1.4838e+13 5.50847e+11 9.45624e+12 1.39552e+13 -3.78041e+12 5.49153e+11) (-2.77046e+12 -5.02262e+12 1.74479e+13 6.12566e+12 -2.82754e+12 -2.34241e+12) (-8.82704e+12 -2.31685e+12 -1.30238e+12 4.29013e+12 7.83753e+11 2.81708e+11) (-1.28146e+13 -1.63365e+13 -4.21754e+12 1.75775e+13 2.49178e+12 -8.32176e+11) (-7.2692e+11 -1.143e+13 -2.02086e+13 2.61512e+13 -3.21665e+12 -2.50461e+12) (-3.76561e+13 4.62581e+12 -1.84412e+13 3.75633e+13 -4.61382e+12 -3.8108e+11));
    }
    procBoundary59to123
    {
        type            processor;
        value           nonuniform List<symmTensor> 
20
(
(-4.19974e+13 -2.6903e+13 -1.68516e+13 1.03597e+13 3.70624e+11 1.05997e+13)
(-1.77997e+13 -9.06911e+12 -7.88716e+12 7.29112e+12 -1.45283e+12 2.69146e+12)
(-1.03788e+13 -3.37813e+12 -5.74569e+12 4.80237e+12 5.27429e+11 1.77637e+12)
(-4.08034e+13 -2.33678e+13 -7.66964e+12 1.08544e+13 2.54079e+12 2.10061e+12)
(-7.36856e+13 -3.46869e+13 -1.32264e+13 4.19369e+13 -9.12899e+11 5.04278e+12)
(-3.49162e+13 -4.60058e+13 -4.61255e+12 1.2333e+13 6.09388e+12 1.07297e+12)
(-2.61184e+14 -2.40442e+14 -2.55427e+13 1.58876e+14 3.83872e+13 -4.69733e+12)
(-6.67883e+13 -6.93981e+13 -9.56551e+12 3.88939e+13 1.67146e+13 -3.1747e+12)
(-2.26915e+13 -3.73239e+13 -1.56903e+12 1.42977e+13 3.68119e+12 -1.92185e+12)
(-4.15069e+13 -5.6812e+13 -5.40091e+12 6.35771e+13 1.91663e+12 -8.92704e+12)
(-4.49433e+13 -9.47542e+13 -4.36711e+13 8.79558e+13 8.39319e+12 2.28992e+13)
(-3.94301e+13 -4.63478e+13 -2.44794e+13 7.97428e+13 7.30876e+12 -7.24851e+11)
(-1.49576e+13 -5.0928e+13 -1.65363e+13 5.94995e+13 2.7973e+13 -1.78239e+13)
(-3.45962e+13 -1.78301e+13 -5.90091e+11 3.62979e+13 1.51877e+13 -1.46401e+13)
(-2.38794e+13 2.907e+12 2.00597e+12 2.04584e+13 5.00906e+12 -6.62014e+12)
(-2.63103e+13 3.15725e+13 7.93025e+12 3.87836e+13 -5.69429e+12 6.26484e+12)
(-1.7235e+13 1.29791e+13 3.77962e+12 2.12617e+13 -1.78204e+12 -4.10484e+12)
(-4.23359e+13 7.57273e+12 1.06412e+11 3.22451e+13 3.99957e+12 -1.07015e+13)
(-2.30894e+13 9.28001e+12 -2.43945e+12 2.22268e+13 6.29799e+11 -3.33947e+12)
(-2.49785e+13 1.73123e+13 2.29432e+12 2.14718e+13 1.60722e+12 -8.23631e+12)
)
;
    }
}


// ************************************************************************* //
