/*--------------------------------*- C++ -*----------------------------------*\
| =========                 |                                                 |
| \\      /  F ield         | OpenFOAM: The Open Source CFD Toolbox           |
|  \\    /   O peration     | Version:  2.4.0                                 |
|   \\  /    A nd           | Web:      www.OpenFOAM.org                      |
|    \\/     M anipulation  |                                                 |
\*---------------------------------------------------------------------------*/
FoamFile
{
    version     2.0;
    format      ascii;
    class       volVectorField;
    location    "0.01";
    object      U;
}
// * * * * * * * * * * * * * * * * * * * * * * * * * * * * * * * * * * * * * //

dimensions      [0 1 -1 0 0 0 0];

internalField   nonuniform List<vector> 
40
(
(-4.79713e+09 1.9452e+09 1.87184e+08)
(-4.76809e+09 1.6364e+09 -2.59636e+07)
(-4.21137e+09 1.815e+09 -1.778e+08)
(-3.59983e+09 1.52901e+09 -1.19732e+08)
(-2.97211e+09 1.71715e+09 -9.77871e+06)
(-2.5001e+09 1.36729e+09 1.3069e+08)
(-2.17933e+09 1.13097e+09 -6.86862e+06)
(-1.79228e+09 8.80633e+08 -8.58358e+07)
(-1.53131e+09 7.90415e+08 -1.12058e+08)
(-1.28097e+09 7.86721e+08 -1.17659e+08)
(-1.75193e+09 6.45834e+08 1.71713e+08)
(-1.55501e+09 5.74776e+08 8.86382e+07)
(-1.40709e+09 4.86531e+08 4.60608e+07)
(-1.33454e+09 4.87848e+08 -3.33429e+07)
(-1.07647e+09 2.30531e+08 -6.12455e+07)
(-1.40239e+09 1.65353e+08 5.68579e+07)
(-1.26876e+09 1.80801e+08 3.07235e+07)
(-1.0653e+09 2.32724e+08 1.02221e+07)
(-8.79738e+08 1.79188e+08 1.1771e+07)
(-8.13738e+08 3.70374e+07 1.38496e+07)
(-2.62708e+09 6.67571e+08 4.26114e+08)
(-2.82575e+09 4.9414e+08 2.42296e+08)
(-3.15356e+09 7.53503e+08 1.94945e+08)
(-2.96832e+09 8.77281e+08 5.02707e+07)
(-2.76792e+09 9.08099e+08 7.43237e+07)
(-1.10518e+09 6.88267e+08 2.33965e+08)
(-9.44062e+08 5.40504e+08 8.82627e+07)
(-9.39565e+08 5.35382e+08 2.80967e+07)
(-9.73849e+08 3.82201e+08 -1.50059e+07)
(-1.02674e+09 4.31823e+08 -6.6161e+07)
(-1.05551e+09 2.46753e+08 1.59956e+08)
(-7.44589e+08 1.97846e+08 7.33241e+07)
(-5.31887e+08 2.66341e+08 3.69179e+07)
(-3.94489e+08 2.35187e+08 1.229e+06)
(-3.33395e+08 2.50327e+08 -1.92464e+07)
(-6.50381e+08 -673313 4.14928e+07)
(-6.18096e+08 5.6021e+06 1.70953e+07)
(-5.60115e+08 5.9324e+07 -1.3444e+07)
(-4.93398e+08 6.29711e+07 2.32526e+07)
(-4.25641e+08 8.20178e+07 4.18524e+07)
)
;

boundaryField
{
    inlet
    {
        type            calculated;
        value           nonuniform 0();
    }
    outlet
    {
        type            calculated;
        value           nonuniform 0();
    }
    bottom
    {
        type            calculated;
        value           uniform (0 0 0);
    }
    top
    {
        type            symmetryPlane;
    }
    side1
    {
        type            symmetryPlane;
    }
    side2
    {
        type            symmetryPlane;
    }
    procBoundary59to43
    {
        type            processor;
        value           nonuniform List<vector> 10((-3.24956e+09 1.86185e+09 2.93564e+08) (-3.57689e+09 1.61685e+09 1.17867e+08) (-3.85856e+09 2.00843e+09 1.89165e+07) (-4.17949e+09 1.91281e+09 5.43229e+07) (-4.31777e+09 2.35593e+09 6.86012e+07) (-1.78464e+09 3.74527e+08 3.94553e+08) (-1.86648e+09 3.63202e+08 2.71472e+08) (-1.86813e+09 7.09727e+08 1.51481e+08) (-2.19077e+09 1.30838e+09 1.01393e+08) (-2.26939e+09 1.07228e+09 2.5711e+07));
    }
    procBoundary59to58
    {
        type            processor;
        value           nonuniform List<vector> 8((-4.60888e+09 1.92872e+09 4.39358e+08) (-2.84047e+09 1.56568e+09 3.33937e+08) (-1.91675e+09 8.17831e+08 2.01555e+08) (-1.59621e+09 2.77887e+08 6.17594e+07) (-2.42539e+09 4.79835e+08 6.46953e+08) (-1.47323e+09 4.52363e+08 4.39377e+08) (-1.33001e+09 2.2359e+08 1.79017e+08) (-7.21127e+08 6.44645e+07 6.2214e+07));
    }
    procBoundary59to60
    {
        type            processor;
        value           nonuniform List<vector> 8((-2.45104e+09 1.13696e+09 6.95289e+07) (-9.22878e+08 4.69274e+08 -3.4662e+07) (-9.0304e+08 1.09081e+08 -2.20678e+07) (-8.07912e+08 1.07352e+07 2.78753e+07) (-2.38471e+09 1.05417e+09 6.37098e+07) (-9.37779e+08 4.13562e+08 -3.42993e+07) (-3.19927e+08 1.88353e+08 -6.80271e+06) (-3.4738e+08 8.63357e+07 4.54319e+07));
    }
    procBoundary59to123
    {
        type            processor;
        value           nonuniform List<vector> 
20
(
(-3.15768e+09 5.05735e+08 1.31152e+08)
(-2.87306e+09 8.84423e+08 1.97818e+08)
(-2.52613e+09 6.30091e+08 2.94996e+08)
(-2.36029e+09 5.70303e+08 1.86688e+08)
(-1.75381e+09 8.40749e+08 3.34616e+07)
(-1.44893e+09 3.44645e+08 -6.55427e+06)
(-1.11817e+09 4.69441e+08 2.70979e+07)
(-7.98394e+08 2.98938e+08 9.63669e+07)
(-6.73894e+08 3.11631e+08 1.23086e+08)
(-4.86014e+08 3.24895e+08 8.50653e+07)
(-4.76634e+08 1.0421e+08 -1.99918e+07)
(-3.86155e+08 9.29949e+07 -1.50471e+07)
(-3.63972e+08 1.12648e+08 3.05814e+06)
(-3.56943e+08 1.76649e+08 540415)
(-2.50543e+08 1.36472e+08 2.44249e+07)
(-6.11125e+08 2.21097e+07 -4.03972e+06)
(-6.05337e+08 1.37521e+07 -1.07619e+07)
(-5.67859e+08 6.65376e+07 -3.68712e+07)
(-4.87708e+08 7.36141e+07 -9.15754e+06)
(-4.37872e+08 2.74317e+07 1.77508e+07)
)
;
    }
}


// ************************************************************************* //
