/*--------------------------------*- C++ -*----------------------------------*\
| =========                 |                                                 |
| \\      /  F ield         | OpenFOAM: The Open Source CFD Toolbox           |
|  \\    /   O peration     | Version:  2.4.0                                 |
|   \\  /    A nd           | Web:      www.OpenFOAM.org                      |
|    \\/     M anipulation  |                                                 |
\*---------------------------------------------------------------------------*/
FoamFile
{
    version     2.0;
    format      ascii;
    class       volScalarField;
    location    "0.17";
    object      p;
}
// * * * * * * * * * * * * * * * * * * * * * * * * * * * * * * * * * * * * * //

dimensions      [1 -1 -2 0 0 0 0];

internalField   nonuniform List<scalar> 
200
(
2.77076e+34
1.3069e+34
-5.24577e+33
-5.96486e+33
-1.39075e+34
-1.97773e+34
-1.59478e+34
-1.67728e+34
-5.75919e+33
5.40721e+33
-7.11041e+34
-3.74492e+34
-2.83688e+34
-1.198e+34
-1.91656e+34
-2.68738e+34
-4.81732e+34
-4.93412e+34
-4.57414e+34
-1.569e+34
-1.24902e+35
-8.26316e+34
-3.82508e+34
-2.22929e+34
-2.21694e+34
-4.02083e+34
-5.65221e+34
-6.5857e+34
-5.46511e+34
-2.35353e+34
-1.67267e+35
-8.77788e+34
-3.69839e+34
-1.17458e+34
-5.77436e+33
-1.30661e+34
-3.84432e+34
-6.02843e+34
-4.46075e+34
-1.53096e+34
1.68123e+35
8.87205e+34
7.19249e+34
1.20117e+34
-1.2003e+33
-2.53926e+34
-1.79423e+34
-2.66241e+34
-9.61268e+33
-3.06825e+32
4.89501e+34
1.63339e+34
-2.94163e+34
-3.21165e+34
-4.54793e+34
-6.72017e+34
-6.1506e+34
-5.47425e+34
-4.33709e+34
-1.86609e+34
-2.21572e+35
-1.48935e+35
-1.42252e+35
-9.50846e+34
-9.0184e+34
-8.15204e+34
-8.48942e+34
-6.11726e+34
-4.02749e+34
-1.57996e+34
-3.33212e+35
-2.48674e+35
-1.41408e+35
-1.0669e+35
-5.62795e+34
-6.77905e+34
-7.80001e+34
-7.65952e+34
-3.70434e+34
-7.55306e+33
2.03861e+35
1.73721e+35
1.15317e+35
1.00866e+35
4.51346e+34
4.94525e+34
1.14603e+34
2.19035e+34
9.54056e+33
5.83876e+33
3.01313e+35
1.70584e+35
1.55432e+35
6.99175e+34
4.71992e+34
-4.08155e+33
-4.28062e+33
-3.23887e+34
-7.06403e+33
-1.66211e+34
1.88944e+35
1.1182e+35
5.53838e+34
3.39325e+34
8.60263e+33
-2.42104e+34
-3.04579e+34
-5.41577e+34
-4.4707e+34
-1.28221e+34
-4.71299e+33
1.80239e+34
-5.05077e+34
-1.68231e+34
-1.79714e+34
1.45496e+33
-1.57528e+34
-2.1489e+34
-2.34212e+34
-8.55801e+33
1.69342e+35
1.54571e+35
1.47585e+35
1.18996e+35
9.58141e+34
5.23956e+34
3.16364e+34
1.22351e+34
3.90043e+33
1.8261e+33
2.07809e+35
1.92753e+35
1.36998e+35
1.19328e+35
7.02754e+34
5.78808e+34
1.74443e+34
1.68775e+34
1.63579e+33
-2.1339e+33
1.83505e+35
1.43039e+35
1.33461e+35
8.01301e+34
5.95748e+34
2.38683e+34
9.59847e+33
-8.30587e+33
-4.75092e+33
-8.62735e+33
8.20101e+34
3.12598e+34
4.16895e+34
2.72165e+34
2.58167e+34
1.23162e+34
2.00001e+34
-1.01074e+33
-5.44236e+33
-4.65111e+33
1.9946e+35
1.9778e+35
1.9029e+35
1.7359e+35
1.436e+35
1.13562e+35
8.28095e+34
5.50699e+34
3.40528e+34
7.71611e+33
2.46795e+35
2.32023e+35
2.19846e+35
1.87814e+35
1.60751e+35
1.16901e+35
9.1115e+34
6.12747e+34
3.79442e+34
1.60435e+34
2.6462e+35
2.61548e+35
2.24392e+35
1.97944e+35
1.48442e+35
1.19766e+35
7.80436e+34
5.88897e+34
3.12889e+34
1.04542e+34
1.9184e+35
1.97416e+35
1.7894e+35
1.46859e+35
1.15285e+35
8.35199e+34
6.22773e+34
4.07669e+34
2.6451e+34
9.16209e+33
)
;

boundaryField
{
    inlet
    {
        type            zeroGradient;
    }
    outlet
    {
        type            fixedValue;
        value           uniform 0;
    }
    bottom
    {
        type            zeroGradient;
    }
    top
    {
        type            symmetryPlane;
    }
    side1
    {
        type            symmetryPlane;
    }
    side2
    {
        type            symmetryPlane;
    }
    procBoundary23to15
    {
        type            processor;
        value           nonuniform List<scalar> 
50
(
9.78025e+34
7.17897e+34
6.28425e+34
3.36922e+34
-3.67699e+33
3.211e+33
-1.47066e+34
-7.07743e+33
-3.56382e+34
8.35835e+33
1.36488e+35
1.16838e+35
7.36861e+34
6.83065e+34
1.97858e+34
1.51685e+33
-6.34979e+33
-2.66888e+34
-3.56866e+33
-4.77921e+33
1.43001e+35
1.16067e+35
1.01273e+35
7.28601e+34
7.0142e+34
2.26504e+34
3.59809e+34
2.46153e+34
2.08795e+34
1.89737e+34
1.50888e+35
1.59781e+35
1.59768e+35
1.38941e+35
8.68754e+34
3.32979e+34
-1.69639e+34
-1.90591e+34
-7.45901e+33
-7.00161e+33
1.67879e+35
1.74691e+35
1.64463e+35
1.48405e+35
1.25567e+35
1.00158e+35
7.45929e+34
5.35392e+34
2.99802e+34
1.33444e+34
)
;
    }
    procBoundary23to22
    {
        type            processor;
        value           nonuniform List<scalar> 
20
(
3.1738e+34
-5.31391e+34
-1.81065e+35
-2.40378e+35
2.00561e+35
1.52007e+35
-2.09402e+35
-5.40287e+35
2.868e+35
3.36532e+35
2.629e+35
3.50252e+34
1.85358e+35
2.61053e+35
2.05614e+35
6.40278e+34
1.9855e+35
2.50213e+35
2.63732e+35
2.06796e+35
)
;
    }
    procBoundary23to31
    {
        type            processor;
        value           nonuniform List<scalar> 
50
(
-1.33944e+35
-9.29965e+34
-5.32865e+34
-3.5338e+34
-1.76957e+34
-3.31538e+34
-2.13132e+34
-3.85618e+34
-2.98928e+34
-8.61861e+33
-2.79769e+35
-1.82723e+35
-1.46452e+35
-8.59756e+34
-8.33847e+34
-3.92931e+34
-3.64108e+34
-3.48077e+34
-2.408e+34
-8.58309e+33
-9.01846e+34
-2.14871e+34
-2.06986e+34
-4.29653e+34
-1.63247e+34
-4.25432e+33
7.73934e+33
-7.61291e+33
-1.56908e+34
-2.51629e+33
1.80479e+34
2.50993e+34
7.61671e+33
1.32785e+34
7.10805e+33
1.6401e+34
1.57261e+34
1.7238e+34
1.93699e+33
-1.16461e+33
1.28207e+35
1.09303e+35
1.07575e+35
8.30746e+34
6.68181e+34
4.86217e+34
5.44163e+34
4.50861e+34
3.08198e+34
7.1119e+33
)
;
    }
}


// ************************************************************************* //
