/*--------------------------------*- C++ -*----------------------------------*\
| =========                 |                                                 |
| \\      /  F ield         | OpenFOAM: The Open Source CFD Toolbox           |
|  \\    /   O peration     | Version:  2.4.0                                 |
|   \\  /    A nd           | Web:      www.OpenFOAM.org                      |
|    \\/     M anipulation  |                                                 |
\*---------------------------------------------------------------------------*/
FoamFile
{
    version     2.0;
    format      ascii;
    class       volVectorField;
    location    "0.17";
    object      U;
}
// * * * * * * * * * * * * * * * * * * * * * * * * * * * * * * * * * * * * * //

dimensions      [0 1 -1 0 0 0 0];

internalField   nonuniform List<vector> 
200
(
(5.62928e+17 5.35626e+16 -1.25436e+17)
(3.29671e+17 5.67835e+17 -7.35166e+16)
(5.1063e+17 2.86777e+17 -1.38684e+17)
(4.62542e+17 1.82893e+17 -2.60231e+17)
(4.96297e+17 1.25867e+17 -9.07982e+16)
(4.41606e+17 2.36287e+17 -7.2277e+16)
(4.60283e+17 -1.11024e+17 5.12776e+16)
(4.02636e+17 2.35439e+17 -1.30407e+16)
(4.1464e+17 -1.83463e+17 -1.67553e+17)
(3.61978e+17 2.07844e+17 1.16231e+16)
(3.03226e+17 5.30827e+17 -1.63445e+17)
(4.27858e+17 2.95507e+17 -1.50901e+17)
(4.38377e+17 2.84921e+17 -1.708e+17)
(4.09092e+17 1.67632e+17 -1.32649e+17)
(4.12697e+17 1.64077e+17 -9.82897e+16)
(4.21809e+17 -1.47383e+17 1.75451e+17)
(3.84652e+17 1.99897e+17 -1.08879e+17)
(4.04013e+17 -2.55476e+17 3.49114e+17)
(2.95459e+17 2.99924e+17 -4.61984e+16)
(3.2439e+17 -4.67442e+16 -2.16612e+16)
(3.36445e+17 1.69373e+17 -6.50728e+16)
(2.7042e+17 3.27387e+17 -1.56495e+17)
(2.34519e+17 1.89588e+17 -1.23751e+17)
(2.78905e+17 2.20807e+17 -1.02933e+17)
(2.40575e+17 -7.17801e+16 8.52586e+16)
(2.33703e+17 1.07684e+17 -6.75405e+16)
(1.50224e+17 -2.48701e+17 3.20653e+17)
(9.56076e+16 1.67376e+17 -9.40836e+16)
(-1.02782e+16 -7.3841e+16 2.34942e+17)
(1.11707e+17 1.35058e+17 -1.65615e+17)
(-2.06904e+16 3.12882e+17 -6.83202e+16)
(1.46649e+16 1.73804e+17 -8.64823e+15)
(-3.54699e+16 2.71987e+17 4.78637e+16)
(-9.26868e+16 -2.94157e+16 1.78169e+17)
(-2.05521e+17 1.92861e+17 -4.91219e+16)
(-2.07336e+17 -5.08852e+16 1.78997e+17)
(-3.40974e+17 2.97272e+17 -6.4656e+16)
(-3.73322e+17 -3.99404e+16 2.05424e+17)
(-4.80045e+17 2.57068e+17 2.93202e+16)
(-4.25906e+17 1.7474e+17 1.88269e+17)
(5.10428e+17 6.56428e+16 -1.94871e+17)
(6.35689e+17 -4.35645e+17 1.19372e+17)
(5.47361e+17 1.09578e+17 -1.57388e+17)
(5.97049e+17 -3.48156e+17 2.05134e+17)
(4.43712e+17 1.22751e+17 -1.13868e+17)
(4.61097e+17 -4.82524e+17 4.23115e+17)
(3.58945e+17 6.53024e+16 -2.79234e+16)
(4.74126e+17 -2.39115e+17 9.63379e+16)
(3.89766e+17 1.81517e+17 4.93732e+16)
(4.78072e+17 9.53238e+14 9.84993e+16)
(8.04746e+17 -7.87758e+17 5.74657e+17)
(4.11211e+17 2.59338e+17 -1.64349e+17)
(6.57038e+17 -6.66734e+17 4.99197e+17)
(3.46711e+17 1.87048e+17 -8.17367e+16)
(4.76014e+17 -4.78218e+17 4.26742e+17)
(2.84562e+17 1.55525e+17 -1.07978e+17)
(3.25105e+17 -4.66825e+17 5.1968e+17)
(2.01273e+17 1.4591e+17 -8.38718e+16)
(3.53267e+17 -3.10193e+17 3.28006e+17)
(2.32939e+17 8.20423e+16 -7.42527e+16)
(2.06034e+17 3.12163e+17 -1.14041e+17)
(5.36021e+17 -8.44393e+17 7.77654e+17)
(1.21949e+17 2.86281e+17 -6.43856e+16)
(2.40149e+17 -4.69212e+17 4.73389e+17)
(8.35878e+16 1.51989e+17 -5.74249e+16)
(3.8312e+16 -3.20919e+17 3.22494e+17)
(-6.50975e+16 1.40317e+17 -1.4781e+17)
(-6.44551e+16 -2.78788e+17 3.64858e+17)
(-2.22371e+17 1.52978e+17 -7.11754e+16)
(-2.32771e+17 1.84751e+17 1.20266e+17)
(-1.62997e+17 -7.02015e+17 4.65939e+17)
(-3.19674e+17 2.18469e+17 -4.8299e+16)
(-2.8415e+17 -2.58356e+17 3.33206e+17)
(-3.61081e+17 1.20048e+17 -6.36652e+16)
(-3.64804e+17 -9.44115e+16 1.07588e+17)
(-5.99238e+17 3.75813e+17 -3.47735e+17)
(-4.6287e+17 -9.20487e+16 8.66267e+16)
(-6.66532e+17 2.82831e+17 -1.83256e+17)
(-5.5296e+17 -6.06483e+16 1.4877e+17)
(-5.67998e+17 2.68664e+17 -7.45435e+16)
(5.28037e+17 -2.78182e+17 1.43372e+17)
(5.83899e+17 -2.41265e+17 -1.39527e+17)
(6.05444e+17 -4.23655e+17 3.15602e+17)
(5.52684e+17 1.16856e+16 7.11699e+16)
(5.14222e+17 -5.3472e+17 4.53608e+17)
(4.74108e+17 -1.87029e+17 1.22601e+16)
(5.59908e+17 -2.92072e+17 2.55696e+17)
(4.63041e+17 -8.18017e+16 2.25076e+16)
(5.24647e+17 -1.19811e+17 1.55835e+17)
(5.26533e+17 -5.03414e+16 4.59479e+16)
(4.80425e+17 -1.04447e+17 -5.37995e+16)
(7.09253e+17 -7.5946e+17 6.90885e+17)
(4.5955e+17 8.8061e+16 4.21767e+16)
(6.56089e+17 -6.04349e+17 5.43128e+17)
(4.46761e+17 9.79517e+16 -2.75128e+16)
(4.96196e+17 -6.03895e+17 6.14123e+17)
(3.66606e+17 6.08648e+15 5.13289e+15)
(5.07341e+17 -3.03463e+17 3.62026e+17)
(4.19372e+17 1.40384e+16 2.43699e+16)
(4.86165e+17 -8.57115e+16 1.90636e+17)
(8.31053e+17 -8.82498e+17 8.58968e+17)
(3.68842e+17 4.61294e+16 -1.2106e+17)
(6.64235e+17 -8.12497e+17 8.6368e+17)
(3.17478e+17 2.02833e+17 -8.73339e+15)
(4.85136e+17 -5.61493e+17 5.9161e+17)
(2.00321e+17 1.0239e+17 -9.36346e+16)
(2.79636e+17 -4.58945e+17 4.75865e+17)
(1.2173e+17 1.90681e+16 -7.43055e+16)
(2.31167e+17 -3.03558e+17 3.65613e+17)
(1.0329e+17 2.40195e+16 -3.25182e+16)
(2.80028e+17 -1.12712e+17 -3.73311e+17)
(4.11033e+17 -5.85463e+17 5.0508e+17)
(9.98105e+16 7.84851e+16 -1.6814e+17)
(1.63384e+17 -4.70755e+17 5.45018e+17)
(-4.92308e+16 2.02369e+17 -8.39213e+16)
(-8.12048e+16 -2.11311e+17 2.4122e+17)
(-2.39189e+17 -5.66969e+16 -1.02086e+17)
(-3.18986e+17 -3.61089e+16 2.24613e+17)
(-5.07022e+17 1.84197e+17 -1.65659e+17)
(-4.57108e+17 3.33388e+16 1.48666e+17)
(4.35558e+17 -1.74788e+17 -1.06314e+17)
(3.90666e+17 -2.64542e+17 2.94528e+17)
(4.38451e+17 -5.31884e+16 2.28484e+16)
(3.84006e+17 -3.91779e+17 3.71594e+17)
(4.61593e+17 -1.75874e+17 -5.68961e+16)
(4.99849e+17 -3.24254e+17 2.67438e+17)
(5.05085e+17 -2.08525e+17 -6.36742e+16)
(4.92253e+17 -2.41933e+17 1.8911e+17)
(4.63107e+17 -1.60045e+17 -9.25062e+15)
(4.13363e+17 -1.88451e+17 2.02665e+17)
(4.42518e+17 -3.64916e+17 5.27659e+17)
(4.23492e+17 1.59675e+16 6.94794e+16)
(5.18236e+17 -4.08397e+17 5.03827e+17)
(4.74042e+17 4.15786e+16 1.63963e+16)
(4.67516e+17 -5.18954e+17 5.59863e+17)
(4.41033e+17 -5.86428e+16 -6.16568e+15)
(5.11655e+17 -3.21557e+17 3.35016e+17)
(4.58637e+17 -8.12484e+16 -3.11492e+16)
(4.96323e+17 -1.64776e+17 2.10611e+17)
(4.50595e+17 -7.53429e+16 9.90372e+15)
(3.34597e+17 3.28509e+16 -6.85245e+16)
(5.46395e+17 -6.16988e+17 8.67825e+17)
(3.77962e+17 1.85554e+17 5.50483e+16)
(5.65796e+17 -4.94221e+17 6.61903e+17)
(3.622e+17 1.50881e+17 -3.35051e+16)
(4.42222e+17 -4.87744e+17 5.81047e+17)
(3.14142e+17 3.46707e+16 -5.33572e+16)
(4.18497e+17 -3.1214e+17 3.65557e+17)
(3.41358e+17 -1.59137e+16 -4.63742e+16)
(3.8493e+17 -1.27074e+17 2.19431e+17)
(5.2004e+17 -2.84577e+17 4.6964e+17)
(2.06314e+17 3.11333e+16 -2.17663e+17)
(4.16188e+17 -5.71589e+17 7.99324e+17)
(1.94645e+17 2.87167e+17 -4.35727e+16)
(3.41718e+17 -3.91695e+17 5.52334e+17)
(1.20857e+17 1.52895e+17 -1.12959e+17)
(1.97616e+17 -2.83358e+17 3.34207e+17)
(5.03178e+16 1.60113e+15 -1.06175e+17)
(7.96072e+16 -1.55645e+17 2.65397e+17)
(-4.33233e+15 3.8691e+15 -4.51832e+16)
(1.65053e+17 -3.54148e+17 5.03366e+17)
(2.85222e+17 -1.82437e+17 -8.3114e+16)
(2.40663e+17 -4.54532e+17 4.96109e+17)
(3.77492e+17 -2.22047e+17 -9.0878e+16)
(3.68518e+17 -3.93712e+17 4.033e+17)
(4.45097e+17 -2.025e+17 -1.08311e+17)
(4.28595e+17 -2.94117e+17 2.9416e+17)
(4.69257e+17 -1.87815e+17 -1.13115e+17)
(4.40448e+17 -2.59206e+17 2.52858e+17)
(4.64642e+17 -1.7941e+17 -1.17083e+17)
(2.62703e+17 -6.05568e+16 -3.26656e+16)
(2.87758e+17 -3.93677e+17 6.04307e+17)
(3.59832e+17 -6.0246e+16 -3.62668e+16)
(3.45587e+17 -4.74966e+17 5.78294e+17)
(4.26789e+17 -1.23567e+17 -5.97952e+16)
(4.61656e+17 -3.59207e+17 4.2121e+17)
(4.91546e+17 -1.34857e+17 -9.06968e+16)
(4.90045e+17 -2.43338e+17 3.01152e+17)
(4.97285e+17 -1.14461e+17 -8.21467e+16)
(4.74168e+17 -2.03301e+17 2.73141e+17)
(2.82573e+17 -3.79807e+17 7.85237e+17)
(2.83965e+17 1.34263e+17 5.34849e+13)
(4.15916e+17 -3.89126e+17 6.96571e+17)
(3.85187e+17 1.08061e+17 -3.76872e+16)
(4.40461e+17 -4.23057e+17 6.19828e+17)
(4.40137e+17 2.53425e+16 -6.69252e+16)
(4.7881e+17 -2.79554e+17 4.46507e+17)
(4.76028e+17 -1.4188e+16 -9.211e+16)
(4.86126e+17 -1.55322e+17 2.96409e+17)
(4.85067e+17 -2.75678e+16 -7.9114e+16)
(2.00582e+17 1.66951e+17 -1.8158e+17)
(3.30512e+17 -3.3998e+17 8.1829e+17)
(2.73816e+17 3.18635e+17 -4.00731e+16)
(4.55428e+17 -3.1535e+17 6.9722e+17)
(3.39133e+17 2.35507e+17 -7.2325e+16)
(4.09812e+17 -2.71652e+17 5.60995e+17)
(3.69604e+17 1.31344e+17 -1.00387e+17)
(4.172e+17 -1.93642e+17 4.13227e+17)
(4.11319e+17 5.7131e+16 -1.06872e+17)
(4.30958e+17 -1.21673e+17 2.56772e+17)
)
;

boundaryField
{
    inlet
    {
        type            calculated;
        value           nonuniform 0();
    }
    outlet
    {
        type            calculated;
        value           nonuniform List<vector> 
20
(
(3.61978e+17 2.07844e+17 1.16231e+16)
(3.2439e+17 -4.67442e+16 -2.16612e+16)
(1.11707e+17 1.35058e+17 -1.65615e+17)
(-4.25906e+17 1.7474e+17 1.88269e+17)
(4.78072e+17 9.53238e+14 9.84993e+16)
(2.32939e+17 8.20423e+16 -7.42527e+16)
(-2.32771e+17 1.84751e+17 1.20266e+17)
(-5.67998e+17 2.68664e+17 -7.45435e+16)
(5.26533e+17 -5.03414e+16 4.59479e+16)
(4.86165e+17 -8.57115e+16 1.90636e+17)
(1.0329e+17 2.40195e+16 -3.25182e+16)
(-4.57108e+17 3.33388e+16 1.48666e+17)
(4.13363e+17 -1.88451e+17 2.02665e+17)
(4.50595e+17 -7.53429e+16 9.90372e+15)
(3.8493e+17 -1.27074e+17 2.19431e+17)
(-4.33233e+15 3.8691e+15 -4.51832e+16)
(4.64642e+17 -1.7941e+17 -1.17083e+17)
(4.74168e+17 -2.03301e+17 2.73141e+17)
(4.85067e+17 -2.75678e+16 -7.9114e+16)
(4.30958e+17 -1.21673e+17 2.56772e+17)
)
;
    }
    bottom
    {
        type            calculated;
        value           uniform (0 0 0);
    }
    top
    {
        type            symmetryPlane;
    }
    side1
    {
        type            symmetryPlane;
    }
    side2
    {
        type            symmetryPlane;
    }
    procBoundary23to15
    {
        type            processor;
        value           nonuniform List<vector> 
50
(
(4.86381e+17 1.90192e+17 -1.33124e+17)
(4.57492e+17 1.95069e+17 -8.0556e+16)
(4.24437e+17 2.33966e+17 -2.03897e+17)
(3.68848e+17 1.33932e+17 1.45928e+17)
(3.38265e+17 1.35985e+16 -6.47009e+17)
(5.7076e+17 -4.31822e+16 -1.62591e+17)
(5.41782e+17 2.36497e+17 7.62267e+15)
(4.33396e+17 -3.3075e+17 -4.38182e+17)
(4.86398e+17 2.33328e+17 3.7139e+16)
(2.73325e+17 2.04229e+16 -2.88711e+17)
(4.685e+17 -3.25347e+16 -4.34061e+16)
(5.24066e+17 8.36721e+15 -1.77262e+17)
(5.03277e+17 -1.24276e+17 6.24582e+16)
(4.93164e+17 -6.06888e+16 -2.44748e+17)
(4.36573e+17 -2.75003e+17 3.05819e+17)
(3.16444e+17 -1.02256e+17 -6.87351e+17)
(5.47987e+17 -1.849e+17 -3.35747e+16)
(5.11552e+17 1.35914e+17 8.14403e+16)
(3.38091e+17 -3.73105e+16 -1.07043e+17)
(4.31223e+17 3.40317e+17 1.63822e+17)
(4.88149e+17 -2.15272e+17 -1.95858e+17)
(4.66056e+17 -1.95009e+17 1.29554e+17)
(5.37462e+17 -1.29804e+17 -1.18611e+16)
(4.56327e+17 -3.94245e+17 2.60903e+17)
(4.7375e+17 -3.12784e+17 -1.45434e+17)
(4.65476e+17 -2.58803e+17 1.49186e+17)
(3.91017e+17 -2.8529e+17 -2.88589e+17)
(3.84374e+17 -1.16026e+17 5.8623e+16)
(4.53432e+17 3.10832e+16 -3.33418e+15)
(4.13677e+17 3.95094e+16 1.41972e+17)
(2.12038e+17 -1.71893e+17 1.40981e+17)
(2.83765e+17 -1.02775e+17 -1.14265e+17)
(2.29797e+17 -2.30108e+17 2.19551e+17)
(3.80048e+17 -1.62556e+17 -1.52466e+17)
(3.83437e+17 -2.11803e+17 1.92466e+17)
(4.73889e+17 -2.02597e+17 -1.31184e+17)
(4.23243e+17 -2.48841e+17 1.08685e+17)
(4.48321e+17 -3.01609e+17 -3.82549e+16)
(3.66134e+17 -2.85029e+17 1.43203e+17)
(4.0187e+17 -2.47023e+17 -1.68711e+16)
(1.46631e+17 -2.00739e+17 -1.67451e+17)
(6.66517e+16 -3.41637e+17 4.42879e+17)
(2.78168e+17 -1.59586e+17 -1.19289e+17)
(3.13866e+17 -2.99047e+17 3.33738e+17)
(4.64714e+17 -2.03704e+17 -1.39401e+17)
(4.52385e+17 -3.03769e+17 2.32961e+17)
(4.90137e+17 -2.38243e+17 -1.63131e+17)
(4.09643e+17 -3.06243e+17 2.00932e+17)
(4.25933e+17 -2.39272e+17 -1.40711e+17)
(3.8028e+17 -2.99463e+17 2.34427e+17)
)
;
    }
    procBoundary23to22
    {
        type            processor;
        value           nonuniform List<vector> 
20
(
(4.28808e+17 3.0823e+17 -1.75288e+17)
(4.54035e+17 2.63911e+17 -1.84901e+17)
(1.93155e+17 5.20302e+17 -3.46359e+17)
(-1.43279e+16 -3.44901e+16 2.01893e+16)
(5.64962e+17 -2.8269e+17 -4.22072e+16)
(4.62467e+17 2.56838e+17 -2.50002e+17)
(6.84764e+17 -1.0241e+18 6.87923e+17)
(-4.09024e+17 2.29971e+17 -1.72891e+17)
(5.13806e+17 -2.26676e+17 -2.17895e+16)
(7.38391e+17 -8.31379e+17 7.74344e+17)
(4.60452e+17 -1.20453e+17 -1.93513e+17)
(7.37021e+17 -5.91423e+17 2.07751e+17)
(3.7242e+17 -1.4893e+17 1.7728e+17)
(3.87274e+17 -6.5084e+16 5.27597e+16)
(5.82705e+17 -4.52416e+17 8.00215e+17)
(3.50219e+17 -7.78916e+15 -2.56881e+17)
(2.42265e+17 -1.9853e+17 -1.66324e+17)
(1.73006e+17 -3.00391e+17 6.24612e+17)
(1.92957e+17 1.13829e+17 -9.38739e+16)
(3.88117e+17 -6.48587e+16 5.84331e+17)
)
;
    }
    procBoundary23to31
    {
        type            processor;
        value           nonuniform List<vector> 
50
(
(-4.7041e+17 -9.58925e+16 3.05404e+17)
(-4.58372e+17 2.09144e+17 1.47057e+15)
(-4.71184e+17 8.51916e+16 8.3211e+16)
(-4.52245e+17 2.60896e+17 -5.19389e+16)
(-4.58634e+17 3.82784e+16 4.89873e+16)
(-5.13633e+17 2.90877e+17 -1.04442e+17)
(-4.73609e+17 3.79943e+16 1.2722e+17)
(-5.40073e+17 3.44295e+17 -6.77516e+16)
(-5.47975e+17 1.4256e+16 1.89496e+17)
(-5.6003e+17 3.0446e+17 5.89458e+16)
(-6.85326e+17 9.9841e+16 -1.20763e+17)
(-6.24882e+17 -1.26109e+17 1.85648e+17)
(-5.90119e+17 1.28063e+17 -1.55311e+17)
(-5.61882e+17 1.27415e+15 -3.10686e+16)
(-6.57636e+17 2.46214e+17 -2.12797e+17)
(-4.06393e+17 8.51742e+16 3.18883e+17)
(-7.21261e+17 3.47698e+17 -3.0772e+17)
(-5.3466e+17 -7.77757e+16 1.33004e+17)
(-7.17306e+17 2.96551e+17 -1.75874e+17)
(-5.55408e+17 -4.39588e+16 1.61468e+17)
(7.81774e+16 -1.11305e+17 -3.57516e+17)
(-2.26829e+17 -2.65804e+16 -4.22544e+17)
(-2.58182e+17 -1.44657e+17 1.33886e+17)
(-3.58744e+17 8.63417e+16 -2.56117e+17)
(-3.2539e+17 -5.4453e+16 1.22459e+17)
(-4.04905e+17 -1.77402e+17 9.8977e+16)
(-3.38329e+17 5.82962e+16 2.72507e+17)
(-6.26007e+17 2.56529e+17 -2.35573e+17)
(-4.35659e+17 7.17477e+15 2.23219e+17)
(-5.58922e+17 2.42732e+17 -2.15529e+17)
(5.90794e+16 -6.94948e+16 -5.84814e+17)
(1.64911e+17 -1.36521e+17 1.40476e+17)
(-5.71687e+16 2.52475e+16 -3.28989e+17)
(2.16932e+16 -2.76694e+17 2.74475e+17)
(-8.41035e+16 1.83022e+17 -2.25828e+17)
(-2.05651e+16 -1.33815e+17 1.56049e+17)
(-1.29798e+17 -7.4654e+16 -9.34807e+15)
(-9.32083e+16 -8.12145e+15 2.18193e+17)
(-2.15079e+17 2.60144e+16 -9.6689e+16)
(-1.44252e+17 1.09686e+16 1.58223e+17)
(2.85279e+17 9.86297e+16 4.06872e+17)
(1.29741e+17 1.5896e+17 -3.40686e+17)
(2.7794e+17 -2.38502e+17 5.721e+17)
(1.74407e+17 3.46174e+17 -1.4751e+17)
(2.96433e+17 -1.0792e+17 4.86436e+17)
(2.70878e+17 2.45476e+17 -1.73584e+17)
(3.23373e+17 -1.76754e+17 3.93307e+17)
(3.23759e+17 1.4595e+17 -1.85543e+17)
(2.98068e+17 -9.99157e+16 2.48939e+17)
(3.159e+17 5.75891e+16 -1.71772e+17)
)
;
    }
}


// ************************************************************************* //
