/*--------------------------------*- C++ -*----------------------------------*\
| =========                 |                                                 |
| \\      /  F ield         | OpenFOAM: The Open Source CFD Toolbox           |
|  \\    /   O peration     | Version:  2.4.0                                 |
|   \\  /    A nd           | Web:      www.OpenFOAM.org                      |
|    \\/     M anipulation  |                                                 |
\*---------------------------------------------------------------------------*/
FoamFile
{
    version     2.0;
    format      ascii;
    class       surfaceScalarField;
    location    "0.01";
    object      phia;
}
// * * * * * * * * * * * * * * * * * * * * * * * * * * * * * * * * * * * * * //

dimensions      [0 3 -1 0 0 0 0];

internalField   nonuniform List<scalar> 
490
(
1.94375e-06
3.73431e-08
1.40534e-09
1.91935e-06
1.48961e-08
-2.60172e-09
1.90864e-06
4.95062e-08
-2.83991e-09
1.90065e-06
4.01177e-08
1.97611e-09
1.87354e-06
2.44283e-08
-1.0388e-09
1.79692e-06
2.72045e-08
-2.38034e-09
1.70806e-06
3.13073e-08
-8.4694e-10
1.64687e-06
2.76611e-08
-2.24281e-09
1.52542e-06
4.34351e-08
-1.46813e-09
5.51599e-08
5.75478e-09
1.94382e-06
3.72502e-08
1.38602e-09
1.91945e-06
1.51978e-08
-2.57752e-09
1.90866e-06
4.93652e-08
-2.82464e-09
1.90058e-06
4.00965e-08
1.93657e-09
1.87336e-06
2.44937e-08
-1.03395e-09
1.7969e-06
2.72114e-08
-2.36901e-09
1.70818e-06
3.12798e-08
-8.58628e-10
1.64677e-06
2.77494e-08
-2.23356e-09
1.52581e-06
4.34128e-08
-1.45338e-09
5.50404e-08
5.74281e-09
1.94388e-06
3.71588e-08
1.36715e-09
1.91954e-06
1.54908e-08
-2.55376e-09
1.90868e-06
4.9225e-08
-2.80967e-09
1.90051e-06
4.00755e-08
1.89787e-09
1.87319e-06
2.45582e-08
-1.02911e-09
1.79689e-06
2.72178e-08
-2.35789e-09
1.70831e-06
3.12524e-08
-8.70064e-10
1.64666e-06
2.7835e-08
-2.22445e-09
1.52619e-06
4.33894e-08
-1.43888e-09
5.49224e-08
5.73016e-09
1.94395e-06
1.34868e-09
1.91963e-06
-2.53043e-09
1.90869e-06
-2.79496e-09
1.90044e-06
1.85996e-09
1.87302e-06
-1.02431e-09
1.79688e-06
-2.34696e-09
1.70843e-06
-8.81262e-10
1.64657e-06
-2.21546e-09
1.52658e-06
-1.42462e-09
5.71698e-09
1.94381e-06
3.72287e-08
1.38391e-09
1.91944e-06
1.52037e-08
-2.57768e-09
1.90866e-06
4.93473e-08
-2.82348e-09
1.90057e-06
4.00777e-08
1.93549e-09
1.87334e-06
2.44862e-08
-1.03438e-09
1.79687e-06
2.72036e-08
-2.36856e-09
1.70816e-06
3.12684e-08
-8.59039e-10
1.64674e-06
2.77452e-08
-2.2333e-09
1.52578e-06
4.34007e-08
-1.45177e-09
5.50161e-08
5.74786e-09
1.94388e-06
3.71389e-08
1.36503e-09
1.91954e-06
1.54971e-08
-2.55393e-09
1.90867e-06
4.92091e-08
-2.80853e-09
1.9005e-06
4.00584e-08
1.89682e-09
1.87317e-06
2.45516e-08
-1.02954e-09
1.79686e-06
2.7211e-08
-2.35745e-09
1.70829e-06
3.12424e-08
-8.70465e-10
1.64664e-06
2.78318e-08
-2.22419e-09
1.52616e-06
4.3379e-08
-1.43733e-09
5.49004e-08
5.73531e-09
1.94394e-06
3.70502e-08
1.34658e-09
1.91963e-06
1.57821e-08
-2.53061e-09
1.90869e-06
4.90715e-08
-2.79385e-09
1.90043e-06
4.0039e-08
1.85895e-09
1.873e-06
2.46159e-08
-1.02473e-09
1.79686e-06
2.72177e-08
-2.34653e-09
1.70841e-06
3.12163e-08
-8.81652e-10
1.64654e-06
2.79157e-08
-2.21521e-09
1.52655e-06
4.33561e-08
-1.42312e-09
5.47858e-08
5.72214e-09
1.94401e-06
1.32849e-09
1.91972e-06
-2.50771e-09
1.90871e-06
-2.77941e-09
1.90036e-06
1.82184e-09
1.87283e-06
-1.01996e-09
1.79685e-06
-2.33579e-09
1.70854e-06
-8.92611e-10
1.64645e-06
-2.20634e-09
1.52692e-06
-1.40911e-09
5.70852e-09
1.94388e-06
3.71152e-08
1.36262e-09
1.91953e-06
1.55051e-08
-2.55408e-09
1.90867e-06
4.91895e-08
-2.80716e-09
1.90049e-06
4.00377e-08
1.89551e-09
1.87314e-06
2.45437e-08
-1.03004e-09
1.79683e-06
2.72027e-08
-2.35692e-09
1.70827e-06
3.12302e-08
-8.70956e-10
1.6466e-06
2.7828e-08
-2.22387e-09
1.52613e-06
4.33664e-08
-1.43544e-09
5.4874e-08
5.74089e-09
1.94394e-06
3.70283e-08
1.34418e-09
1.91963e-06
1.57903e-08
-2.53077e-09
1.90869e-06
4.90542e-08
-2.79251e-09
1.90042e-06
4.00202e-08
1.8577e-09
1.87297e-06
2.46091e-08
-1.02522e-09
1.79683e-06
2.72106e-08
-2.34602e-09
1.70839e-06
3.12055e-08
-8.82126e-10
1.64651e-06
2.7913e-08
-2.21489e-09
1.52651e-06
4.33453e-08
-1.42131e-09
5.4762e-08
5.72776e-09
1.944e-06
3.69424e-08
1.32614e-09
1.91972e-06
1.60677e-08
-2.50788e-09
1.9087e-06
4.89191e-08
-2.77812e-09
1.90035e-06
4.00024e-08
1.82064e-09
1.87281e-06
2.46734e-08
-1.02043e-09
1.79683e-06
2.72177e-08
-2.33529e-09
1.70852e-06
3.11807e-08
-8.93068e-10
1.64642e-06
2.79953e-08
-2.20604e-09
1.52689e-06
4.33229e-08
-1.40738e-09
5.46506e-08
5.7141e-09
1.94407e-06
1.30843e-09
1.91981e-06
-2.48539e-09
1.90872e-06
-2.76395e-09
1.90029e-06
1.78429e-09
1.87265e-06
-1.01568e-09
1.79683e-06
-2.32473e-09
1.70865e-06
-9.03794e-10
1.64633e-06
-2.19729e-09
1.52726e-06
-1.39363e-09
5.70005e-09
1.94394e-06
3.70026e-08
1.33952e-09
1.91962e-06
1.57998e-08
-2.52717e-09
1.90868e-06
4.90332e-08
-2.78682e-09
1.90041e-06
3.99978e-08
1.85349e-09
1.87294e-06
2.46008e-08
-1.02426e-09
1.79679e-06
2.72019e-08
-2.34192e-09
1.70837e-06
3.11925e-08
-8.81351e-10
1.64647e-06
2.79094e-08
-2.21122e-09
1.52647e-06
4.33321e-08
-1.41707e-09
5.47338e-08
5.72531e-09
1.944e-06
3.69187e-08
1.32144e-09
1.91972e-06
1.60773e-08
-2.50412e-09
1.9087e-06
4.89006e-08
-2.77227e-09
1.90034e-06
3.99821e-08
1.81641e-09
1.87278e-06
2.46662e-08
-1.01938e-09
1.79679e-06
2.72103e-08
-2.33105e-09
1.7085e-06
3.11692e-08
-8.92178e-10
1.64638e-06
2.79928e-08
-2.20222e-09
1.52685e-06
4.33117e-08
-1.40316e-09
5.46253e-08
5.71116e-09
1.94406e-06
3.68354e-08
1.30373e-09
1.91981e-06
1.63472e-08
-2.48148e-09
1.90872e-06
4.8768e-08
-2.75796e-09
1.90028e-06
3.99659e-08
1.78005e-09
1.87262e-06
2.47304e-08
-1.01454e-09
1.7968e-06
2.72178e-08
-2.32034e-09
1.70863e-06
3.11457e-08
-9.02788e-10
1.6463e-06
2.80735e-08
-2.19332e-09
1.52723e-06
4.32898e-08
-1.38941e-09
5.45171e-08
5.69657e-09
1.94413e-06
1.28631e-09
1.9199e-06
-2.45922e-09
1.90874e-06
-2.74385e-09
1.90021e-06
1.74436e-09
1.87246e-06
-1.00974e-09
1.7968e-06
-2.30979e-09
1.70876e-06
-9.13192e-10
1.64622e-06
-2.18453e-09
1.5276e-06
-1.37582e-09
5.68164e-09
1.944e-06
3.68908e-08
1.91971e-06
1.60886e-08
1.9087e-06
4.8878e-08
1.90033e-06
3.99578e-08
1.87275e-06
2.46576e-08
1.79675e-06
2.72013e-08
1.70847e-06
3.11554e-08
1.64634e-06
2.79896e-08
1.52681e-06
4.32978e-08
5.45951e-08
1.94406e-06
3.68098e-08
1.91981e-06
1.63585e-08
1.90871e-06
4.87481e-08
1.90027e-06
3.9944e-08
1.87259e-06
2.4723e-08
1.79676e-06
2.72101e-08
1.7086e-06
3.11335e-08
1.64626e-06
2.80714e-08
1.52718e-06
4.32781e-08
5.44902e-08
1.94412e-06
3.67291e-08
1.9199e-06
1.66212e-08
1.90873e-06
4.8618e-08
1.9002e-06
3.99293e-08
1.87243e-06
2.47872e-08
1.79677e-06
2.7218e-08
1.70873e-06
3.11112e-08
1.64618e-06
2.81506e-08
1.52755e-06
4.32567e-08
5.43851e-08
1.94418e-06
1.91999e-06
1.90875e-06
1.90014e-06
1.87228e-06
1.79678e-06
1.70887e-06
1.6461e-06
1.52792e-06
)
;

boundaryField
{
    inlet
    {
        type            calculated;
        value           nonuniform 0();
    }
    outlet
    {
        type            calculated;
        value           nonuniform 0();
    }
    bottom
    {
        type            calculated;
        value           uniform 0;
    }
    top
    {
        type            symmetryPlane;
        value           uniform 0;
    }
    side1
    {
        type            symmetryPlane;
        value           nonuniform 0();
    }
    side2
    {
        type            symmetryPlane;
        value           nonuniform 0();
    }
    procBoundary17to9
    {
        type            processor;
        value           nonuniform List<scalar> 
50
(
-3.74321e-08
-1.45908e-08
-4.96466e-08
-4.01363e-08
-2.4362e-08
-2.71972e-08
-3.13344e-08
-2.75721e-08
-4.3457e-08
-5.52762e-08
-3.7313e-08
-1.49089e-08
-4.94843e-08
-4.00932e-08
-2.442e-08
-2.71959e-08
-3.12937e-08
-2.76587e-08
-4.34221e-08
-5.51273e-08
-3.71947e-08
-1.52205e-08
-4.93231e-08
-4.00502e-08
-2.44775e-08
-2.71946e-08
-3.12536e-08
-2.7744e-08
-4.33872e-08
-5.49802e-08
-3.70775e-08
-1.55253e-08
-4.91633e-08
-4.00073e-08
-2.45347e-08
-2.71935e-08
-3.12142e-08
-2.78279e-08
-4.33525e-08
-5.4835e-08
-3.6961e-08
-1.58238e-08
-4.90048e-08
-3.99643e-08
-2.45915e-08
-2.71924e-08
-3.11753e-08
-2.79104e-08
-4.33178e-08
-5.46916e-08
)
;
    }
    procBoundary17to16
    {
        type            processor;
        value           nonuniform List<scalar> 
20
(
-1.97208e-06
-1.97204e-06
-1.97201e-06
-1.97197e-06
-1.97203e-06
-1.972e-06
-1.97196e-06
-1.97193e-06
-1.97199e-06
-1.97196e-06
-1.97192e-06
-1.97189e-06
-1.97195e-06
-1.97191e-06
-1.97188e-06
-1.97185e-06
-1.9719e-06
-1.97187e-06
-1.97184e-06
-1.97181e-06
)
;
    }
    procBoundary17to18
    {
        type            processor;
        value           nonuniform List<scalar> 
20
(
1.41059e-06
1.41089e-06
1.41119e-06
1.41149e-06
1.41086e-06
1.41116e-06
1.41147e-06
1.41177e-06
1.41113e-06
1.41143e-06
1.41173e-06
1.41203e-06
1.4114e-06
1.4117e-06
1.412e-06
1.4123e-06
1.41166e-06
1.41196e-06
1.41226e-06
1.41256e-06
)
;
    }
    procBoundary17to25
    {
        type            processor;
        value           nonuniform List<scalar> 
50
(
3.70998e-08
1.57399e-08
4.90929e-08
4.00717e-08
2.46195e-08
2.72204e-08
3.12287e-08
2.79025e-08
4.33591e-08
5.4828e-08
3.69965e-08
1.602e-08
4.89425e-08
4.00385e-08
2.46769e-08
2.72203e-08
3.1194e-08
2.79798e-08
4.33255e-08
5.46959e-08
3.6894e-08
1.62947e-08
4.87931e-08
4.00053e-08
2.4734e-08
2.72203e-08
3.11599e-08
2.8056e-08
4.32919e-08
5.45652e-08
3.67922e-08
1.65636e-08
4.8645e-08
3.99722e-08
2.47908e-08
2.72203e-08
3.11264e-08
2.81309e-08
4.32584e-08
5.44361e-08
3.66911e-08
1.68272e-08
4.8498e-08
3.9939e-08
2.48473e-08
2.72205e-08
3.10933e-08
2.82047e-08
4.3225e-08
5.43083e-08
)
;
    }
}


// ************************************************************************* //
