/*--------------------------------*- C++ -*----------------------------------*\
| =========                 |                                                 |
| \\      /  F ield         | OpenFOAM: The Open Source CFD Toolbox           |
|  \\    /   O peration     | Version:  2.4.0                                 |
|   \\  /    A nd           | Web:      www.OpenFOAM.org                      |
|    \\/     M anipulation  |                                                 |
\*---------------------------------------------------------------------------*/
FoamFile
{
    version     2.0;
    format      ascii;
    class       volVectorField;
    location    "0.01";
    object      Uc;
}
// * * * * * * * * * * * * * * * * * * * * * * * * * * * * * * * * * * * * * //

dimensions      [0 1 -1 0 0 0 0];

internalField   nonuniform List<vector> 
200
(
(9.23747e-24 1.26627e-25 6.34579e-28)
(1.17672e-23 3.44761e-25 -2.20148e-26)
(1.14022e-23 2.14237e-25 2.38834e-27)
(1.1318e-23 2.36973e-25 1.27012e-25)
(8.84899e-24 5.13627e-25 7.04184e-27)
(1.0867e-23 4.55361e-25 1.0412e-26)
(1.11098e-23 2.97663e-25 -7.67734e-27)
(1.25836e-23 4.57488e-25 5.10853e-26)
(1.0033e-23 3.75596e-25 4.30681e-26)
(1.14015e-23 5.62599e-25 2.98567e-26)
(1.53003e-26 2.10942e-28 1.01755e-30)
(1.94453e-26 5.68041e-28 -3.6106e-29)
(1.88635e-26 3.55482e-28 4.55604e-30)
(1.87076e-26 3.93619e-28 2.0849e-28)
(1.46679e-26 8.4746e-28 1.25001e-29)
(1.79639e-26 7.52771e-28 1.70919e-29)
(1.83854e-26 4.94549e-28 -1.22085e-29)
(2.07898e-26 7.55258e-28 8.40477e-29)
(1.66226e-26 6.23101e-28 7.12136e-29)
(1.88184e-26 9.28828e-28 4.97655e-29)
(2.4433e-29 3.38708e-31 1.57432e-33)
(3.09843e-29 9.02484e-31 -5.71001e-32)
(3.00912e-29 5.68715e-31 8.19809e-33)
(2.98169e-29 6.30336e-31 3.30027e-31)
(2.34426e-29 1.34827e-30 2.12736e-32)
(2.86339e-29 1.19993e-30 2.70653e-32)
(2.9337e-29 7.92184e-31 -1.87083e-32)
(3.31202e-29 1.20228e-30 1.3334e-31)
(2.65545e-29 9.96637e-31 1.13543e-31)
(2.99507e-29 1.47861e-30 7.99675e-32)
(3.7829e-32 5.27184e-34 2.36393e-36)
(4.78729e-32 1.39037e-33 -8.75614e-35)
(4.65445e-32 8.82185e-34 1.40706e-35)
(4.60823e-32 9.7865e-34 5.06599e-34)
(3.63284e-32 2.07996e-33 3.4934e-35)
(4.42571e-32 1.85467e-33 4.15745e-35)
(4.53906e-32 1.2303e-33 -2.77793e-35)
(5.11637e-32 1.85584e-33 2.05131e-34)
(4.11316e-32 1.54558e-33 1.75543e-34)
(4.6224e-32 2.28239e-33 1.24579e-34)
(5.36825e-26 7.40158e-28 3.5803e-30)
(6.8182e-26 1.99085e-27 -1.2656e-28)
(6.61411e-26 1.24601e-27 1.61733e-29)
(6.55907e-26 1.38009e-27 7.30851e-28)
(5.1433e-26 2.97033e-27 4.38251e-29)
(6.29873e-26 2.63826e-27 5.99009e-29)
(6.44671e-26 1.73366e-27 -4.27156e-29)
(7.28915e-26 2.64711e-27 2.94689e-28)
(5.82866e-26 2.18433e-27 2.49681e-28)
(6.59836e-26 3.25608e-27 1.74652e-28)
(9.52288e-29 1.32027e-30 6.15567e-33)
(1.20686e-28 3.51381e-30 -2.22336e-31)
(1.17205e-28 2.2145e-30 3.22802e-32)
(1.1613e-28 2.45516e-30 1.28514e-30)
(9.13142e-29 5.24977e-30 8.28512e-32)
(1.1153e-28 4.67183e-30 1.05369e-31)
(1.14271e-28 3.08501e-30 -7.27092e-32)
(1.28996e-28 4.68122e-30 5.19346e-31)
(1.03434e-28 3.88125e-30 4.42221e-31)
(1.16659e-28 5.75829e-30 3.11756e-31)
(1.62147e-31 2.25996e-33 1.01674e-35)
(2.05069e-31 5.9536e-33 -3.74957e-34)
(1.99374e-31 3.77789e-33 6.08561e-35)
(1.97383e-31 4.1922e-33 2.16951e-33)
(1.55622e-31 8.90692e-33 1.4962e-34)
(1.89578e-31 7.94158e-33 1.78001e-34)
(1.94438e-31 5.26926e-33 -1.18727e-34)
(2.19149e-31 7.94703e-33 8.78663e-34)
(1.76195e-31 6.61965e-33 7.51889e-34)
(1.98003e-31 9.77552e-33 5.3411e-34)
(2.66641e-34 3.73533e-36 1.62364e-38)
(3.36562e-34 9.74344e-36 -6.10761e-37)
(3.27573e-34 6.22463e-36 1.09433e-37)
(3.24043e-34 6.91303e-36 3.53771e-36)
(2.56157e-34 1.45961e-35 2.59862e-37)
(3.11249e-34 1.30391e-35 2.90552e-37)
(3.1955e-34 8.69191e-36 -1.87107e-37)
(3.59611e-34 1.3031e-35 1.4359e-36)
(2.89887e-34 1.09038e-35 1.23479e-36)
(3.24612e-34 1.6029e-35 8.83699e-37)
(1.6742e-28 2.32141e-30 1.08516e-32)
(2.12023e-28 6.17002e-30 -3.90448e-31)
(2.05903e-28 3.88906e-30 5.74483e-32)
(2.04001e-28 4.3132e-30 2.25703e-30)
(1.60431e-28 9.21894e-30 1.45558e-31)
(1.95936e-28 8.20338e-30 1.85005e-31)
(2.00759e-28 5.41858e-30 -1.2739e-31)
(2.26604e-28 8.22035e-30 9.12341e-31)
(1.81721e-28 6.81719e-30 7.76832e-31)
(2.04944e-28 1.01138e-29 5.48253e-31)
(3.16709e-31 4.41486e-33 1.99199e-35)
(4.00261e-31 1.16152e-32 -7.31556e-34)
(3.89136e-31 7.37146e-33 1.20145e-34)
(3.85224e-31 8.18264e-33 4.23316e-33)
(3.03763e-31 1.73782e-32 2.92032e-34)
(3.7002e-31 1.54935e-32 3.47227e-34)
(3.7952e-31 1.02828e-32 -2.31093e-34)
(4.27707e-31 1.5505e-32 1.7149e-33)
(3.43913e-31 1.29181e-32 1.46742e-33)
(3.86459e-31 1.90765e-32 1.04352e-33)
(5.72828e-34 8.02602e-36 3.49946e-38)
(7.22539e-34 2.09089e-35 -1.31067e-36)
(7.03222e-34 1.33593e-35 2.37335e-37)
(6.95599e-34 1.48417e-35 7.59243e-36)
(5.49948e-34 3.13244e-35 5.57856e-37)
(6.68186e-34 2.79807e-35 6.23402e-37)
(6.86028e-34 1.86571e-35 -4.00558e-37)
(7.71953e-34 2.7965e-35 3.08244e-36)
(6.2235e-34 2.3405e-35 2.65059e-36)
(6.96862e-34 3.44059e-35 1.89895e-36)
(9.97173e-37 1.40404e-38 5.92376e-41)
(1.25545e-36 3.62293e-38 -2.26022e-39)
(1.2232e-36 2.33025e-38 4.46871e-40)
(1.20901e-36 2.59082e-38 1.31082e-38)
(9.58317e-37 5.43473e-38 1.02188e-39)
(1.16142e-36 4.86386e-38 1.07773e-39)
(1.1936e-36 3.25796e-38 -6.677e-40)
(1.3411e-36 4.85491e-38 5.33316e-39)
(1.08398e-36 4.08128e-38 4.60845e-39)
(1.20955e-36 5.97287e-38 3.32571e-39)
(3.71448e-31 5.17873e-33 2.34241e-35)
(4.69065e-31 1.36044e-32 -8.56904e-34)
(4.56019e-31 8.6353e-33 1.42676e-34)
(4.51398e-31 9.58937e-33 4.95897e-33)
(3.56003e-31 2.03562e-32 3.42245e-34)
(4.33623e-31 1.81468e-32 4.06638e-34)
(4.44773e-31 1.20477e-32 -2.69931e-34)
(5.01182e-31 1.81616e-32 2.00955e-33)
(4.03048e-31 1.51355e-32 1.71949e-33)
(4.52873e-31 2.23498e-32 1.22427e-33)
(7.46417e-34 1.04602e-35 4.57331e-38)
(9.40763e-34 2.72105e-35 -1.70571e-36)
(9.15588e-34 1.73883e-35 3.12666e-37)
(9.05593e-34 1.93252e-35 9.88186e-36)
(7.16086e-34 4.07685e-35 7.26346e-37)
(8.69982e-34 3.64134e-35 8.11145e-37)
(8.93248e-34 2.42875e-35 -5.19812e-37)
(1.005e-33 3.63954e-35 4.01312e-36)
(8.1034e-34 3.04685e-35 3.45075e-36)
(9.07291e-34 4.47876e-35 2.47512e-36)
(1.42916e-36 2.0127e-38 8.51646e-41)
(1.79797e-36 5.18623e-38 -3.23545e-39)
(1.75173e-36 3.33624e-38 6.46727e-40)
(1.73129e-36 3.71066e-38 1.87659e-38)
(1.37251e-36 7.78041e-38 1.46344e-39)
(1.66329e-36 6.96254e-38 1.54244e-39)
(1.70943e-36 4.66512e-38 -9.53059e-40)
(1.92045e-36 6.95016e-38 7.63725e-39)
(1.55245e-36 5.84407e-38 6.59914e-39)
(1.73217e-36 8.55244e-38 4.76772e-39)
(2.62559e-39 3.71523e-41 1.52359e-43)
(3.29735e-39 9.48527e-41 -5.88892e-42)
(3.21596e-39 6.14191e-41 1.27367e-42)
(3.17607e-39 6.83606e-41 3.41985e-41)
(2.52422e-39 1.4248e-40 2.81993e-42)
(3.05145e-39 1.27746e-40 2.81552e-42)
(3.13908e-39 8.59755e-41 -1.67513e-42)
(3.52148e-39 1.27358e-40 1.39472e-41)
(2.85386e-39 1.07552e-40 1.211e-41)
(3.17341e-39 1.5671e-40 8.81158e-42)
(6.57791e-34 9.22004e-36 4.0285e-38)
(8.2833e-34 2.39443e-35 -1.49657e-36)
(8.06146e-34 1.53041e-35 2.78168e-37)
(7.97273e-34 1.70164e-35 8.67126e-36)
(6.30554e-34 3.58785e-35 6.37597e-37)
(7.66002e-34 3.20425e-35 7.11534e-37)
(7.86523e-34 2.13801e-35 -4.54587e-37)
(8.848e-34 3.2029e-35 3.5227e-36)
(7.13529e-34 2.68214e-35 3.02892e-36)
(7.98812e-34 3.94235e-35 2.17541e-36)
(1.3994e-36 1.97124e-38 8.3363e-41)
(1.75903e-36 5.07121e-38 -3.15374e-39)
(1.71375e-36 3.26285e-38 6.3825e-40)
(1.69359e-36 3.63059e-38 1.82942e-38)
(1.34287e-36 7.60857e-38 1.42711e-39)
(1.62724e-36 6.8081e-38 1.50318e-39)
(1.67246e-36 4.56327e-38 -9.25951e-40)
(1.87866e-36 6.79648e-38 7.44777e-39)
(1.51889e-36 5.71651e-38 6.43507e-39)
(1.69454e-36 8.36522e-38 4.65503e-39)
(2.82798e-39 4.00259e-41 1.64047e-43)
(3.54863e-39 1.02032e-40 -6.31346e-42)
(3.46092e-39 6.60791e-41 1.38074e-42)
(3.41771e-39 7.35775e-41 3.66681e-41)
(2.71675e-39 1.53278e-40 3.02443e-42)
(3.28393e-39 1.37414e-40 3.01787e-42)
(3.37838e-39 9.25138e-41 -1.79e-42)
(3.78943e-39 1.37006e-40 1.49592e-41)
(3.07143e-39 1.15732e-40 1.29879e-41)
(3.41502e-39 1.68619e-40 9.46173e-42)
(5.46841e-42 7.77528e-44 3.09297e-46)
(6.85053e-42 1.96445e-43 -1.20942e-44)
(6.6882e-42 1.28049e-43 2.84042e-45)
(6.59999e-42 1.42672e-43 7.03338e-44)
(5.25926e-42 2.9548e-43 6.11532e-45)
(6.34184e-42 2.654e-43 5.79997e-45)
(6.53026e-42 1.7946e-43 -3.30768e-45)
(7.31448e-42 2.64283e-43 2.8753e-44)
(5.94319e-42 2.24188e-43 2.50846e-44)
(6.58607e-42 3.25243e-43 1.84015e-44)
)
;

boundaryField
{
    inlet
    {
        type            calculated;
        value           nonuniform 0();
    }
    outlet
    {
        type            calculated;
        value           nonuniform 0();
    }
    bottom
    {
        type            calculated;
        value           uniform (0 0 0);
    }
    top
    {
        type            symmetryPlane;
    }
    side1
    {
        type            symmetryPlane;
    }
    side2
    {
        type            symmetryPlane;
    }
    procBoundary17to9
    {
        type            processor;
        value           nonuniform List<vector> 
50
(
(5.3435e-21 7.28403e-23 3.82092e-25)
(6.81798e-21 2.0033e-22 -1.28484e-23)
(6.59884e-21 1.23613e-22 1.18151e-24)
(6.55581e-21 1.36616e-22 7.40721e-23)
(5.1115e-21 2.98045e-22 3.77342e-24)
(6.29426e-21 2.63711e-22 6.07271e-24)
(6.42786e-21 1.71539e-22 -4.6111e-24)
(7.29234e-21 2.6532e-22 2.97295e-23)
(5.79801e-21 2.16774e-22 2.49365e-23)
(6.61499e-21 3.2636e-22 1.71705e-23)
(2.88549e-23 3.95757e-25 2.00276e-27)
(3.66963e-23 1.07446e-24 -6.86062e-26)
(3.55575e-23 6.67858e-25 7.68931e-27)
(3.52904e-23 7.39225e-25 3.9586e-25)
(2.75994e-23 1.60098e-24 2.19623e-26)
(3.38892e-23 1.41915e-24 3.24347e-26)
(3.46488e-23 9.28177e-25 -2.38294e-26)
(3.9237e-23 1.42594e-24 1.59296e-25)
(3.12908e-23 1.17118e-24 1.34285e-25)
(3.55597e-23 1.75455e-24 9.33481e-26)
(8.40372e-26 1.15951e-27 5.66655e-30)
(1.0653e-25 3.10834e-27 -1.97568e-28)
(1.0334e-25 1.94608e-27 2.61333e-29)
(1.02463e-25 2.15724e-27 1.14107e-27)
(8.03739e-26 4.63847e-27 6.84895e-29)
(9.84146e-26 4.11915e-27 9.34657e-29)
(1.00735e-25 2.7086e-27 -6.63342e-29)
(1.1387e-25 4.13352e-27 4.60377e-28)
(9.10784e-26 3.41268e-27 3.90025e-28)
(1.03104e-25 5.08764e-27 2.73692e-28)
(1.74887e-28 2.42706e-30 1.14671e-32)
(2.20993e-28 6.42588e-30 -4.06526e-31)
(2.14611e-28 4.05201e-30 6.20064e-32)
(2.12588e-28 4.49821e-30 2.35046e-30)
(1.67251e-28 9.60337e-30 1.51751e-31)
(2.04228e-28 8.54361e-30 1.92526e-31)
(2.09276e-28 5.64777e-30 -1.31776e-31)
(2.36145e-28 8.56263e-30 9.50802e-31)
(1.89432e-28 7.10548e-30 8.0949e-31)
(2.13626e-28 1.05421e-29 5.73358e-31)
(2.91611e-31 4.06984e-33 1.85597e-35)
(3.67338e-31 1.06445e-32 -6.68319e-34)
(3.57114e-31 6.75986e-33 1.1549e-34)
(3.53417e-31 7.51499e-33 3.86865e-33)
(2.7886e-31 1.59314e-32 2.67296e-34)
(3.39588e-31 1.41988e-32 3.16972e-34)
(3.48359e-31 9.43527e-33 -2.08876e-34)
(3.92402e-31 1.42129e-32 1.56905e-33)
(3.15683e-31 1.18534e-32 1.34239e-33)
(3.54667e-31 1.75034e-32 9.59592e-34)
)
;
    }
    procBoundary17to16
    {
        type            processor;
        value           nonuniform List<vector> 
20
(
(1.16796e-23 1.67609e-25 1.90792e-26)
(1.92824e-26 2.76267e-28 3.1589e-29)
(3.06963e-29 4.39097e-31 5.04289e-32)
(4.73845e-32 6.76743e-34 7.80583e-35)
(6.76169e-26 9.68415e-28 1.10733e-28)
(1.19575e-28 1.7099e-30 1.96371e-31)
(2.02994e-31 2.89829e-33 3.34282e-34)
(3.32855e-34 4.74513e-36 5.49599e-37)
(2.10088e-28 3.00302e-30 3.44881e-31)
(3.96243e-31 5.65543e-33 6.52259e-34)
(7.14637e-34 1.01845e-35 1.17953e-36)
(1.24061e-36 1.76539e-38 2.05301e-39)
(4.64393e-31 6.62529e-33 7.64108e-34)
(9.30543e-34 1.32564e-35 1.53523e-36)
(1.77685e-36 2.52761e-38 2.93917e-39)
(3.25573e-39 4.62468e-41 5.3992e-42)
(8.19391e-34 1.16677e-35 1.34716e-36)
(1.73848e-36 2.47205e-38 2.86531e-39)
(3.50406e-39 4.97565e-41 5.78914e-42)
(6.75859e-42 9.58356e-44 1.1192e-44)
)
;
    }
    procBoundary17to18
    {
        type            processor;
        value           nonuniform List<vector> 
20
(
(6.70644e-24 4.97832e-25 8.07624e-26)
(1.11313e-26 8.23508e-28 1.34236e-28)
(1.78115e-29 1.31338e-30 2.15084e-31)
(2.76309e-32 2.03094e-33 3.34096e-34)
(3.90644e-26 2.88797e-27 4.71011e-28)
(6.94374e-29 5.11676e-30 8.38345e-31)
(1.18462e-31 8.70179e-33 1.43209e-33)
(1.95172e-34 1.42925e-35 2.36241e-36)
(1.22109e-28 8.99099e-30 1.47404e-30)
(2.31443e-31 1.69885e-32 2.79744e-33)
(4.19399e-34 3.06915e-35 5.07555e-36)
(7.31419e-37 5.33663e-38 8.86224e-39)
(2.71526e-31 1.99135e-32 3.2814e-33)
(5.46649e-34 3.99719e-35 6.61439e-36)
(1.04857e-36 7.64501e-38 1.27028e-38)
(1.9298e-39 1.40297e-40 2.34052e-41)
(4.81898e-34 3.52043e-35 5.81255e-36)
(1.02705e-36 7.4817e-38 1.24006e-38)
(2.07918e-39 1.51037e-40 2.51286e-41)
(4.02737e-42 2.91754e-43 4.87196e-44)
)
;
    }
    procBoundary17to25
    {
        type            processor;
        value           nonuniform List<vector> 
50
(
(5.61839e-35 7.85034e-37 3.29741e-39)
(7.12674e-35 2.06523e-36 -1.29638e-37)
(6.93667e-35 1.31817e-36 2.17045e-38)
(6.86474e-35 1.46099e-36 7.50554e-37)
(5.42191e-35 3.09233e-36 5.49888e-38)
(6.59061e-35 2.76369e-36 6.1737e-38)
(6.76495e-35 1.83917e-36 -4.03162e-38)
(7.618e-35 2.76108e-36 3.04157e-37)
(6.13688e-35 2.3073e-36 2.6162e-37)
(6.8727e-35 3.39097e-36 1.85742e-37)
(4.18659e-37 5.87796e-39 2.39447e-41)
(5.29917e-37 1.5309e-38 -9.56644e-40)
(5.1633e-37 9.83649e-39 1.7638e-40)
(5.10575e-37 1.09118e-38 5.54491e-39)
(4.04314e-37 2.29526e-38 4.31059e-40)
(4.9022e-37 2.05519e-38 4.56659e-40)
(5.03684e-37 1.37402e-38 -2.87643e-40)
(5.6634e-37 2.05065e-38 2.25195e-39)
(4.57421e-37 1.72133e-38 1.94646e-39)
(5.10507e-37 2.51875e-38 1.39269e-39)
(1.65042e-39 2.32809e-41 9.21044e-44)
(2.08461e-39 6.00386e-41 -3.73456e-42)
(2.03328e-39 3.8832e-41 7.51957e-43)
(2.00908e-39 4.31135e-41 2.16727e-41)
(1.59504e-39 9.01322e-41 1.78195e-42)
(1.92911e-39 8.08564e-41 1.78759e-42)
(1.98401e-39 5.43047e-41 -1.08431e-42)
(2.22749e-39 8.05772e-41 8.82118e-42)
(1.80372e-39 6.79363e-41 7.66154e-42)
(2.00624e-39 9.89809e-41 5.52414e-42)
(4.56855e-42 6.47397e-44 2.49102e-46)
(5.7585e-42 1.65345e-43 -1.0237e-44)
(5.62246e-42 1.07643e-43 2.23507e-45)
(5.55136e-42 1.1961e-43 5.9485e-44)
(4.4185e-42 2.48541e-43 5.15736e-45)
(5.33078e-42 2.23378e-43 4.91518e-45)
(5.48765e-42 1.50701e-43 -2.86635e-45)
(6.15208e-42 2.22335e-43 2.42645e-44)
(4.99429e-42 1.8827e-43 2.11762e-44)
(5.53657e-42 2.73142e-43 1.53852e-44)
(9.97961e-45 1.42052e-46 5.30458e-49)
(1.25533e-44 3.59357e-46 -2.20631e-47)
(1.22692e-44 2.35464e-46 5.1913e-48)
(1.21052e-44 2.61856e-46 1.28381e-46)
(9.65897e-45 5.4086e-46 1.17042e-47)
(1.16249e-44 4.87e-46 1.06298e-47)
(1.19781e-44 3.30014e-46 -5.94963e-48)
(1.3409e-44 4.84145e-46 5.24822e-47)
(1.09126e-44 4.11721e-46 4.60208e-47)
(1.20579e-44 5.94837e-46 3.36883e-47)
)
;
    }
}


// ************************************************************************* //
