/*--------------------------------*- C++ -*----------------------------------*\
| =========                 |                                                 |
| \\      /  F ield         | OpenFOAM: The Open Source CFD Toolbox           |
|  \\    /   O peration     | Version:  2.4.0                                 |
|   \\  /    A nd           | Web:      www.OpenFOAM.org                      |
|    \\/     M anipulation  |                                                 |
\*---------------------------------------------------------------------------*/
FoamFile
{
    version     2.0;
    format      ascii;
    class       volVectorField;
    location    "0.01";
    object      gradp;
}
// * * * * * * * * * * * * * * * * * * * * * * * * * * * * * * * * * * * * * //

dimensions      [1 -2 -2 0 0 0 0];

internalField   nonuniform List<vector> 
40
(
(1.49535e+17 -5.42491e+17 1.02862e+17)
(1.17002e+17 -5.05426e+17 1.11497e+17)
(1.44496e+17 -4.79859e+17 1.13086e+17)
(2.06293e+17 -4.54052e+17 9.89806e+16)
(2.15764e+17 -4.17539e+17 7.6555e+16)
(3.04561e+17 -4.3447e+17 6.10684e+16)
(2.01427e+17 -3.6076e+17 7.07121e+16)
(1.76711e+17 -3.28617e+17 9.1291e+16)
(2.07203e+17 -3.11568e+17 9.70051e+16)
(2.88027e+17 -3.18654e+17 9.71198e+16)
(4.73471e+17 -3.5772e+17 -1.52063e+15)
(3.28709e+17 -2.73467e+17 2.67188e+15)
(2.4288e+17 -2.29801e+17 2.09861e+16)
(2.26218e+17 -2.07915e+17 4.37125e+16)
(2.32889e+17 -1.88657e+17 5.50705e+16)
(5.48506e+17 -3.10303e+17 -6.33006e+14)
(4.57264e+17 -2.1913e+17 -6.61114e+15)
(3.07813e+17 -1.43925e+17 -2.49782e+15)
(2.89492e+17 -1.14233e+17 1.56318e+15)
(2.80403e+17 -9.34453e+16 6.35214e+15)
(1.81219e+17 -6.09741e+17 2.22057e+17)
(1.49719e+17 -5.48459e+17 2.11476e+17)
(1.04443e+17 -4.71041e+17 2.0548e+17)
(8.93933e+16 -4.17332e+17 1.87869e+17)
(9.38308e+16 -3.66501e+17 1.51524e+17)
(3.69522e+17 -6.01483e+17 9.79722e+16)
(2.98139e+17 -5.3488e+17 1.26488e+17)
(2.60849e+17 -4.75977e+17 1.56571e+17)
(2.25856e+17 -3.99997e+17 1.73688e+17)
(1.96761e+17 -3.5303e+17 1.65385e+17)
(4.4763e+17 -4.56442e+17 5.73746e+16)
(4.00731e+17 -3.97184e+17 4.73264e+16)
(3.7421e+17 -3.79863e+17 6.48211e+16)
(3.35288e+17 -3.60623e+17 8.67879e+16)
(2.92059e+17 -3.33885e+17 1.04073e+17)
(5.48158e+17 -3.25724e+17 3.45931e+16)
(4.51296e+17 -2.83109e+17 1.95124e+16)
(3.33971e+17 -1.94815e+17 2.87565e+16)
(3.17812e+17 -1.83115e+17 4.81675e+16)
(3.27521e+17 -2.0292e+17 4.50224e+16)
)
;

boundaryField
{
    inlet
    {
        type            zeroGradient;
    }
    outlet
    {
        type            zeroGradient;
    }
    bottom
    {
        type            zeroGradient;
    }
    top
    {
        type            symmetryPlane;
    }
    side1
    {
        type            symmetryPlane;
    }
    side2
    {
        type            symmetryPlane;
    }
    procBoundary44to28
    {
        type            processor;
        value           nonuniform List<vector> 10((8.65391e+16 -5.77338e+17 1.03099e+17) (7.61633e+16 -5.33983e+17 9.76079e+16) (7.39635e+16 -4.9048e+17 8.57796e+16) (8.25633e+16 -4.49128e+17 7.4055e+16) (1.16676e+17 -4.05649e+17 6.52208e+16) (4.07549e+16 -5.61533e+17 2.16731e+17) (2.07398e+16 -4.9974e+17 1.95266e+17) (-1.40556e+15 -4.53405e+17 1.79356e+17) (1.67751e+16 -4.26734e+17 1.59455e+17) (5.51116e+16 -3.93691e+17 1.41689e+17));
    }
    procBoundary44to43
    {
        type            processor;
        value           nonuniform List<vector> 8((2.49967e+17 -6.14437e+17 1.01596e+17) (4.54365e+17 -5.22728e+17 5.04115e+16) (5.65267e+17 -3.95439e+17 1.07473e+16) (5.78952e+17 -3.55716e+17 -6.50242e+15) (2.83875e+17 -7.12843e+17 2.20831e+17) (3.99652e+17 -6.68085e+17 7.52269e+16) (4.82254e+17 -4.86501e+17 7.17397e+16) (5.92721e+17 -3.58977e+17 2.49414e+16));
    }
    procBoundary44to45
    {
        type            processor;
        value           nonuniform List<vector> 8((2.41155e+17 -3.68377e+17 6.08764e+16) (2.87062e+17 -3.03005e+17 6.84845e+16) (2.90903e+17 -2.11727e+17 6.22031e+16) (2.74451e+17 -9.41821e+16 1.62876e+16) (1.60466e+17 -3.46507e+17 1.27261e+17) (1.64782e+17 -3.00883e+17 1.3005e+17) (2.68882e+17 -2.95242e+17 1.19749e+17) (3.20153e+17 -2.34487e+17 5.08791e+16));
    }
    procBoundary44to60
    {
        type            processor;
        value           nonuniform List<vector> 10((7.46643e+17 -3.18415e+17 -1.11586e+16) (6.61465e+17 -1.99899e+17 -3.73152e+16) (4.52674e+17 -8.37377e+16 -1.08198e+16) (3.27178e+17 -3.89452e+16 6.61059e+14) (2.7299e+17 -4.45914e+16 -1.33513e+16) (5.99364e+17 -2.58441e+17 -1.81578e+15) (6.62549e+17 -2.34087e+17 1.1124e+16) (5.74198e+17 -1.33899e+17 2.79126e+16) (3.19077e+17 -4.65552e+16 1.90608e+16) (1.89315e+17 -6.31709e+16 2.28104e+15));
    }
    procBoundary44to108
    {
        type            processor;
        value           nonuniform List<vector> 
20
(
(1.19599e+17 -7.32505e+17 1.42812e+17)
(6.39559e+16 -6.15472e+17 1.23519e+17)
(6.89527e+16 -5.16316e+17 1.12305e+17)
(3.36351e+16 -4.3128e+17 1.00751e+17)
(2.18189e+16 -3.79627e+17 9.54647e+16)
(4.68595e+17 -6.97962e+17 1.12402e+17)
(3.88941e+17 -6.23399e+17 1.05597e+17)
(3.27752e+17 -5.53671e+17 9.85844e+16)
(2.35408e+17 -4.73297e+17 9.29373e+16)
(1.48386e+17 -3.94577e+17 7.5146e+16)
(3.95348e+17 -4.59126e+17 1.09816e+17)
(3.52538e+17 -4.44627e+17 1.10729e+17)
(3.69157e+17 -4.34304e+17 1.15813e+17)
(3.51824e+17 -4.08748e+17 1.16661e+17)
(3.38365e+17 -3.81236e+17 1.01372e+17)
(5.31133e+17 -4.05008e+17 5.38233e+16)
(4.38587e+17 -2.77054e+17 4.2116e+16)
(3.9951e+17 -2.02979e+17 7.2354e+16)
(3.41543e+17 -2.22596e+17 1.04625e+17)
(2.8908e+17 -2.56312e+17 1.0449e+17)
)
;
    }
}


// ************************************************************************* //
