/*--------------------------------*- C++ -*----------------------------------*\
| =========                 |                                                 |
| \\      /  F ield         | OpenFOAM: The Open Source CFD Toolbox           |
|  \\    /   O peration     | Version:  2.4.0                                 |
|   \\  /    A nd           | Web:      www.OpenFOAM.org                      |
|    \\/     M anipulation  |                                                 |
\*---------------------------------------------------------------------------*/
FoamFile
{
    version     2.0;
    format      ascii;
    class       volVectorField;
    location    "0.03";
    object      Ua;
}
// * * * * * * * * * * * * * * * * * * * * * * * * * * * * * * * * * * * * * //

dimensions      [0 1 -1 0 0 0 0];

internalField   nonuniform List<vector> 
200
(
(-1.02582e-26 -1.93406e-27 6.20956e-28)
(-4.26873e-23 -8.0567e-24 2.58439e-24)
(-2.82639e-19 -5.34008e-20 1.71144e-20)
(-2.23296e-15 -4.22332e-16 1.35232e-16)
(-1.85721e-11 -3.51634e-12 1.12495e-12)
(-1.48904e-07 -2.82224e-08 9.02086e-09)
(-0.00105176 -0.000199555 6.3728e-05)
(-5.25118 -0.997381 0.318231)
(-61.6433 -11.7205 3.7363)
(-61.8248 -11.7426 3.74669)
(-8.43395e-23 -1.62239e-23 5.10648e-24)
(-3.19676e-19 -6.14935e-20 1.93582e-20)
(-1.97125e-15 -3.79189e-16 1.19388e-16)
(-1.47867e-11 -2.84434e-12 8.95686e-13)
(-1.1874e-07 -2.28405e-08 7.19366e-09)
(-0.000933117 -0.00017949 5.654e-05)
(-5.925 -1.1397 0.359068)
(-61.7483 -11.8776 3.74269)
(-61.8548 -11.898 3.74975)
(-61.8548 -11.898 3.74913)
(-2.18322e-22 -1.30332e-22 5.37618e-23)
(-7.87537e-19 -3.86424e-19 1.55521e-19)
(-4.57414e-15 -1.88341e-15 7.37649e-16)
(-3.20569e-11 -1.12457e-11 4.27323e-12)
(-2.3855e-07 -7.2237e-08 2.6547e-08)
(-0.0017218 -0.000455642 0.000161445)
(-8.22726 -1.92706 0.656687)
(-43.5626 -9.16404 3.00023)
(-61.796 -11.8895 3.74683)
(-61.8201 -11.893 3.74722)
(2.53516e-17 -5.58995e-18 3.26946e-18)
(6.38614e-14 -1.40813e-14 8.23588e-15)
(2.62113e-10 -5.7796e-11 3.38036e-11)
(1.29293e-06 -2.85094e-07 1.66745e-07)
(0.00661979 -0.00145972 0.000853748)
(7.15612 -1.57804 0.922943)
(8.66294 -1.91046 1.11734)
(7.92746 -1.74867 1.02266)
(7.65565 -2.05351 1.15513)
(7.25499 -2.32165 1.26726)
(-2.22401e-21 -4.19749e-22 1.34546e-22)
(-8.42329e-18 -1.59146e-18 5.09689e-19)
(-5.19014e-14 -9.81639e-15 3.14117e-15)
(-3.89021e-10 -7.36553e-11 2.35492e-11)
(-3.12151e-06 -5.91635e-07 1.88998e-07)
(-0.024502 -0.00464888 0.00148383)
(-45.4938 -8.64085 2.75564)
(-61.8507 -11.76 3.74718)
(-61.8548 -11.7732 3.7482)
(-61.8548 -11.7608 3.74743)
(-1.66166e-17 -3.19626e-18 1.00546e-18)
(-5.87219e-14 -1.12954e-14 3.55397e-15)
(-3.43665e-10 -6.61052e-11 2.08036e-11)
(-2.48737e-06 -4.78455e-07 1.50603e-07)
(-0.0195582 -0.00376209 0.00118443)
(-44.0259 -8.46855 2.66673)
(-61.8512 -11.8973 3.74722)
(-61.8548 -11.898 3.7482)
(-61.8548 -11.898 3.74897)
(-61.8548 -11.898 3.7482)
(-7.0406e-17 -1.3543e-17 4.25945e-18)
(-2.08546e-13 -4.01149e-14 1.26192e-14)
(-1.03075e-09 -1.9827e-10 6.23838e-11)
(-6.33358e-06 -1.21829e-06 3.83403e-07)
(-0.0423924 -0.00815437 0.00256674)
(-50.7372 -9.75951 3.07262)
(-61.8522 -11.8975 3.74651)
(-61.8547 -11.898 3.74743)
(-61.8548 -11.898 3.7482)
(-61.8548 -11.898 3.74744)
(-1.59136e-16 -5.18047e-17 1.93519e-17)
(-4.20269e-13 -1.26499e-13 4.63804e-14)
(-1.85608e-09 -5.18359e-10 1.86361e-10)
(-1.0202e-05 -2.65117e-06 9.33604e-07)
(-0.0609794 -0.0147912 0.00509673)
(-34.5876 -7.85843 2.64753)
(-44.2809 -9.46344 3.11586)
(-51.9047 -10.4888 3.3757)
(-61.8275 -11.8942 3.74646)
(-61.8103 -11.8912 3.74718)
(-6.57091e-16 -1.24147e-16 3.97137e-17)
(-2.3198e-12 -4.38756e-13 1.40245e-13)
(-1.35629e-08 -2.56793e-09 8.20175e-10)
(-9.80667e-05 -1.8587e-05 5.93192e-06)
(-0.761088 -0.144405 0.0460498)
(-61.2247 -11.6287 3.70543)
(-61.8547 -11.7608 3.74459)
(-61.8548 -11.7732 3.74563)
(-61.8548 -11.7856 3.74665)
(-61.8548 -11.7732 3.74563)
(-4.56905e-12 -8.78875e-13 2.76224e-13)
(-1.53499e-08 -2.95262e-09 9.28243e-10)
(-8.66915e-05 -1.66754e-05 5.24386e-06)
(-0.608489 -0.117045 0.0368169)
(-61.068 -11.7467 3.69596)
(-61.8547 -11.898 3.7446)
(-61.8548 -11.898 3.74563)
(-61.8548 -11.898 3.74666)
(-61.8548 -11.898 3.74769)
(-61.8548 -11.898 3.74666)
(-1.62008e-11 -3.11628e-12 9.79158e-13)
(-4.60092e-08 -8.85004e-09 2.78151e-09)
(-0.000220679 -4.24485e-05 1.33449e-05)
(-1.30422 -0.250871 0.0788906)
(-61.4266 -11.8156 3.71664)
(-61.8547 -11.898 3.74357)
(-61.8548 -11.898 3.7446)
(-61.8548 -11.898 3.74563)
(-61.8548 -11.898 3.74666)
(-61.8548 -11.898 3.74563)
(-4.11747e-11 -7.92e-12 2.48791e-12)
(-1.00229e-07 -1.92792e-08 6.05782e-09)
(-0.000413481 -7.95337e-05 2.49975e-05)
(-2.07937 -0.399971 0.125745)
(-61.5469 -11.8387 3.72292)
(-61.8548 -11.898 3.74256)
(-61.8548 -11.898 3.74359)
(-61.8548 -11.898 3.74461)
(-61.8548 -11.898 3.74563)
(-61.8376 -11.8952 3.74515)
(-1.80543e-10 -3.41467e-11 1.08908e-11)
(-6.05894e-07 -1.14717e-07 3.65642e-08)
(-0.00341805 -0.000647839 0.000206356)
(-17.3972 -3.30085 1.05074)
(-61.8345 -11.7445 3.73618)
(-61.8548 -11.7608 3.73894)
(-61.8548 -11.7732 3.74048)
(-61.8548 -11.7856 3.74202)
(-61.8548 -11.798 3.74357)
(-61.8548 -11.7856 3.74202)
(-1.19148e-06 -2.29186e-07 7.19028e-08)
(-0.00386957 -0.000744327 0.000233616)
(-15.9058 -3.05955 0.960672)
(-61.8294 -11.8931 3.73588)
(-61.8548 -11.898 3.73895)
(-61.8548 -11.898 3.74049)
(-61.8548 -11.898 3.74203)
(-61.8548 -11.898 3.74357)
(-61.8548 -11.898 3.74512)
(-61.8548 -11.898 3.74357)
(-3.56558e-06 -6.85853e-07 2.15086e-07)
(-0.00984294 -0.00189332 0.000593999)
(-26.5146 -5.10018 1.60075)
(-61.8411 -11.8954 3.73504)
(-61.8548 -11.898 3.73741)
(-61.8548 -11.898 3.73895)
(-61.8548 -11.898 3.74049)
(-61.8548 -11.898 3.74203)
(-61.8548 -11.898 3.74357)
(-61.8548 -11.898 3.74203)
(-7.75503e-06 -1.49168e-06 4.67615e-07)
(-0.0184279 -0.00354463 0.00111163)
(-33.8833 -6.51752 2.04479)
(-61.8453 -11.8961 3.73378)
(-61.855 -11.898 3.7359)
(-61.8549 -11.898 3.73742)
(-61.8548 -11.898 3.73896)
(-61.8548 -11.898 3.74049)
(-61.8548 -11.898 3.74203)
(-61.847 -11.8967 3.74068)
(-3.13877e-05 -5.94271e-06 1.88248e-06)
(-0.101645 -0.0192651 0.00610122)
(-55.7278 -10.5735 3.34782)
(-61.8538 -11.7482 3.7189)
(-61.8548 -11.7607 3.72203)
(-61.8548 -11.7732 3.7251)
(-61.8548 -11.7856 3.72817)
(-61.8548 -11.798 3.73124)
(-61.8548 -11.8105 3.73432)
(-61.8548 -11.798 3.73124)
(-0.19925 -0.0383266 0.01196)
(-56.381 -10.8451 3.38708)
(-61.8537 -11.8978 3.71891)
(-61.8548 -11.898 3.72205)
(-61.8548 -11.898 3.72511)
(-61.8548 -11.898 3.72818)
(-61.8548 -11.898 3.73126)
(-61.8548 -11.898 3.73433)
(-61.8548 -11.898 3.73741)
(-61.8548 -11.898 3.73433)
(-0.503589 -0.0968672 0.0302031)
(-59.2013 -11.3876 3.55358)
(-61.8542 -11.8979 3.71588)
(-61.8548 -11.898 3.71898)
(-61.8548 -11.898 3.72205)
(-61.8548 -11.898 3.72511)
(-61.8548 -11.898 3.72818)
(-61.8548 -11.898 3.73126)
(-61.8548 -11.898 3.73433)
(-61.8548 -11.898 3.73126)
(-0.934856 -0.179821 0.0560227)
(-60.1835 -11.5764 3.60958)
(-61.8547 -11.8979 3.71287)
(-61.855 -11.898 3.71594)
(-61.8549 -11.898 3.71899)
(-61.8548 -11.898 3.72205)
(-61.8548 -11.898 3.72511)
(-61.8548 -11.898 3.72818)
(-61.8548 -11.898 3.73125)
(-61.8548 -11.898 3.72818)
)
;

boundaryField
{
    inlet
    {
        type            calculated;
        value           uniform (0 0 0);
    }
    outlet
    {
        type            calculated;
        value           nonuniform 0();
    }
    bottom
    {
        type            calculated;
        value           uniform (0 0 0);
    }
    top
    {
        type            symmetryPlane;
    }
    side1
    {
        type            symmetryPlane;
    }
    side2
    {
        type            symmetryPlane;
    }
    procBoundary0to1
    {
        type            processor;
        value           nonuniform List<vector> 
20
(
(-61.8481 -11.7345 3.74752)
(-61.8554 -11.898 3.74857)
(-61.83 -11.8942 3.74709)
(6.64734 -2.56021 1.36031)
(-61.8554 -11.7483 3.74671)
(-61.8552 -11.898 3.74747)
(-61.8557 -11.8979 3.74677)
(-61.783 -11.8863 3.74751)
(-61.8552 -11.7607 3.74463)
(-61.855 -11.898 3.74565)
(-61.8554 -11.898 3.74467)
(-61.8185 -11.8918 3.7446)
(-61.855 -11.7731 3.7405)
(-61.8548 -11.898 3.74204)
(-61.855 -11.898 3.74051)
(-61.8383 -11.8951 3.73929)
(-61.8548 -11.7856 3.72817)
(-61.8548 -11.898 3.73126)
(-61.8548 -11.898 3.72819)
(-61.8548 -11.898 3.72512)
)
;
    }
    procBoundary0to8
    {
        type            processor;
        value           nonuniform List<vector> 
50
(
(3.15161e-12 -6.94847e-13 4.06408e-13)
(7.64313e-09 -1.68511e-09 9.856e-10)
(3.05825e-05 -6.74264e-06 3.94369e-06)
(0.147017 -0.0324135 0.0189582)
(10.4828 -2.3112 1.35179)
(10.1377 -2.23511 1.30729)
(9.54879 -2.10527 1.23134)
(8.8297 -1.94673 1.13861)
(9.54878 -2.10527 1.23134)
(10.138 -2.23514 1.30743)
(5.43349e-12 -1.19813e-12 7.00769e-13)
(1.13328e-08 -2.499e-09 1.46162e-09)
(3.91667e-05 -8.63681e-06 5.05148e-06)
(0.162995 -0.0359435 0.0210223)
(10.8785 -2.39899 1.40309)
(10.6258 -2.3434 1.37056)
(10.1345 -2.23527 1.30728)
(9.54447 -2.10583 1.2315)
(8.35628 -2.47014 1.38192)
(8.58141 -1.38817 5.02597)
(-7.90234e-11 -1.89233e-11 6.61315e-12)
(-1.69897e-07 -3.94668e-08 1.36713e-08)
(-0.000620161 -0.00013988 4.80403e-05)
(-2.68282 -0.588005 0.200297)
(-46.2714 -9.86396 3.3352)
(-49.3642 -10.2476 3.4445)
(-52.4837 -10.6273 3.56207)
(-55.6199 -11.0129 3.70916)
(-57.8618 -11.2658 3.92384)
(6.35818 -0.977719 6.45158)
(-1.43921e-05 -2.77198e-06 8.79196e-07)
(-0.0298332 -0.00574636 0.00182424)
(-38.8767 -7.48888 2.37991)
(-61.36 -11.8211 3.76143)
(-61.3126 -11.8137 3.76519)
(-61.2295 -11.8003 3.76939)
(-61.0912 -11.778 3.77541)
(-60.8157 -11.7333 3.78594)
(-60.0021 -11.6013 3.81416)
(3.82861 -1.24139 5.912)
(-1.49893 -0.288307 0.0897547)
(-60.6658 -11.6687 3.63563)
(-61.8562 -11.8978 3.71001)
(-61.8562 -11.8979 3.71305)
(-61.8559 -11.8979 3.71606)
(-61.8556 -11.8979 3.71908)
(-61.8553 -11.898 3.72211)
(-61.855 -11.898 3.72514)
(-61.8548 -11.898 3.72818)
(-61.8367 -11.8951 3.72583)
)
;
    }
}


// ************************************************************************* //
