/*--------------------------------*- C++ -*----------------------------------*\
| =========                 |                                                 |
| \\      /  F ield         | OpenFOAM: The Open Source CFD Toolbox           |
|  \\    /   O peration     | Version:  2.4.0                                 |
|   \\  /    A nd           | Web:      www.OpenFOAM.org                      |
|    \\/     M anipulation  |                                                 |
\*---------------------------------------------------------------------------*/
FoamFile
{
    version     2.0;
    format      ascii;
    class       volVectorField;
    location    "0.03";
    object      Ub;
}
// * * * * * * * * * * * * * * * * * * * * * * * * * * * * * * * * * * * * * //

dimensions      [0 1 -1 0 0 0 0];

internalField   nonuniform List<vector> 
200
(
(5.78302 0.00960066 0.425172)
(6.35513 -0.00573881 -0.148252)
(5.50553 0.0241486 0.285876)
(4.97454 -0.00990441 1.00579)
(5.40737 0.242249 2.18361)
(5.90684 -0.27389 1.84595)
(5.83998 -0.36048 1.493)
(4.32251 0.213808 1.30148)
(3.67827 0.874338 2.19763)
(3.34268 -1.0138 -3.78496)
(5.91718 0.023471 0.198725)
(5.9481 -0.106105 0.665487)
(6.04121 -0.153389 0.844953)
(5.406 -0.178455 0.851887)
(5.16938 -0.0557566 0.816867)
(4.76761 -0.222919 1.40437)
(5.32334 -0.652944 0.623244)
(4.70971 0.413014 1.71284)
(5.29738 -0.203078 -1.04895)
(3.60177 1.74021 1.61149)
(6.08776 -0.213949 1.628)
(6.25394 0.0420474 -0.931821)
(4.78394 0.264531 -1.14865)
(5.37938 -0.00277426 1.4671)
(5.9074 0.773039 4.65677)
(5.65374 -0.935509 -0.346096)
(3.51862 -1.29907 -2.49668)
(5.42439 -0.270218 2.52985)
(6.48548 -0.274727 3.55055)
(6.87109 -1.74206 -1.88597)
(6.01456 -0.318273 -0.239036)
(5.78014 0.310612 0.423254)
(5.69846 0.384055 0.794738)
(5.80067 0.303735 0.643666)
(5.58729 -0.207126 0.00855017)
(3.94155 0.854356 0.326496)
(5.00343 0.627922 1.51003)
(2.22461 -0.534056 -5.66242)
(6.71896 -0.325809 1.39921)
(7.21131 0.495505 1.00429)
(6.00771 -0.0237537 -0.0673584)
(5.99428 -0.00113367 0.907852)
(6.09699 0.070399 1.08354)
(5.59044 1.02544 3.79632)
(5.8344 -2.08573 -12.3044)
(6.74005 -0.981583 0.17931)
(6.38347 0.0568959 3.30345)
(6.57209 -0.0882762 3.97803)
(7.27347 -0.545117 0.132558)
(6.53282 0.519743 3.26211)
(6.07375 -0.0967303 0.182468)
(6.08554 -0.168863 -1.80354)
(6.00357 0.0326904 1.05083)
(6.01711 -0.0321666 1.72338)
(5.90952 0.0702116 1.98428)
(5.61582 0.00802554 0.837213)
(4.93306 -1.28351 -1.39048)
(6.97855 0.0996327 3.05802)
(8.05171 -0.0887372 4.68947)
(8.34816 -0.566154 0.649935)
(6.06796 -0.0887538 0.361115)
(6.046 -0.121285 0.468692)
(5.78249 0.660983 4.93295)
(5.29465 1.08963 -12.0454)
(6.4615 -0.653951 -0.833306)
(6.01344 -1.11233 0.872936)
(6.60262 0.249029 7.21314)
(3.37688 -13.4058 -23.007)
(7.33049 0.291939 -0.562249)
(6.85896 1.05068 3.78159)
(6.02608 -0.0385807 0.414358)
(5.55419 0.529974 0.417057)
(6.11959 -0.052857 -1.45954)
(6.27366 -0.400628 1.52125)
(6.09616 -0.000156662 2.07609)
(6.26989 0.403097 2.90396)
(5.79978 -1.05236 -2.83255)
(6.51948 0.106138 3.81333)
(-1.62424 -6.48986 -31.3313)
(9.1805 -1.18904 -1.65603)
(6.10623 -0.0167043 0.112077)
(6.28159 -0.0753318 0.200539)
(6.35266 -0.0992511 0.456964)
(7.05845 -0.145626 -0.0583198)
(6.99501 -0.351819 1.21722)
(6.35134 0.038817 3.29261)
(6.6279 0.357319 2.74306)
(7.02587 -0.0951019 1.706)
(5.85854 0.461386 4.1001)
(5.46709 0.249833 2.38018)
(6.09473 -0.0839035 0.170968)
(6.25346 -0.18242 0.753743)
(6.30171 -0.122395 0.864514)
(6.51096 -0.0736664 0.406492)
(7.10763 -0.324474 0.882367)
(7.3729 0.291097 1.24229)
(7.033 -0.173698 1.15208)
(6.99743 1.21619 2.4179)
(5.26262 -1.71065 -3.12415)
(4.14395 -0.787086 4.15182)
(6.05261 -0.145632 0.0778063)
(6.46615 -0.280159 0.215713)
(6.55066 -0.406506 -0.158316)
(7.21603 -1.59826 -0.186959)
(4.67443 -0.305586 0.701707)
(7.70386 -0.22184 1.25229)
(8.31506 -0.397176 0.892708)
(7.14929 -0.125704 1.88702)
(5.17887 -0.000390238 -0.170345)
(5.74793 -0.296074 1.01771)
(6.08729 -0.150335 0.0820358)
(6.10708 -0.226155 0.276196)
(7.49303 -0.223369 0.894379)
(3.45726 3.14669 -2.56245)
(7.09358 -1.12458 -0.0974762)
(7.69033 -1.22881 0.314087)
(7.74878 -0.725593 0.768177)
(7.45271 -1.13107 -1.64297)
(8.42266 -1.94246 -2.01795)
(3.73308 1.05286 -3.08673)
(6.65877 0.325474 -0.859038)
(4.67158 0.721088 1.27667)
(7.36626 -0.65667 0.103227)
(7.48976 -0.411508 -1.05787)
(6.51243 0.527064 -1.83476)
(8.92654 -0.201368 -0.679613)
(10.1952 -0.993856 0.214391)
(10.4513 2.80265 2.00881)
(7.22034 -1.44505 7.59487)
(1.98349 -4.01831 -5.05792)
(5.94239 -0.0806692 -0.2433)
(7.20253 -1.37891 -0.639995)
(5.16562 1.45803 1.78928)
(6.60026 -0.131742 -0.894191)
(7.51156 -1.09574 -1.02387)
(8.0109 -2.26964 -1.01613)
(8.42608 3.01985 3.03078)
(8.44402 -3.49132 2.45483)
(6.71732 26.2612 20.23)
(4.86687 -3.13373 -4.92944)
(6.08923 -0.156728 -0.234629)
(5.81835 -0.17171 -1.37822)
(5.64823 1.79817 2.68628)
(6.76861 -0.822219 -0.499694)
(6.47503 -1.34235 -1.97679)
(6.35339 -0.120342 -1.18026)
(6.77829 -1.5583 -0.809724)
(5.03886 8.71347 6.61724)
(4.99949 0.544741 2.8914)
(10.9533 -0.900995 -5.46509)
(6.05994 -0.0635122 -0.187637)
(5.90692 0.0893346 -0.99008)
(6.19755 -0.318065 4.63358)
(6.87801 -0.606394 -0.452273)
(6.29458 -0.188444 -1.91883)
(6.23343 -0.305306 -1.43256)
(5.88523 1.47409 -0.434612)
(6.78272 0.367004 -0.622071)
(8.90104 0.644115 -4.15935)
(7.84627 -0.237551 0.303015)
(5.91634 -0.107235 -0.139883)
(5.90604 -0.155409 -0.814096)
(5.81544 0.16326 -1.23346)
(5.67638 0.522965 0.251426)
(5.09279 -0.787529 -1.35306)
(5.40435 -0.402256 -0.0559269)
(4.1406 -0.161956 -1.47488)
(6.33791 0.450541 10.2189)
(2.21172 -3.44121 -3.33875)
(11.912 11.802 92.5868)
(5.96467 0.0649791 0.0825943)
(5.81997 -0.420235 -0.278421)
(5.69571 -0.616631 -1.06319)
(5.82476 -0.195912 -1.14799)
(5.25969 -0.609525 -1.22643)
(4.85214 -0.729118 -0.759841)
(5.44556 -1.68335 0.561132)
(3.68929 4.17251 1.65017)
(5.99642 2.56893 15.9926)
(8.60803 5.20237 -3.64638)
(6.09378 0.0476553 0.124897)
(5.70564 -0.311656 -0.219712)
(5.39726 -0.380262 -1.12626)
(5.41607 -0.468536 -1.28437)
(4.05862 -0.279233 -0.548771)
(5.15006 -3.34345 -4.98528)
(-0.642294 7.51407 11.8243)
(4.92565 2.67286 3.88184)
(6.09701 2.04437 -1.03771)
(6.18068 0.898689 -1.44733)
(6.04839 0.0305885 0.129579)
(5.79043 -0.129647 -0.187133)
(5.7757 -0.0423136 -0.903965)
(6.08968 -0.335951 -1.7117)
(5.65302 0.210673 -0.424425)
(4.36667 1.0424 0.0966748)
(4.99362 1.11196 -0.71703)
(6.45168 0.738754 -0.992413)
(6.20695 0.379043 -0.694705)
(6.3011 -0.0225148 0.382999)
)
;

boundaryField
{
    inlet
    {
        type            fixedValue;
        value           uniform (6 0 0);
    }
    outlet
    {
        type            zeroGradient;
    }
    bottom
    {
        type            fixedValue;
        value           uniform (0 0 0);
    }
    top
    {
        type            symmetryPlane;
    }
    side1
    {
        type            symmetryPlane;
    }
    side2
    {
        type            symmetryPlane;
    }
    procBoundary0to1
    {
        type            processor;
        value           nonuniform List<vector> 
20
(
(3.30323 1.67889 0.663939)
(5.6449 -2.51863 -8.16913)
(5.14591 0.817922 4.11699)
(7.53502 -3.60627 -6.42042)
(6.38102 -0.835623 -3.44329)
(6.65352 0.753856 3.22276)
(7.11228 -0.0026298 4.13218)
(4.45569 0.079744 2.3994)
(5.02142 -0.0584878 5.82747)
(5.61503 0.106398 1.18995)
(5.78767 0.410354 0.237265)
(5.3906 -0.541396 3.38431)
(-1.23737 -2.08311 -4.83735)
(6.08269 -3.50543 -2.05106)
(7.87916 -0.762812 1.92216)
(7.81216 0.537851 -3.07862)
(10.6381 2.85275 -1.98277)
(8.01607 -0.338072 -2.20055)
(6.54731 0.231917 -1.05112)
(6.34446 -0.991681 3.57452)
)
;
    }
    procBoundary0to8
    {
        type            processor;
        value           nonuniform List<vector> 
50
(
(6.02019 -0.147504 -0.00621421)
(5.93511 0.187397 0.289339)
(5.8248 0.31708 0.416804)
(5.73176 0.297618 0.288336)
(5.42907 0.595335 -0.185036)
(5.55919 0.266811 -0.68215)
(5.15141 0.500921 1.33517)
(5.65257 0.504725 2.8275)
(4.82312 -1.09042 0.655116)
(6.19762 0.510139 -0.378736)
(5.95339 -0.0202537 -0.176857)
(6.05119 -0.073649 0.340546)
(6.13189 -0.0131408 0.718045)
(6.14317 0.0186825 1.03433)
(6.22501 0.0843674 1.07471)
(6.19368 -0.322383 1.85446)
(5.79243 0.40293 0.0591948)
(6.24265 -0.86762 1.46857)
(6.48235 -1.47891 2.45516)
(5.4534 -1.00943 2.99742)
(5.99986 -0.0980978 0.0632587)
(6.05829 -0.196088 0.148673)
(5.99505 -0.117672 0.115049)
(6.40685 -0.835999 -0.467127)
(6.90603 -0.745582 0.209203)
(6.93446 -0.321288 0.677339)
(6.96731 -0.532649 0.506815)
(7.3634 -1.51022 0.687825)
(7.13184 -1.50668 -0.889886)
(6.52562 -0.236605 -0.390252)
(6.01491 -0.0451017 -0.164724)
(6.08484 -0.138805 -0.341207)
(6.26158 -0.462429 0.180158)
(6.3166 -0.546276 -0.511832)
(6.44238 -0.0409194 -1.17827)
(6.6212 0.154477 -0.975292)
(6.57489 0.207014 -1.32374)
(7.50883 0.551289 -1.80232)
(7.31102 0.957208 -2.01851)
(8.59689 0.579167 1.07213)
(6.0962 0.0977435 0.0808287)
(5.93659 -0.0967713 -0.212218)
(5.84506 -0.351668 -0.369194)
(5.79311 -0.392326 -0.53432)
(5.80548 -0.0399536 -0.821875)
(5.83035 -0.139305 -0.891708)
(5.86357 0.145694 -0.506373)
(5.40104 -0.686673 -0.910467)
(5.33247 -0.558982 -0.825787)
(5.50537 0.820514 -0.754295)
)
;
    }
}


// ************************************************************************* //
