/*--------------------------------*- C++ -*----------------------------------*\
| =========                 |                                                 |
| \\      /  F ield         | OpenFOAM: The Open Source CFD Toolbox           |
|  \\    /   O peration     | Version:  2.4.0                                 |
|   \\  /    A nd           | Web:      www.OpenFOAM.org                      |
|    \\/     M anipulation  |                                                 |
\*---------------------------------------------------------------------------*/
FoamFile
{
    version     2.0;
    format      ascii;
    class       volVectorField;
    location    "0.15";
    object      A_Source;
}
// * * * * * * * * * * * * * * * * * * * * * * * * * * * * * * * * * * * * * //

dimensions      [1 -2 -2 0 0 0 0];

internalField   nonuniform List<vector> 
200
(
(-1.34524e+11 -5.21474e+11 9.43732e+11)
(-7.70045e+09 -2.98437e+10 5.40213e+10)
(-2.40614e+08 -9.32307e+08 1.68799e+09)
(-5.37368e+06 -2.08167e+07 3.76982e+07)
(-95848.1 -371215 672408)
(-1449.94 -5614.25 10171.8)
(-19.309 -74.7487 135.459)
(-0.232135 -0.898435 1.62851)
(-0.00256507 -0.00992535 0.0179949)
(-2.6401e-05 -0.000102134 0.000185212)
(-2.17231e+08 -8.42187e+08 1.52395e+09)
(-1.32892e+07 -5.15108e+07 9.32283e+07)
(-442421 -1.71454e+06 3.10373e+06)
(-10490.2 -40644.9 73592.2)
(-197.997 -766.994 1389.02)
(-3.15999 -12.2386 22.1684)
(-0.0442771 -0.171449 0.310619)
(-0.000558698 -0.00216294 0.00391946)
(-6.46518e-06 -2.50242e-05 4.53555e-05)
(-6.95446e-08 -2.69124e-07 4.87879e-07)
(-337558 -1.30881e+06 2.36808e+06)
(-21973.4 -85181.8 154151)
(-776.444 -3009.41 5447.03)
(-19.48 -75.4882 136.659)
(-0.387901 -1.5029 2.72126)
(-0.00651382 -0.0252327 0.0456967)
(-9.57974e-05 -0.000371024 0.000672052)
(-1.26592e-06 -4.902e-06 8.88087e-06)
(-1.53102e-08 -5.92743e-08 1.07406e-07)
(-1.71799e-10 -6.65005e-10 1.20523e-09)
(-507.892 -1969.41 3563.04)
(-35.0453 -135.869 245.855)
(-1.30994 -5.07772 9.18965)
(-0.0346697 -0.134368 0.24322)
(-0.000726377 -0.00281471 0.00509578)
(-1.28028e-05 -4.96023e-05 8.98159e-05)
(-1.9719e-07 -7.6385e-07 1.38336e-06)
(-2.72343e-09 -1.05479e-08 1.91058e-08)
(-3.43603e-11 -1.33055e-10 2.41049e-10)
(-4.01527e-13 -1.55459e-12 2.81685e-12)
(-7.74058e+08 -2.9999e+09 5.43029e+09)
(-4.73875e+07 -1.83612e+08 3.32439e+08)
(-1.57861e+06 -6.11527e+06 1.10745e+07)
(-37450.8 -145045 262730)
(-707.197 -2738.31 4961.23)
(-11.2913 -43.7106 79.2122)
(-0.158266 -0.612538 1.11029)
(-0.00199763 -0.00772968 0.0140141)
(-2.31223e-05 -8.94495e-05 0.000162211)
(-2.48774e-07 -9.62174e-07 1.74523e-06)
(-1.3384e+06 -5.18778e+06 9.38932e+06)
(-87177.9 -337845 611583)
(-3082.19 -11942.1 21622.6)
(-77.3648 -299.694 542.741)
(-1.54118 -5.96894 10.8119)
(-0.0258893 -0.100248 0.181622)
(-0.000380864 -0.00147447 0.00267189)
(-5.03425e-06 -1.94856e-05 3.5317e-05)
(-6.08982e-08 -2.35665e-07 4.27222e-07)
(-6.83479e-10 -2.6444e-09 4.79484e-09)
(-2217.29 -8595.47 15555)
(-153.078 -593.313 1073.9)
(-5.72452 -22.1834 40.1595)
(-0.151571 -0.587252 1.06332)
(-0.00317673 -0.0123058 0.0222858)
(-5.60084e-05 -0.000216921 0.000392918)
(-8.62871e-07 -3.34128e-06 6.05334e-06)
(-1.19199e-08 -4.61487e-08 8.36223e-08)
(-1.50416e-10 -5.82239e-10 1.05522e-09)
(-1.75802e-12 -6.80374e-12 1.23331e-11)
(-3.54323 -13.7369 24.857)
(-0.258398 -1.00163 1.81275)
(-0.01019 -0.0394931 0.0714867)
(-0.000283836 -0.00109987 0.00199121)
(-6.24348e-06 -2.41894e-05 4.38002e-05)
(-1.15277e-07 -4.46547e-07 8.08709e-07)
(-1.8561e-09 -7.18873e-09 1.30212e-08)
(-2.67478e-11 -1.03577e-10 1.87645e-10)
(-3.51501e-13 -1.36091e-12 2.4659e-12)
(-4.2715e-15 -1.65351e-14 2.9966e-14)
(-2.39161e+06 -9.2667e+06 1.6778e+07)
(-155896 -603913 1.09367e+06)
(-5515.46 -21361.1 38692.9)
(-138.525 -536.379 971.803)
(-2.76104 -10.6885 19.3696)
(-0.0464035 -0.179596 0.325536)
(-0.000682951 -0.00264263 0.00479113)
(-9.03078e-06 -3.4936e-05 6.3354e-05)
(-1.09282e-07 -4.22667e-07 7.66652e-07)
(-1.22689e-09 -4.74414e-09 8.60708e-09)
(-4408.82 -17085.6 30929.4)
(-304.584 -1180.12 2136.76)
(-11.3971 -44.1498 79.9548)
(-0.301932 -1.16937 2.11815)
(-0.00633118 -0.0245155 0.0444154)
(-0.000111673 -0.000432331 0.000783426)
(-1.72113e-06 -6.66182e-06 1.20743e-05)
(-2.37847e-08 -9.20422e-08 1.66858e-07)
(-3.00235e-10 -1.16161e-09 2.10625e-09)
(-3.51008e-12 -1.35778e-11 2.46244e-11)
(-7.75762 -30.0674 54.4224)
(-0.566083 -2.19366 3.97127)
(-0.0223358 -0.0865388 0.156694)
(-0.000622452 -0.0024112 0.00436671)
(-1.36979e-05 -5.30521e-05 9.60957e-05)
(-2.53013e-07 -9.79739e-07 1.77498e-06)
(-4.07529e-09 -1.57777e-08 2.85896e-08)
(-5.8747e-11 -2.27401e-10 4.12131e-10)
(-7.72241e-13 -2.98867e-12 5.41753e-12)
(-9.38694e-15 -3.63219e-14 6.58526e-14)
(-0.0131223 -0.0508658 0.0920576)
(-0.00100835 -0.00390803 0.00707396)
(-4.18399e-05 -0.000162129 0.000293521)
(-1.22355e-06 -4.74046e-06 8.58366e-06)
(-2.81957e-08 -1.09221e-07 1.97802e-07)
(-5.44275e-10 -2.10799e-09 3.81828e-09)
(-9.14494e-12 -3.54125e-11 6.41549e-11)
(-1.37283e-13 -5.31517e-13 9.63086e-13)
(-1.87631e-15 -7.26328e-15 1.3163e-14)
(-2.3679e-17 -9.16466e-17 1.66116e-16)
(-5259.34 -20373.5 36896.1)
(-363.591 -1408.16 2550.72)
(-13.6137 -52.7132 95.5051)
(-0.36086 -1.39695 2.53156)
(-0.00757076 -0.0293011 0.0531115)
(-0.0001336 -0.000516956 0.000937252)
(-2.05996e-06 -7.96903e-06 1.44513e-05)
(-2.8478e-08 -1.10144e-07 1.99783e-07)
(-3.59607e-10 -1.39053e-09 2.52277e-09)
(-4.20556e-12 -1.62583e-11 2.95034e-11)
(-10.2969 -39.8955 72.2362)
(-0.751849 -2.91248 5.27448)
(-0.0296827 -0.11496 0.208234)
(-0.000827624 -0.00320471 0.00580607)
(-1.82217e-05 -7.05433e-05 0.000127831)
(-3.36716e-07 -1.30329e-06 2.36218e-06)
(-5.42563e-09 -2.09962e-08 3.80626e-08)
(-7.82409e-11 -3.02716e-10 5.48887e-10)
(-1.02883e-12 -3.97976e-12 7.21761e-12)
(-1.25097e-14 -4.83806e-14 8.776e-14)
(-0.0191776 -0.0743155 0.134538)
(-0.0014745 -0.00571286 0.0103442)
(-6.12139e-05 -0.000237125 0.000429436)
(-1.79097e-06 -6.93642e-06 1.25643e-05)
(-4.1289e-08 -1.59883e-07 2.89657e-07)
(-7.97336e-10 -3.08694e-09 5.59359e-09)
(-1.34017e-11 -5.18759e-11 9.40176e-11)
(-2.01251e-13 -7.78869e-13 1.41185e-12)
(-2.75145e-15 -1.06465e-14 1.93023e-14)
(-3.47329e-17 -1.34371e-16 2.43663e-16)
(-3.42334e-05 -0.000132676 0.000240159)
(-2.76406e-06 -1.07107e-05 1.93908e-05)
(-1.2037e-07 -4.66354e-07 8.44439e-07)
(-3.68725e-09 -1.42832e-08 2.58673e-08)
(-8.88306e-11 -3.44043e-10 6.23178e-10)
(-1.78936e-12 -6.92904e-12 1.2553e-11)
(-3.13193e-14 -1.21259e-13 2.19716e-13)
(-4.88996e-16 -1.89292e-15 3.43048e-15)
(-6.94082e-18 -2.68636e-17 4.86922e-17)
(-9.08413e-20 -3.51531e-19 6.37283e-19)
(-9.23515 -35.7668 64.5955)
(-0.674798 -2.61285 4.71914)
(-0.0266583 -0.103199 0.186402)
(-0.000743752 -0.00287854 0.00519966)
(-1.63843e-05 -6.33977e-05 0.000114526)
(-3.02921e-07 -1.17186e-06 2.11707e-06)
(-4.88345e-09 -1.88875e-08 3.4124e-08)
(-7.04542e-11 -2.72431e-10 4.9223e-10)
(-9.26832e-13 -3.58305e-12 6.47427e-12)
(-1.12739e-14 -4.35739e-14 7.87395e-14)
(-0.0191384 -0.0741369 0.133842)
(-0.00147246 -0.00570279 0.0102959)
(-6.11668e-05 -0.000236849 0.000427625)
(-1.79061e-06 -6.93214e-06 1.25163e-05)
(-4.13025e-08 -1.59865e-07 2.88656e-07)
(-7.97986e-10 -3.08805e-09 5.57608e-09)
(-1.34188e-11 -5.19174e-11 9.37506e-11)
(-2.01593e-13 -7.7981e-13 1.40821e-12)
(-2.75723e-15 -1.06634e-14 1.92571e-14)
(-3.4819e-17 -1.34633e-16 2.43144e-16)
(-3.76166e-05 -0.000145742 0.000263024)
(-3.03908e-06 -1.17725e-05 2.12466e-05)
(-1.32423e-07 -5.12872e-07 9.25632e-07)
(-4.05858e-09 -1.57159e-08 2.83647e-08)
(-9.78243e-11 -3.78733e-10 6.83567e-10)
(-1.97142e-12 -7.63107e-12 1.37734e-11)
(-3.45207e-14 -1.33599e-13 2.41141e-13)
(-5.39198e-16 -2.08637e-15 3.76589e-15)
(-7.65627e-18 -2.96197e-17 5.34644e-17)
(-1.00241e-19 -3.87729e-19 6.99877e-19)
(-7.06721e-08 -2.73851e-07 4.94075e-07)
(-5.98092e-09 -2.3172e-08 4.18065e-08)
(-2.72753e-10 -1.05656e-09 1.90623e-09)
(-8.73434e-12 -3.38282e-11 6.10329e-11)
(-2.19583e-13 -8.50302e-13 1.53413e-12)
(-4.60794e-15 -1.78406e-14 3.21883e-14)
(-8.38899e-17 -3.24741e-16 5.85908e-16)
(-1.36036e-18 -5.2651e-18 9.49951e-18)
(-2.00268e-20 -7.74981e-20 1.39826e-19)
(-2.71507e-22 -1.05048e-21 1.89534e-21)
)
;

boundaryField
{
    inlet
    {
        type            zeroGradient;
    }
    outlet
    {
        type            zeroGradient;
    }
    bottom
    {
        type            zeroGradient;
    }
    top
    {
        type            symmetryPlane;
    }
    side1
    {
        type            symmetryPlane;
    }
    side2
    {
        type            symmetryPlane;
    }
    procBoundary16to8
    {
        type            processor;
        value           nonuniform List<vector> 
50
(
(-8.16601e+13 -3.16483e+14 5.72874e+14)
(-4.36721e+12 -1.69213e+13 3.06375e+13)
(-1.2791e+11 -4.95473e+11 8.97335e+11)
(-2.68751e+09 -1.04076e+10 1.88538e+10)
(-4.52522e+07 -1.75197e+08 3.1746e+08)
(-648227 -2.50899e+06 4.54754e+06)
(-8197.35 -31719.9 57507.2)
(-93.8188 -362.939 658.171)
(-0.989194 -3.8257 6.93954)
(-0.00973539 -0.0376416 0.0682972)
(-4.38207e+11 -1.69787e+12 3.07417e+12)
(-2.51789e+10 -9.75328e+10 1.76639e+11)
(-7.89389e+08 -3.05697e+09 5.53784e+09)
(-1.76813e+07 -6.84542e+07 1.2404e+08)
(-316187 -1.22382e+06 2.21816e+06)
(-4794.02 -18550.6 33631.7)
(-63.9722 -247.477 448.787)
(-0.770476 -2.97981 5.40516)
(-0.00852753 -0.0329714 0.0598235)
(-8.78992e-05 -0.00033977 0.000616643)
(-1.26831e+09 -4.9129e+09 8.89767e+09)
(-7.79083e+07 -3.01706e+08 5.46554e+08)
(-2.60324e+06 -1.00786e+07 1.82627e+07)
(-61926.1 -239688 434433)
(-1172.19 -4535.84 8223.35)
(-18.756 -72.5579 131.58)
(-0.263409 -1.01873 1.84791)
(-0.00333061 -0.0128777 0.0233654)
(-3.8613e-05 -0.000149257 0.000270883)
(-4.16051e-07 -1.6078e-06 2.91874e-06)
(-2.6232e+06 -1.01585e+07 1.84027e+07)
(-171501 -663975 1.20314e+06)
(-6084 -23548.4 42681.4)
(-153.177 -592.721 1074.59)
(-3.05975 -11.8367 21.4652)
(-0.0515256 -0.199275 0.36147)
(-0.000759697 -0.00293735 0.00532954)
(-1.0062e-05 -3.88943e-05 7.05886e-05)
(-1.21943e-07 -4.71242e-07 8.55474e-07)
(-1.37093e-09 -5.29647e-09 9.61754e-09)
(-4347.25 -16830.4 30411.8)
(-301.348 -1166.37 2107.78)
(-11.3114 -43.7696 79.1048)
(-0.300512 -1.16253 2.10126)
(-0.00631772 -0.0244337 0.0441677)
(-0.000111698 -0.000431878 0.000780764)
(-1.72523e-06 -6.66878e-06 1.20573e-05)
(-2.38884e-08 -9.23152e-08 1.66924e-07)
(-3.02094e-10 -1.16711e-09 2.11058e-09)
(-3.53777e-12 -1.36643e-11 2.47126e-11)
)
;
    }
    procBoundary16to17
    {
        type            processor;
        value           nonuniform List<vector> 
20
(
(-1.2372e-07 -4.78629e-07 8.67938e-07)
(-4.05475e-10 -1.56922e-09 2.84455e-09)
(-1.20674e-12 -4.6714e-12 8.46572e-12)
(-3.25332e-15 -1.25963e-14 2.28232e-14)
(-1.19877e-09 -4.63664e-09 8.40982e-09)
(-4.11089e-12 -1.59064e-11 2.88393e-11)
(-1.27599e-14 -4.93859e-14 8.9515e-14)
(-3.57799e-17 -1.38512e-16 2.51008e-16)
(-6.07491e-12 -2.34916e-11 4.26176e-11)
(-2.17597e-14 -8.41796e-14 1.52652e-13)
(-7.03325e-17 -2.72168e-16 4.93407e-16)
(-2.04852e-19 -7.92899e-19 1.43711e-18)
(-2.13814e-14 -8.26634e-14 1.49998e-13)
(-7.98582e-17 -3.08881e-16 5.60233e-16)
(-2.68383e-19 -1.03839e-18 1.8828e-18)
(-8.10852e-22 -3.13798e-21 5.68841e-21)
(-5.8814e-17 -2.27334e-16 4.10724e-16)
(-2.28708e-19 -8.8444e-19 1.59688e-18)
(-7.98116e-22 -3.08742e-21 5.57162e-21)
(-2.49825e-24 -9.66663e-24 1.74372e-23)
)
;
    }
    procBoundary16to24
    {
        type            processor;
        value           nonuniform List<vector> 
50
(
(-0.642488 -2.49168 4.50727)
(-0.0465671 -0.180568 0.326684)
(-0.0018259 -0.00707904 0.0128093)
(-5.0593e-05 -0.00019612 0.000354927)
(-1.10755e-06 -4.29267e-06 7.76983e-06)
(-2.03594e-08 -7.88975e-08 1.42828e-07)
(-3.26484e-10 -1.26501e-09 2.2904e-09)
(-4.68731e-12 -1.81589e-11 3.28831e-11)
(-6.13845e-14 -2.37772e-13 4.30634e-13)
(-7.43557e-16 -2.87971e-15 5.21631e-15)
(-0.00471613 -0.0182871 0.0330853)
(-0.000360344 -0.00139706 0.00252794)
(-1.48723e-05 -5.76512e-05 0.000104334)
(-4.32785e-07 -1.6774e-06 3.03614e-06)
(-9.928e-09 -3.84734e-08 6.96484e-08)
(-1.90844e-10 -7.39456e-10 1.33884e-09)
(-3.19417e-12 -1.23744e-11 2.24082e-11)
(-4.77785e-14 -1.85069e-13 3.35183e-13)
(-6.50834e-16 -2.52061e-15 4.56583e-15)
(-8.18784e-18 -3.17058e-17 5.74405e-17)
(-1.83327e-05 -7.10756e-05 0.00012861)
(-1.47254e-06 -5.70819e-06 1.03304e-05)
(-6.3813e-08 -2.47328e-07 4.4767e-07)
(-1.94588e-09 -7.54075e-09 1.3651e-08)
(-4.66818e-11 -1.80876e-10 3.27489e-10)
(-9.3667e-13 -3.62872e-12 6.57107e-12)
(-1.63353e-14 -6.32744e-14 1.14598e-13)
(-2.54188e-16 -9.84442e-16 1.78322e-15)
(-3.59661e-18 -1.39271e-17 2.52314e-17)
(-4.69334e-20 -1.81713e-19 3.29254e-19)
(-5.00847e-08 -1.94148e-07 3.51361e-07)
(-4.21824e-09 -1.63491e-08 2.95924e-08)
(-1.91487e-10 -7.42056e-10 1.34334e-09)
(-6.10572e-12 -2.36575e-11 4.28337e-11)
(-1.52888e-13 -5.92297e-13 1.07256e-12)
(-3.19646e-15 -1.23814e-14 2.24243e-14)
(-5.79917e-17 -2.24596e-16 4.06832e-16)
(-9.37349e-19 -3.6297e-18 6.57583e-18)
(-1.37576e-20 -5.32653e-20 9.6514e-20)
(-1.8598e-22 -7.19954e-22 1.30472e-21)
(-1.0806e-10 -4.18819e-10 7.55346e-10)
(-9.52114e-12 -3.68966e-11 6.65427e-11)
(-4.51823e-13 -1.75065e-12 3.15725e-12)
(-1.50365e-14 -5.82524e-14 1.05055e-13)
(-3.92327e-16 -1.51967e-15 2.7406e-15)
(-8.53345e-18 -3.30491e-17 5.96006e-17)
(-1.60827e-19 -6.2277e-19 1.12309e-18)
(-2.69668e-21 -1.04408e-20 1.88284e-20)
(-4.10058e-23 -1.58738e-22 2.86257e-22)
(-5.73614e-25 -2.22019e-24 4.00367e-24)
)
;
    }
}


// ************************************************************************* //
