/*--------------------------------*- C++ -*----------------------------------*\
| =========                 |                                                 |
| \\      /  F ield         | OpenFOAM: The Open Source CFD Toolbox           |
|  \\    /   O peration     | Version:  2.4.0                                 |
|   \\  /    A nd           | Web:      www.OpenFOAM.org                      |
|    \\/     M anipulation  |                                                 |
\*---------------------------------------------------------------------------*/
FoamFile
{
    version     2.0;
    format      ascii;
    class       volVectorField;
    location    "0.16";
    object      gradp;
}
// * * * * * * * * * * * * * * * * * * * * * * * * * * * * * * * * * * * * * //

dimensions      [1 -2 -2 0 0 0 0];

internalField   nonuniform List<vector> 
200
(
(1.10068e+33 -5.86356e+32 -4.75047e+32)
(2.70777e+33 -4.01468e+32 -5.37954e+32)
(2.41059e+33 -1.87431e+33 -1.76904e+33)
(2.87358e+33 -1.22551e+33 -1.72873e+33)
(-5.4287e+32 -4.77413e+33 -4.09889e+33)
(-1.05925e+33 -2.5509e+33 -2.90848e+33)
(-9.97752e+32 -5.32694e+33 -4.64712e+33)
(-4.44107e+33 3.14098e+32 -2.22941e+33)
(-1.16622e+33 1.05104e+33 -1.40999e+33)
(8.85539e+32 9.78959e+32 -8.55004e+32)
(5.7706e+32 -5.93653e+32 -1.71468e+32)
(1.3186e+32 -1.17217e+33 -9.14336e+32)
(7.62507e+32 -2.13275e+33 -7.42838e+32)
(-2.92606e+33 -3.35003e+33 -2.03121e+33)
(-3.19366e+33 -4.99412e+33 -1.16495e+33)
(-2.16488e+33 -4.72478e+33 -3.96598e+33)
(4.73225e+33 -3.00211e+33 -1.71118e+33)
(8.3149e+33 -5.02473e+32 -3.46997e+33)
(1.63498e+32 1.01362e+33 -1.54085e+33)
(7.35779e+32 1.44188e+33 -9.0955e+32)
(-3.22229e+32 -4.22437e+32 -2.69572e+32)
(-3.70416e+32 -1.01374e+33 -2.93475e+32)
(-1.94512e+33 -1.21357e+33 -8.42494e+32)
(-2.84916e+33 -2.11533e+33 -6.42888e+32)
(-3.29238e+33 -1.92828e+32 -1.61068e+33)
(2.92476e+33 6.47532e+32 -7.59948e+32)
(7.44687e+33 2.86884e+33 -2.33864e+33)
(3.5904e+33 -5.96071e+32 -1.50722e+33)
(2.72248e+33 -1.82686e+31 -1.23045e+33)
(-2.3876e+32 -2.80267e+32 -1.38156e+33)
(-6.28422e+32 -2.4652e+32 -7.4768e+30)
(-1.4504e+33 -2.93533e+32 -1.94934e+32)
(-1.44068e+33 -5.09948e+32 -2.99664e+32)
(-8.84582e+32 9.9624e+31 -8.83007e+32)
(2.33206e+33 1.52051e+33 -4.99387e+32)
(3.95845e+33 3.15906e+33 -1.18728e+33)
(2.24504e+33 8.09677e+32 -8.34674e+32)
(2.54069e+33 2.83937e+32 -7.7715e+32)
(7.95106e+32 -5.49717e+32 -1.04159e+33)
(-4.06806e+32 -8.96888e+32 -7.21382e+32)
(-2.80323e+32 -1.00629e+32 3.6307e+29)
(-1.433e+33 -1.00368e+33 -3.3816e+32)
(-1.3999e+33 -2.32391e+32 -9.44232e+32)
(-4.58195e+33 -1.70947e+33 -1.64219e+33)
(-4.31806e+33 -7.98284e+31 -2.48023e+33)
(-2.81358e+33 -4.2429e+33 -3.16777e+33)
(1.17528e+33 -6.2944e+32 -3.40613e+33)
(5.91773e+33 -1.6708e+33 -3.01645e+33)
(3.23187e+33 8.41674e+32 -1.21878e+33)
(3.00935e+33 8.91685e+32 -8.7587e+32)
(-1.60099e+33 -2.64894e+32 9.51805e+31)
(-1.69653e+33 -7.81008e+32 -3.28883e+32)
(-2.81149e+33 -6.50276e+32 -5.57776e+32)
(-4.27683e+33 -1.61268e+33 -1.19312e+33)
(-9.38492e+33 -1.01298e+33 -5.98633e+32)
(-3.9128e+33 -1.28713e+33 -1.61025e+33)
(6.31948e+33 6.9146e+32 -2.37474e+33)
(8.85996e+33 6.53023e+32 -3.64542e+33)
(8.35683e+33 1.3009e+33 -2.63973e+33)
(1.67162e+33 5.9939e+32 -1.34438e+33)
(-1.17617e+33 -1.60051e+32 4.71295e+31)
(-2.20377e+33 1.37307e+32 6.95118e+31)
(-3.06325e+33 -5.04488e+32 -2.26829e+32)
(-5.30736e+33 -2.78205e+32 6.14498e+31)
(-3.66698e+33 8.72077e+32 2.38654e+31)
(5.953e+32 5.09345e+33 -9.40337e+31)
(5.0556e+33 4.27124e+33 -1.65821e+33)
(7.1366e+33 3.71244e+33 -2.00008e+33)
(3.1246e+33 7.80537e+32 -1.68752e+33)
(1.16665e+33 2.08026e+31 -1.58889e+33)
(-1.13426e+33 -1.43767e+32 2.5384e+32)
(-2.3854e+33 -3.66481e+32 2.20419e+32)
(-3.64251e+33 -4.86632e+32 4.10225e+32)
(-1.5237e+33 5.08054e+32 2.77283e+32)
(1.35838e+33 2.73674e+33 1.32543e+32)
(2.88553e+33 3.30808e+33 -6.622e+32)
(3.55746e+33 3.56864e+33 -9.10079e+32)
(1.87855e+33 1.61854e+33 -9.88827e+32)
(9.73565e+32 4.54009e+32 -1.18284e+33)
(1.04634e+32 -5.05024e+31 -9.877e+32)
(-3.16955e+32 -4.34648e+32 4.93979e+32)
(-3.1493e+32 -3.86625e+32 4.41968e+32)
(-1.7623e+33 -1.25598e+33 8.94323e+32)
(-2.04163e+33 -5.06995e+32 7.72878e+32)
(-5.42474e+33 -1.76357e+33 1.89119e+33)
(-4.02213e+33 -5.88708e+31 1.76506e+33)
(-5.13524e+32 -3.67672e+33 2.17521e+33)
(2.55846e+33 -6.92262e+32 8.9514e+32)
(5.68363e+33 -1.22247e+33 2.71081e+32)
(2.02947e+33 2.29345e+32 1.00407e+32)
(-7.62214e+32 -5.18827e+32 3.8942e+32)
(-1.9576e+33 -5.199e+32 8.19147e+32)
(-2.00304e+33 -9.84903e+32 7.7584e+32)
(-3.0568e+33 -6.24212e+32 1.32728e+33)
(-4.52849e+33 -9.87558e+32 1.76421e+33)
(-7.84843e+33 1.93192e+32 3.69531e+33)
(-1.78031e+33 -2.05432e+32 2.0767e+33)
(7.46695e+33 1.12372e+33 5.39065e+32)
(7.52684e+33 2.63634e+32 -5.40697e+32)
(5.13491e+33 3.0105e+32 -6.08196e+32)
(-7.56852e+32 -1.68581e+32 4.26756e+32)
(-1.24708e+33 -1.34854e+32 5.81564e+32)
(-1.97092e+33 3.35236e+32 9.92218e+32)
(-2.04694e+33 2.3731e+32 1.3348e+33)
(-3.78993e+33 9.77054e+32 2.27223e+33)
(-2.45788e+33 2.16441e+33 1.98369e+33)
(1.34753e+33 5.2123e+33 1.45986e+33)
(3.49659e+33 3.65448e+33 1.0083e+32)
(4.03829e+33 2.31275e+33 -6.13176e+32)
(1.8096e+33 2.9042e+32 -2.81654e+32)
(-3.95944e+32 -3.06003e+32 3.14993e+32)
(-9.49968e+32 -1.37851e+32 5.7013e+32)
(-1.25871e+33 -5.79333e+31 9.66161e+32)
(-1.77316e+33 4.23887e+32 1.55947e+33)
(-6.74286e+32 9.30417e+32 1.26579e+33)
(6.22054e+32 2.56704e+33 8.92938e+32)
(1.19984e+33 2.45882e+33 1.97681e+32)
(1.66785e+33 2.27611e+33 -2.38498e+32)
(7.98713e+32 1.00978e+33 -2.56635e+32)
(5.91119e+32 4.24448e+32 -2.60072e+32)
(3.08052e+32 -2.67923e+32 8.99012e+31)
(-1.51901e+32 -4.00193e+32 3.22008e+32)
(-3.40992e+32 -4.21963e+32 2.64991e+32)
(-1.39197e+33 -8.22431e+32 7.88131e+32)
(-1.14308e+33 -2.82999e+32 7.29531e+32)
(-1.90471e+33 -1.1545e+33 2.09085e+33)
(-1.60847e+33 -7.87055e+32 1.73285e+33)
(-1.75498e+32 -2.24052e+33 2.02211e+33)
(6.88721e+32 -4.57171e+32 6.67642e+32)
(2.07831e+33 -2.4208e+32 2.6944e+32)
(-1.34679e+32 -3.7245e+32 2.98923e+32)
(-4.59982e+32 -5.57654e+32 4.10759e+32)
(-1.18547e+33 -4.93645e+32 8.66348e+32)
(-1.11404e+33 -7.13607e+32 8.94771e+32)
(-1.80723e+33 -4.03321e+32 1.54148e+33)
(-2.91282e+33 -9.37329e+32 2.03642e+33)
(-3.7805e+33 -4.53102e+32 3.6681e+33)
(4.8427e+32 -6.17873e+32 2.14852e+33)
(4.6856e+33 -1.13914e+32 6.03003e+32)
(2.98013e+33 -1.19076e+31 -7.31194e+31)
(-1.54424e+32 -2.79135e+32 2.26117e+32)
(-3.94291e+32 -2.6112e+32 3.97749e+32)
(-6.52897e+32 -1.99975e+32 5.83488e+32)
(-1.21132e+33 9.32962e+31 9.00287e+32)
(-1.59052e+33 7.46084e+31 1.05636e+33)
(-2.00427e+33 6.09655e+32 1.87131e+33)
(-9.69554e+32 1.2648e+33 1.62091e+33)
(5.0288e+32 2.46834e+33 1.21001e+33)
(1.90065e+33 1.23504e+33 4.64362e+32)
(2.46715e+33 5.77801e+32 1.04451e+32)
(-1.25101e+32 -2.57318e+32 1.96047e+32)
(-3.01661e+32 -2.1646e+32 2.88492e+32)
(-4.76635e+32 -1.64206e+32 4.46583e+32)
(-5.64871e+32 1.28191e+30 6.17552e+32)
(-7.74508e+32 3.56532e+32 9.11241e+32)
(-5.32431e+32 7.22704e+32 7.42902e+32)
(-6.31337e+31 1.33626e+33 6.36859e+32)
(4.24735e+32 1.24547e+33 3.17068e+32)
(9.04528e+32 1.22679e+33 1.31645e+32)
(8.83064e+32 5.46408e+32 1.58129e+32)
(3.46778e+32 -1.00213e+32 7.13322e+31)
(2.45356e+32 -2.44624e+32 7.98342e+31)
(-2.70708e+32 -2.93811e+32 1.95475e+32)
(-5.55104e+32 -3.36371e+32 1.01798e+32)
(-1.25602e+33 -4.64444e+32 4.56994e+32)
(-8.11518e+32 -1.45966e+32 6.65043e+31)
(-7.3352e+32 -5.80308e+32 7.98617e+32)
(-8.502e+32 -4.90007e+32 3.39925e+32)
(7.50948e+31 -1.32589e+33 5.87773e+32)
(9.23747e+32 -3.1875e+32 1.48167e+32)
(7.56444e+31 -3.00882e+32 1.76151e+32)
(-1.41841e+32 -3.98714e+32 1.77065e+32)
(-4.54201e+32 -4.75307e+32 2.7557e+32)
(-8.96369e+32 -4.44762e+32 4.05586e+32)
(-8.7521e+32 -4.64625e+32 3.43591e+32)
(-1.04325e+33 -1.58073e+32 6.96841e+32)
(-1.4216e+33 -3.84534e+32 9.27834e+32)
(-2.34137e+33 -1.75628e+32 1.43399e+33)
(4.17608e+32 -6.16127e+31 4.48207e+31)
(2.87263e+33 3.7069e+31 1.00248e+32)
(-2.38282e+31 -3.33182e+32 1.16062e+32)
(-1.03494e+32 -3.30481e+32 1.79172e+32)
(-3.62804e+32 -3.36389e+32 2.06936e+32)
(-5.33739e+32 -2.0624e+32 2.69826e+32)
(-6.82641e+32 -3.13324e+31 4.1868e+32)
(-6.51337e+32 9.47822e+31 5.53539e+32)
(-7.68631e+32 3.62307e+32 8.41472e+32)
(-2.04356e+32 7.24167e+32 6.16328e+32)
(5.00489e+32 1.55858e+33 6.20461e+32)
(9.42225e+32 6.60417e+32 1.78777e+32)
(-8.46324e+31 -2.44098e+32 1.42371e+32)
(-1.48254e+32 -2.61621e+32 1.33714e+32)
(-2.05718e+32 -2.3145e+32 1.90311e+32)
(-2.86256e+32 -1.27618e+32 2.18376e+32)
(-2.73166e+32 -8.14158e+30 2.77378e+32)
(-2.55968e+32 1.72574e+32 3.75045e+32)
(-1.62832e+32 2.96046e+32 3.63773e+32)
(5.1168e+31 5.65884e+32 3.43889e+32)
(2.90108e+32 4.69486e+32 2.47033e+32)
(4.67881e+32 4.31251e+32 1.51883e+32)
)
;

boundaryField
{
    inlet
    {
        type            zeroGradient;
    }
    outlet
    {
        type            zeroGradient;
    }
    bottom
    {
        type            zeroGradient;
    }
    top
    {
        type            symmetryPlane;
    }
    side1
    {
        type            symmetryPlane;
    }
    side2
    {
        type            symmetryPlane;
    }
    procBoundary1to0
    {
        type            processor;
        value           nonuniform List<vector> 
20
(
(4.59587e+32 -1.39659e+32 -1.06391e+32)
(-2.16538e+32 -4.6072e+32 -2.33694e+32)
(-1.13179e+31 -4.10995e+32 -2.66192e+31)
(-2.74853e+32 -1.90832e+32 -3.68584e+31)
(-6.43289e+32 -3.43345e+32 1.04851e+32)
(-6.26469e+32 -3.33086e+32 8.96404e+31)
(-5.80772e+32 -9.60574e+31 2.05331e+32)
(-3.35498e+32 -2.69191e+32 1.47769e+32)
(1.30872e+32 -1.63995e+32 2.58101e+32)
(-3.53339e+32 -2.99951e+32 3.60924e+32)
(-2.52715e+32 -3.17989e+32 2.6227e+32)
(-7.29856e+31 -3.68638e+32 2.54767e+32)
(1.79112e+32 -1.78828e+32 1.14592e+32)
(-8.22668e+30 -3.26416e+32 1.48928e+32)
(3.75331e+30 -2.65909e+32 1.68679e+32)
(-8.52149e+31 -2.13598e+32 1.91207e+32)
(2.81236e+32 -1.09057e+32 6.77323e+31)
(2.2416e+32 -2.13411e+32 1.11339e+32)
(3.76698e+31 -2.50343e+32 1.3836e+32)
(-4.64495e+31 -2.42915e+32 1.21068e+32)
)
;
    }
    procBoundary1to2
    {
        type            processor;
        value           nonuniform List<vector> 
20
(
(1.2262e+33 9.76163e+32 -7.46301e+32)
(-6.78828e+32 4.51475e+32 -1.2484e+33)
(-1.48247e+33 -5.89561e+32 -7.91256e+32)
(-4.57645e+32 -5.33585e+32 -8.81769e+32)
(1.00648e+33 1.7281e+32 -8.613e+32)
(-1.61623e+32 3.79547e+32 -1.265e+33)
(4.51528e+32 -2.95663e+30 -1.04741e+33)
(-4.96844e+31 -1.4961e+32 -8.70989e+32)
(1.40656e+33 3.30244e+32 -1.98677e+31)
(1.05681e+33 1.53699e+32 -1.31788e+32)
(1.08928e+33 4.08549e+31 -2.06768e+32)
(6.84139e+32 2.09227e+32 -1.33756e+31)
(1.0179e+33 -6.26246e+30 3.22102e+32)
(1.65841e+33 8.05069e+31 -1.03959e+32)
(1.23797e+33 1.86503e+32 1.93306e+32)
(8.55232e+32 2.93626e+32 9.31336e+31)
(1.45847e+33 -3.51454e+32 2.26971e+32)
(1.72615e+33 -5.23738e+31 1.12262e+31)
(1.0699e+33 3.56203e+32 1.4392e+32)
(4.64613e+32 1.4468e+32 1.17289e+32)
)
;
    }
    procBoundary1to9
    {
        type            processor;
        value           nonuniform List<vector> 
50
(
(-5.27632e+32 3.44802e+32 -2.05352e+32)
(-8.97271e+32 7.81118e+32 -3.39067e+32)
(-1.15881e+33 9.75818e+32 -8.27922e+32)
(1.21175e+33 1.70692e+33 -3.87619e+32)
(2.8265e+33 1.82131e+33 -8.50534e+32)
(1.5031e+33 4.70343e+32 -6.66814e+32)
(1.69662e+33 1.42326e+32 -6.14285e+32)
(8.71607e+32 -3.85486e+32 -6.73093e+32)
(3.60827e+32 -7.76778e+32 -6.03117e+32)
(-2.06495e+32 -6.89607e+32 -8.52568e+32)
(-1.37075e+33 -6.31511e+32 9.95272e+30)
(-2.8895e+33 -1.0572e+33 1.66813e+32)
(-1.31418e+33 -8.21332e+31 5.56801e+31)
(1.13939e+33 1.27355e+33 2.64114e+32)
(1.93308e+33 1.52572e+33 -3.44941e+32)
(2.2591e+33 1.36108e+33 -4.64047e+32)
(1.67653e+33 6.11275e+32 -6.27496e+32)
(9.07345e+32 1.98708e+32 -7.54971e+32)
(-2.13492e+32 -1.36723e+32 -7.12837e+32)
(-4.05902e+31 -2.07721e+32 -7.63052e+32)
(-2.95279e+32 -4.34392e+32 3.55787e+32)
(-7.50944e+32 -4.78524e+32 6.75328e+32)
(-8.47445e+32 -3.69959e+32 1.19373e+33)
(-7.02421e+31 1.89606e+32 1.01807e+33)
(4.9638e+32 8.78475e+32 7.84599e+32)
(5.98923e+32 8.52673e+32 3.6783e+32)
(7.65664e+32 9.17448e+32 6.46236e+31)
(5.98516e+32 4.70176e+32 -1.32341e+32)
(3.34967e+32 2.4723e+32 -1.3019e+32)
(2.08498e+32 2.10609e+32 9.14152e+31)
(-1.60148e+32 -1.40489e+32 2.64807e+32)
(-2.08067e+32 -1.48543e+32 3.20393e+32)
(-2.17414e+32 -2.2177e+31 4.7504e+32)
(-1.69843e+32 1.08854e+32 5.55596e+32)
(-1.4768e+32 3.03941e+32 4.69765e+32)
(-4.48248e+31 5.5809e+32 3.74772e+32)
(7.59775e+31 6.07887e+32 2.69176e+32)
(2.8394e+32 6.31111e+32 1.41123e+32)
(5.02529e+32 4.92565e+32 1.26679e+32)
(6.00835e+32 3.49956e+32 1.08703e+32)
(-6.12411e+31 -1.44705e+32 1.24325e+32)
(-7.81982e+31 -1.15152e+32 1.50946e+32)
(-9.4797e+31 -7.03825e+31 1.64909e+32)
(-8.71226e+31 -5.64684e+30 1.89263e+32)
(-8.22581e+31 8.45655e+31 1.90759e+32)
(-4.29618e+31 1.47997e+32 2.09708e+32)
(1.79892e+31 2.36622e+32 1.91341e+32)
(1.42524e+32 2.77238e+32 1.91587e+32)
(2.31224e+32 2.77107e+32 1.47149e+32)
(2.92611e+32 2.30576e+32 1.06804e+32)
)
;
    }
}


// ************************************************************************* //
