/*--------------------------------*- C++ -*----------------------------------*\
| =========                 |                                                 |
| \\      /  F ield         | OpenFOAM: The Open Source CFD Toolbox           |
|  \\    /   O peration     | Version:  2.4.0                                 |
|   \\  /    A nd           | Web:      www.OpenFOAM.org                      |
|    \\/     M anipulation  |                                                 |
\*---------------------------------------------------------------------------*/
FoamFile
{
    version     2.0;
    format      ascii;
    class       volVectorField;
    location    "0.07";
    object      U;
}
// * * * * * * * * * * * * * * * * * * * * * * * * * * * * * * * * * * * * * //

dimensions      [0 1 -1 0 0 0 0];

internalField   nonuniform List<vector> 
200
(
(17074.5 60816.9 -2010.87)
(43705.7 127897 67674)
(4536.87 40253.2 72905.3)
(60126.8 168083 77912.3)
(57869.8 46560 107842)
(67523.9 183126 -18250.5)
(96178.2 -11559.3 78689.9)
(85666.1 149305 16255.7)
(95932 -80503.5 67895)
(76406 108582 86973.7)
(5723.03 20591 14220.7)
(39660.6 58985.7 945.327)
(46594.7 70562.9 25882.8)
(67531 42080.4 22974.9)
(67425.2 95917.3 26861.9)
(89048.3 21016.2 37149.7)
(100698 63103.3 19755.4)
(105420 -36192.3 36371.2)
(93584.5 43037.2 40916.3)
(97958.4 -44720.5 10391.9)
(21106 47486.8 8083.97)
(28316.9 15942.8 9303.62)
(38985.7 50561.4 -4217.89)
(52785.8 38935.9 6122.89)
(30833.7 95162.1 -5888.46)
(83945.1 16761.9 -9242.21)
(88986.7 -353.185 -5695.94)
(83832.6 11617.8 -719.314)
(91681.1 -3697.96 -6711.59)
(88467.1 6981.63 -887.843)
(26636.2 -71099.3 13314.4)
(21931.5 42808 -24421.3)
(39100.5 35525.2 -12147.7)
(43303.9 42476.7 -8539.06)
(57750.7 5782.27 -13596.8)
(73567.9 10101.8 -6488.41)
(73318.2 3233.58 -3049.89)
(81986.7 8008.03 -10297.2)
(79720 8218.23 -3285.65)
(84776.8 11973.8 -18192.5)
(-1118.37 36984.4 -10056.5)
(33186.7 56731.6 -17454.6)
(52986.8 73778.1 14830.5)
(67538.2 9821.98 25799)
(87783.8 78547.9 39865.3)
(98660.4 -42388.2 82043.7)
(89226.9 126138 76337.2)
(100945 -74031 77255.1)
(77604.6 121226 101950)
(93520.7 -48846.5 -2310.76)
(24109.2 67070 1660.99)
(14840 25010.2 -11003.3)
(44882.9 46672.1 -18677.3)
(42106.2 45459.9 -14562.6)
(69281.6 10987.7 -1167.17)
(52220.9 71930 5156.64)
(85825.2 -44128.4 63930.4)
(66808.4 106087 63038.1)
(84038.4 -1606 -11083.2)
(88862 50162.1 9685.12)
(7664.95 5673.95 1939.46)
(29863 38440.8 1848.66)
(23882.1 13917.1 -13728.1)
(38842.8 37681.2 -14341.2)
(37932.6 22733.5 -16831.8)
(59436 24717.2 -7923.67)
(50678.1 38547 -2806.59)
(67200.1 22581.6 -13970.2)
(70356.2 36025.6 -6333.84)
(77800.1 27991.7 -29238.7)
(-5708.06 22432 -24907.2)
(29666.1 429.32 -10224)
(12641.6 46852.5 -74004.3)
(50322.9 -9246.06 -23110.3)
(45690.6 14430.8 13322.8)
(70019.1 4352.68 -14279.8)
(68898.9 17703.8 -10232.3)
(66469.7 16806 -8096.93)
(74157.3 30651.8 -19773.8)
(73583.1 15367.1 -14806.4)
(27065.1 37233.4 -30280.5)
(40489.1 25449.3 -7518.92)
(39387.5 15150.7 -50.0487)
(35308.1 11857.2 -17590.6)
(45570.4 -3599.64 18920.8)
(48099.6 79934.1 45848.4)
(66311.3 -49411.7 83841.4)
(67790.4 129620 95921.9)
(86339.9 -1943.18 470.861)
(100793 77998.6 37229.6)
(36163.2 27152 -4405.52)
(39553.5 19905.7 3012.61)
(37696 18693 -11694.8)
(40369.1 19863 -64.2983)
(33609.9 16101.6 -17479.5)
(44744.7 20417.3 548.478)
(41649.6 48332.3 -1224.76)
(68595.9 29049.7 -9190.44)
(73764.7 50424 -2910.34)
(84898.2 23046.1 -23420.4)
(25279 19087 71.6076)
(34098.5 11983.5 -6849.74)
(36728.4 14937.6 -5422.97)
(41175.9 8822.86 -13444)
(31071.1 34380.5 -11088.9)
(50120.3 17081.6 -21726.9)
(60672.1 23447.5 -7589.61)
(62760.1 24606.3 -15538.2)
(69015.9 23255.7 -18725.7)
(70001.9 16051.6 -26810.6)
(29236.6 12668.8 -1486.03)
(17557.4 10541.3 -42141.5)
(57792.4 -6187.96 -15751.2)
(26102.5 68527.9 -100729)
(100897 -59673.1 -129693)
(61904.7 -17912 23686.4)
(74961.1 12283.7 10215.1)
(73767.1 16166.2 -14632.5)
(64510 14101.8 -21308.4)
(65961.9 26086.2 -26959.9)
(25377.2 53256 -61565)
(-1629.11 25866.2 -19708.3)
(9920.9 25531 -28548.1)
(3910.14 7209.06 -51.8529)
(11714.3 54520.3 1097)
(6493.87 1405.33 9752.51)
(37468.2 106278 62898.4)
(40215.6 14882.2 -11514.7)
(77935.9 101710 52654.3)
(56249.6 28980.1 -30919.1)
(2145.98 92844.9 -75931)
(31419.2 91030.7 1109.74)
(20032.6 10445.9 -14166.6)
(27426.8 29123.1 -28408.5)
(23815 19887.4 -4590.28)
(28545.7 38395.1 -13507.8)
(34048.4 17213.2 -6934.38)
(54784 54983.8 4552.74)
(55399.1 18829.2 -17034.1)
(75450.2 61322.3 11981.8)
(21505.7 78270.8 -58.4623)
(37799 29028.4 -13308.4)
(40698.6 28076.6 -10261.5)
(35236.6 34383 -11362.3)
(36595.7 30461.9 -15396.9)
(32378.1 13487 -1888.72)
(51059.9 21060.7 -21732.1)
(54084.7 -15834.7 26728.5)
(62137.5 35788.1 -4479.69)
(60961.5 11228.4 -19302.7)
(11572.4 43024.9 -89260.6)
(58950.1 33646.9 -14532.2)
(41331.4 40050.7 3200.71)
(48986.6 27380.2 -4359.56)
(27414.4 8040.07 5859.77)
(34566 34038.9 9993.43)
(28247.8 -99615 28846.7)
(34286.2 46929.6 60856.3)
(72468.9 2357.63 -11349.6)
(57665 19284.4 -28553.6)
(19047.5 17191.2 85952)
(7870.33 53609.4 -50678.6)
(-19792.3 24512.2 45718.2)
(-21204.5 44807.4 -21083.7)
(-12094.2 41216.6 12032.2)
(24554.8 134198 74977)
(9045.36 32510.2 -21929.2)
(62898 124167 70756.3)
(39887.9 34231.8 -17575.3)
(84920.5 88203.5 35578.1)
(44964.8 60441.8 -56223.3)
(-15976.6 70489.1 15757.3)
(1509.8 71192.1 -29967)
(-8725.39 28083.1 18868.3)
(-2164.08 41427.6 -23901.6)
(7943.65 30652.8 19832.1)
(30263.4 64592.7 8194.96)
(38591.7 24081.7 7574.32)
(66650.5 56098.1 11412.1)
(62534.7 11312.9 345.548)
(-21514.1 134892 -70443.9)
(1698.39 143725 -26617.1)
(12370.8 10559.3 -21571.4)
(21757.6 24427 -22527.3)
(18653 16277.5 7966.04)
(27439.9 26667.5 -18492.6)
(32621.3 13867.2 14920.5)
(41553.2 27852.5 -11972.2)
(49412.8 9278.12 4379.45)
(56501.8 19003.3 -7415.97)
(10682.5 75444.5 -23174.2)
(37864.8 -4305.28 -19604.3)
(43615.3 14072.2 -12491.6)
(38595.2 6302.09 2114.59)
(33819.2 27152.3 -9019.94)
(33945.2 -12344.2 31010.7)
(29506.4 32360.4 -1321.64)
(44649.4 11066.6 -3723.48)
(46924.4 14396.8 -12467.7)
(44095.5 2725.43 -976.839)
)
;

boundaryField
{
    inlet
    {
        type            calculated;
        value           nonuniform 0();
    }
    outlet
    {
        type            calculated;
        value           nonuniform 0();
    }
    bottom
    {
        type            calculated;
        value           uniform (0 0 0);
    }
    top
    {
        type            symmetryPlane;
    }
    side1
    {
        type            symmetryPlane;
    }
    side2
    {
        type            symmetryPlane;
    }
    procBoundary17to9
    {
        type            processor;
        value           nonuniform List<vector> 
50
(
(68298.5 211643 133143)
(-68565.5 -4101.18 157782)
(23530.9 246983 143248)
(-16234 89305.4 225548)
(-53728.6 336747 -233298)
(40474.6 12515.2 68735.9)
(-41394.3 293080 -200996)
(42140.5 -44422.6 10556)
(-26545.2 191092 -54947.3)
(32685.7 -81917.1 4136.06)
(4604.42 61469.5 -17580.6)
(74995.1 139310 77663.5)
(37259.8 -12131.4 121823)
(125580 143219 116793)
(94284.8 -23943.9 131695)
(103148 161750 60353.1)
(94659.3 -66559.2 111694)
(54183 192661 65238.6)
(79357.1 -96348.7 54545.3)
(49678.1 149245 110443)
(26395.9 42430.3 -34876.8)
(30501.2 18378.5 2094.22)
(52887.3 12582.3 -3060.35)
(58340.5 -13482.1 28429.2)
(82841 89376 70906.5)
(83835.9 -59876.2 109115)
(76603 171851 137614)
(90114.5 -61276.6 62794.6)
(75903.1 153226 121643)
(90846.5 -31524 -15771.3)
(-14066.1 22812.2 30615.1)
(-2644.58 29566.6 -40183.8)
(-6660.5 -380.481 10225.3)
(14746.7 99919.3 69186.5)
(13200.8 -52076.6 44322.6)
(37833.2 151713 131784)
(38911.6 -26244.4 37627.6)
(60991.5 148148 117147)
(50377.8 11310.2 -19697.6)
(85414 107611 50361.1)
(-3587.87 44074.8 -59402.3)
(-26101.3 18256.7 50763.8)
(-28225.5 36163.2 -31659)
(-29701.8 33193.4 8530.56)
(7425.74 137366 86251.6)
(-19670.8 737.165 -9550.51)
(32647.8 144441 102459)
(9159.89 34127.6 -29680)
(31988.5 61696.2 108004)
(30208 60279.1 -34263.4)
)
;
    }
    procBoundary17to16
    {
        type            processor;
        value           nonuniform List<vector> 
20
(
(-20299.2 24096.5 13323.5)
(13274 55127 8103.63)
(5679.41 -41438.7 15551.1)
(11308.1 13310.3 -10533.9)
(7635.85 67673.9 -845.03)
(-5212.12 11253.7 -4158.84)
(5830.19 49270.5 10756.2)
(6602.19 10048.4 139.516)
(32725.7 57255 -60386.9)
(10400.4 38705 -10569.7)
(15400.5 28098.5 -3958.78)
(-7656.66 25562.4 -48068)
(34898.8 25456.9 -38829.8)
(44484.5 44621.9 -53863.5)
(-9817.41 129510 -67687.4)
(-458.752 74878.3 -2694.08)
(36644 92892 -31141.9)
(57924.4 61561.7 13827.8)
(62810.2 28053.5 -39903.2)
(-21672.2 230283 -81350.5)
)
;
    }
    procBoundary17to18
    {
        type            processor;
        value           nonuniform List<vector> 
20
(
(77382.2 -91341.8 25600.5)
(96897.3 9464.33 25512.5)
(90754.6 -2543.07 -15929.2)
(89863.2 2183.49 -7270.69)
(103208 47180.2 32427.3)
(87025.8 10382.9 -44591.5)
(79542.2 17704 -22204.1)
(79312.6 30423.6 -29273.7)
(94132.4 17566.7 -37575.4)
(92737.7 35847.7 -15112.1)
(73874.5 19071 -31683.6)
(64429.6 16254.9 -29965.7)
(99721.4 82251.7 24479)
(64258.6 11982.3 -26696.7)
(65628.4 25078 -21637.7)
(50703 14859.5 -27573.5)
(77834.1 42192 -13463.1)
(93620.9 30749.3 3584.32)
(51006.7 -11391.5 412.281)
(38738.5 5247.56 -13689)
)
;
    }
    procBoundary17to25
    {
        type            processor;
        value           nonuniform List<vector> 
50
(
(27803.2 7922.49 -25967.3)
(37502.8 31805 -25415.6)
(50889.1 45604.3 -23364)
(27511.5 21768.7 -63546.2)
(50257.8 12401.6 -21143.4)
(60462.3 -2209.64 5020.77)
(78710.2 -1612.07 -3194.83)
(58458.8 10557.8 25432.7)
(88910.8 16672.7 -26718.2)
(89203.4 3432.22 -6414.99)
(16048.4 16305.7 -15849.7)
(-19297.4 -13604.7 -150566)
(43166.5 -9794.56 -36170.3)
(71392.3 76787.9 -10998.7)
(86153.1 4284.83 -45802.1)
(82324.9 5344.33 -4490.96)
(67600.9 11043.9 8252.14)
(75613.1 26575.6 -16318.3)
(74128.5 14814.1 -10513.2)
(78594.7 37483.9 -25863)
(40645.2 -29962.5 -100605)
(43184.9 11109.1 851.909)
(15130 -190097 -357273)
(59299.4 -13542.9 -29763.8)
(126370 14101.3 8686.47)
(92675.1 11110.1 40360.9)
(75552.9 -3320.27 9270.7)
(66517 14618.2 -9241.53)
(70857.6 27170.2 -23396.9)
(66526 19771.5 -19052.6)
(63922.9 8056.32 -19470.5)
(81600.2 5134.84 -25521.1)
(52894.5 12018.9 -23596)
(34539.9 34828.7 16881.9)
(34498.5 34519.9 16221.8)
(46564 -31728.4 8086.6)
(39385.9 37111.1 11271.2)
(45851.3 -104212 9859.1)
(42721.9 15246.8 -20009.3)
(71703.9 26054.6 -18583)
(64085.9 -9244.27 -15376.4)
(50935.3 13911.6 -8580.7)
(55937 -6861.55 673.03)
(30480.7 40647.3 3336.33)
(42678.5 4826.12 10575.4)
(9211.29 48684.5 15698.1)
(37189.4 7170.53 -22363.3)
(28145.5 3501.13 -6908.38)
(44178.8 -1405.07 4027.46)
(36626.1 2045.37 -17965.8)
)
;
    }
}


// ************************************************************************* //
