/*--------------------------------*- C++ -*----------------------------------*\
| =========                 |                                                 |
| \\      /  F ield         | OpenFOAM: The Open Source CFD Toolbox           |
|  \\    /   O peration     | Version:  2.4.0                                 |
|   \\  /    A nd           | Web:      www.OpenFOAM.org                      |
|    \\/     M anipulation  |                                                 |
\*---------------------------------------------------------------------------*/
FoamFile
{
    version     2.0;
    format      ascii;
    class       volVectorField;
    location    "0.16";
    object      U;
}
// * * * * * * * * * * * * * * * * * * * * * * * * * * * * * * * * * * * * * //

dimensions      [0 1 -1 0 0 0 0];

internalField   nonuniform List<vector> 
200
(
(7.9543e+14 4.31921e+15 -5.12659e+15)
(6.82908e+14 2.61245e+15 2.68658e+15)
(1.97711e+15 1.92736e+15 2.01675e+15)
(1.19717e+15 6.46327e+14 1.60186e+15)
(1.61939e+15 1.75231e+15 1.40394e+15)
(1.0336e+15 -2.58295e+14 1.17508e+15)
(1.47884e+15 3.23982e+14 1.20762e+15)
(9.79349e+14 -5.17776e+14 2.83406e+14)
(9.12195e+14 5.63182e+14 8.59904e+14)
(1.09015e+14 7.70656e+14 7.60696e+14)
(-3.2544e+14 -6.21424e+14 5.41261e+14)
(4.09446e+14 1.09253e+15 1.19954e+15)
(2.31182e+14 -8.74167e+13 5.77191e+14)
(3.38021e+14 6.96707e+14 9.50612e+14)
(-6.17352e+13 -1.09293e+14 3.56677e+14)
(-9.97591e+13 5.15874e+13 6.46818e+14)
(-2.09744e+14 -1.05398e+13 5.79921e+14)
(3.57471e+13 -1.5498e+15 -1.08342e+15)
(-2.48555e+14 9.04449e+14 -1.70085e+14)
(-3.47238e+13 -3.1452e+14 -1.61974e+14)
(-6.76435e+14 9.69256e+14 6.50511e+14)
(-6.54259e+14 -6.7389e+14 -1.67606e+14)
(-4.48153e+14 6.9092e+14 6.90767e+14)
(-5.08355e+14 -5.0708e+13 8.07153e+13)
(-6.25977e+14 2.26227e+14 5.39427e+14)
(-3.07819e+14 1.739e+14 9.55545e+14)
(-4.23817e+14 -1.926e+15 -1.61433e+15)
(-3.65406e+14 6.47155e+14 -6.50686e+11)
(-4.45897e+14 -6.12594e+14 -4.13415e+14)
(-4.46138e+14 5.66234e+14 2.08132e+13)
(-1.16246e+15 -1.62e+15 -3.54534e+14)
(-8.40689e+14 4.36814e+14 5.12689e+14)
(-7.95931e+14 -5.23936e+14 -7.20673e+13)
(-9.55827e+14 -8.26604e+13 4.68176e+14)
(-2.23757e+14 1.68751e+13 1.3688e+15)
(-8.16115e+14 -2.38237e+15 -2.34888e+15)
(-3.22936e+14 7.73634e+14 -1.14612e+14)
(-6.84827e+14 -8.51681e+14 -6.3398e+14)
(-5.24671e+14 5.83182e+14 -1.24728e+14)
(-5.83553e+14 -1.3268e+14 -9.83775e+11)
(-7.65603e+14 -4.28124e+13 1.89612e+15)
(3.8378e+14 4.03032e+14 2.01337e+15)
(1.38088e+14 -2.84603e+14 1.60977e+15)
(8.41745e+14 8.06568e+14 1.66113e+15)
(4.44326e+14 -5.19824e+14 1.23139e+15)
(9.69823e+14 1.00233e+14 1.37816e+15)
(3.72101e+14 -3.032e+14 8.14947e+14)
(4.93161e+14 2.42114e+14 1.13548e+15)
(-5.03247e+13 5.40065e+14 1.30002e+15)
(2.95308e+14 1.02283e+14 5.77656e+14)
(-5.38586e+14 1.93083e+14 1.19157e+15)
(-6.01526e+14 -8.36906e+14 5.75982e+14)
(-2.74837e+14 2.65554e+14 1.21935e+15)
(-4.77357e+14 -3.56661e+14 6.19519e+14)
(-2.00788e+14 1.4818e+14 1.07425e+15)
(-5.0197e+14 -1.09934e+14 5.844e+14)
(-3.52964e+14 6.83958e+13 8.64513e+14)
(-4.84446e+14 1.31127e+14 7.57818e+14)
(-3.1184e+14 -2.997e+14 2.60732e+14)
(-5.31334e+14 3.65438e+14 5.1699e+14)
(-7.49167e+14 -1.09283e+15 7.43354e+13)
(-6.10064e+14 4.5612e+14 7.85951e+14)
(-7.52446e+14 -2.34914e+14 2.59418e+14)
(-5.05587e+14 2.4196e+14 7.93042e+14)
(-6.61034e+14 -1.9408e+13 3.44197e+14)
(-4.65813e+14 1.72929e+14 7.35339e+14)
(-4.84686e+14 1.07039e+14 6.46741e+14)
(-4.89736e+14 -8.07186e+14 -5.09584e+14)
(-7.87905e+14 2.97724e+14 1.34764e+14)
(-6.37644e+14 6.48363e+13 2.4258e+14)
(-7.61608e+14 3.76221e+14 3.87484e+14)
(-9.1007e+14 -3.90578e+14 -4.17822e+13)
(-7.04408e+14 2.7516e+14 5.89308e+14)
(-7.13745e+14 2.70302e+13 1.05869e+14)
(-4.04457e+14 6.8369e+13 4.51345e+14)
(-3.2269e+14 1.35651e+14 6.80173e+14)
(-5.57129e+14 -8.04324e+14 -6.11967e+14)
(-6.55538e+14 2.66094e+14 1.20609e+14)
(-7.39257e+14 -1.05323e+13 5.05071e+13)
(-7.7336e+14 9.53629e+13 1.21327e+14)
(-2.5701e+14 -2.65105e+14 1.25838e+15)
(-8.08586e+14 -1.04927e+15 8.08616e+14)
(-1.5042e+14 -6.364e+13 1.23041e+15)
(-5.31409e+14 -6.88365e+14 8.39622e+14)
(-1.87442e+13 -1.14247e+14 1.22083e+15)
(-4.21404e+14 -3.28378e+14 7.83352e+14)
(-1.72046e+14 -9.46518e+13 1.00551e+15)
(-4.29043e+14 8.38623e+13 9.00159e+14)
(-2.59416e+14 -4.65779e+13 9.50198e+14)
(-2.18677e+14 2.90095e+14 1.02616e+15)
(-8.72255e+14 -1.07399e+15 2.08618e+14)
(-6.47564e+14 -7.15608e+13 7.17301e+14)
(-8.42259e+14 -4.76499e+14 3.3087e+14)
(-5.51667e+14 -4.87288e+13 8.33444e+14)
(-7.78741e+14 -2.08815e+14 4.44882e+14)
(-5.35605e+14 1.09507e+13 7.70649e+14)
(-7.34337e+14 -5.10169e+13 4.67483e+14)
(-5.39517e+14 6.65272e+13 6.39623e+14)
(-5.99773e+14 9.16877e+13 5.32984e+14)
(-4.97232e+14 4.05417e+13 4.84422e+14)
(-6.22387e+14 3.25765e+13 3.82463e+14)
(-8.84704e+14 -3.49349e+14 1.66614e+13)
(-6.31342e+14 -4.07801e+13 4.11696e+14)
(-8.09898e+14 -1.16171e+14 1.49131e+14)
(-5.42657e+14 -2.08724e+13 4.58979e+14)
(-7.30167e+14 -5.57544e+13 2.08946e+14)
(-5.38805e+14 5.85688e+13 3.76278e+14)
(-6.3628e+14 5.42272e+12 2.64536e+14)
(-6.04874e+14 -6.49421e+13 1.21946e+14)
(-5.88325e+14 -1.05659e+13 1.72235e+14)
(-9.15196e+14 -1.06738e+14 -1.92943e+14)
(-6.67334e+14 -4.00869e+13 1.14894e+14)
(-8.61072e+14 1.24211e+12 -1.2948e+14)
(-5.97339e+14 -3.08715e+13 8.18661e+13)
(-6.85887e+14 -2.80618e+13 -1.09702e+14)
(-4.33024e+14 2.82897e+14 6.42563e+12)
(-5.74597e+14 -3.0853e+13 2.84184e+13)
(-5.68053e+14 2.59728e+13 6.24038e+12)
(-5.74398e+14 -7.95421e+13 -1.6808e+13)
(-5.27637e+14 2.35259e+13 5.35926e+13)
(-9.09825e+14 -7.3018e+14 3.23763e+14)
(-3.85974e+14 -1.72274e+14 7.31129e+14)
(-7.7685e+14 -5.72841e+14 2.34487e+14)
(-4.56751e+14 -9.65825e+13 7.32879e+14)
(-7.17653e+14 -2.85616e+14 3.82329e+14)
(-4.67972e+14 -5.356e+13 7.90875e+14)
(-6.70223e+14 -9.19899e+13 4.9358e+14)
(-5.00074e+14 -1.59469e+13 6.90784e+14)
(-4.9318e+14 1.47901e+14 6.40549e+14)
(-4.33882e+14 5.04113e+13 6.39305e+14)
(-4.9249e+14 -9.22714e+13 5.13313e+14)
(-7.71255e+14 -4.97837e+14 -3.47876e+13)
(-5.46759e+14 4.05526e+12 3.4552e+14)
(-7.87503e+14 -1.81776e+14 9.07371e+13)
(-5.92125e+14 6.19435e+13 5.13123e+14)
(-7.53887e+14 3.57876e+12 2.51467e+14)
(-5.44988e+14 7.28396e+13 5.39833e+14)
(-6.79568e+14 9.86234e+13 2.93712e+14)
(-4.9083e+14 1.53669e+14 4.24132e+14)
(-5.23238e+14 2.05261e+14 3.2786e+14)
(-6.64565e+14 -3.24669e+14 -2.529e+13)
(-5.24989e+14 -1.05318e+14 8.74116e+13)
(-6.5583e+14 -1.30131e+14 -1.69921e+14)
(-4.14087e+14 2.88327e+14 2.36708e+13)
(-6.3041e+14 -6.40343e+13 2.18371e+13)
(-5.4934e+14 1.59089e+14 2.66434e+14)
(-6.3609e+14 1.88106e+12 6.54863e+13)
(-5.37007e+14 8.72048e+13 1.48497e+14)
(-5.0948e+14 4.13076e+13 -1.60212e+13)
(-5.26279e+14 1.10181e+14 1.43945e+13)
(-4.38666e+14 -7.92477e+13 6.77517e+13)
(-6.38328e+14 2.62948e+13 -2.27311e+14)
(-5.43659e+14 -1.54322e+14 -2.01174e+14)
(-5.1232e+14 -1.30483e+14 -3.39081e+14)
(-2.99811e+14 7.00452e+14 -1.82026e+14)
(-4.71056e+14 -7.16376e+13 4.74611e+12)
(-4.83893e+14 2.62829e+14 2.56352e+13)
(-4.60608e+14 -7.78358e+13 -6.89458e+13)
(-5.22076e+14 1.16893e+14 -7.65748e+13)
(-3.62913e+14 7.66539e+13 -6.94446e+13)
(-4.93754e+14 6.08393e+12 3.29376e+14)
(-7.6274e+14 -2.22345e+14 2.12199e+14)
(-5.83011e+14 1.09897e+14 3.54717e+14)
(-7.39818e+14 -6.18154e+13 1.61472e+14)
(-5.96659e+14 1.64632e+14 3.92928e+14)
(-7.15826e+14 9.82771e+13 2.49634e+14)
(-5.50555e+14 1.18179e+14 4.93215e+14)
(-6.37658e+14 1.76645e+14 3.52586e+14)
(-4.93382e+14 1.65651e+14 3.75294e+14)
(-5.31922e+14 2.96276e+14 4.35384e+14)
(-6.36597e+14 2.98517e+12 2.15602e+13)
(-4.54133e+14 4.56439e+14 2.90192e+14)
(-6.89079e+14 -7.96828e+13 2.21151e+14)
(-5.86862e+14 3.7839e+14 1.61768e+14)
(-6.72919e+14 1.4253e+14 1.37591e+14)
(-5.75558e+14 3.75149e+14 2.64232e+14)
(-6.29546e+14 2.98941e+14 1.86709e+14)
(-4.82882e+14 3.21436e+14 3.85922e+14)
(-5.61593e+14 4.26608e+14 2.2753e+14)
(-3.93021e+14 4.22219e+14 3.28788e+14)
(-5.47367e+14 2.16863e+13 -1.02226e+14)
(-4.58588e+14 7.64296e+13 -1.74304e+14)
(-4.33317e+14 6.36183e+14 -5.25599e+13)
(-5.35003e+14 9.70522e+13 1.37975e+14)
(-5.34079e+14 5.64462e+14 2.89589e+13)
(-5.39444e+14 2.06319e+14 1.32154e+14)
(-5.2508e+14 5.0811e+14 1.44366e+14)
(-4.93841e+14 3.34533e+14 1.06597e+14)
(-4.84319e+14 4.60483e+14 1.89924e+14)
(-4.23981e+14 4.99173e+14 4.27073e+13)
(-4.08418e+14 1.50224e+14 -3.52847e+14)
(-5.48765e+14 -3.75213e+13 -1.75529e+14)
(-3.84805e+14 -4.73631e+13 -3.06606e+14)
(-3.84552e+14 6.84061e+14 -1.86961e+14)
(-4.17974e+14 6.18119e+13 5.89991e+12)
(-4.73818e+14 6.97623e+14 -7.84228e+13)
(-4.20618e+14 1.67254e+14 9.37332e+13)
(-4.89869e+14 5.39548e+14 1.56386e+13)
(-3.91177e+14 2.61324e+14 2.337e+13)
(-3.81089e+14 1.3818e+14 8.02297e+13)
)
;

boundaryField
{
    inlet
    {
        type            calculated;
        value           nonuniform 0();
    }
    outlet
    {
        type            calculated;
        value           nonuniform 0();
    }
    bottom
    {
        type            calculated;
        value           uniform (0 0 0);
    }
    top
    {
        type            symmetryPlane;
    }
    side1
    {
        type            symmetryPlane;
    }
    side2
    {
        type            symmetryPlane;
    }
    procBoundary17to9
    {
        type            processor;
        value           nonuniform List<vector> 
50
(
(-2.42246e+14 1.68108e+15 2.57469e+15)
(9.41037e+14 5.76612e+15 -8.76188e+15)
(1.00046e+15 3.32332e+15 2.94775e+15)
(2.12091e+15 1.94362e+15 1.83941e+15)
(1.49421e+15 8.62311e+14 1.36074e+15)
(1.63962e+15 2.5433e+15 1.11833e+15)
(1.18455e+15 -3.0744e+14 1.27732e+15)
(1.80664e+15 1.50581e+14 1.41877e+15)
(1.64291e+15 -1.22959e+15 -1.61022e+15)
(8.9978e+14 9.20196e+14 8.90173e+14)
(3.67308e+14 3.46961e+15 -5.8835e+15)
(-3.89066e+14 9.78778e+14 2.67437e+15)
(7.22754e+14 1.55975e+14 2.16033e+15)
(3.1634e+14 -6.61023e+14 1.63018e+15)
(9.8229e+14 6.99444e+14 1.48531e+15)
(4.36093e+14 -9.07397e+14 1.26008e+15)
(1.13707e+15 -1.23179e+14 1.46851e+15)
(1.22062e+15 -1.80441e+15 -9.21869e+14)
(3.73373e+14 3.42657e+14 1.23623e+15)
(-2.32154e+14 4.84462e+14 1.21502e+15)
(-9.62797e+14 -6.92022e+14 1.05308e+15)
(-1.11945e+14 -4.60955e+14 1.38023e+15)
(-6.0909e+14 -1.08479e+15 1.11408e+15)
(2.1346e+14 5.80037e+13 1.30245e+15)
(-3.60093e+14 -1.03729e+15 1.0241e+15)
(3.20922e+14 -2.66596e+14 1.20684e+15)
(-8.67751e+13 -6.18437e+14 5.18077e+14)
(-3.50901e+11 -1.20725e+14 9.69838e+14)
(-5.57702e+14 7.4991e+13 1.05553e+15)
(-2.07654e+14 -8.45026e+13 7.79616e+14)
(-7.4573e+13 -4.11507e+14 6.03705e+14)
(-8.58625e+14 -8.97441e+14 3.74068e+14)
(-9.19187e+13 -2.10174e+14 7.71535e+14)
(-6.6883e+14 -7.03845e+14 4.35493e+14)
(-1.01153e+14 -2.30743e+14 8.58513e+14)
(-5.412e+14 -3.6272e+14 4.77503e+14)
(-2.46534e+14 -2.40897e+14 7.80321e+14)
(-4.31238e+14 8.40922e+13 7.8932e+14)
(-3.65112e+14 -1.72094e+14 6.43247e+14)
(-3.76284e+14 2.10824e+14 8.07989e+14)
(-8.74047e+14 -4.02596e+14 2.00243e+14)
(-3.70312e+14 -2.22203e+14 4.40172e+14)
(-7.6232e+14 -3.72263e+14 2.46741e+14)
(-3.94775e+14 -1.5895e+14 4.93538e+14)
(-6.74246e+14 -2.06767e+14 2.99975e+14)
(-4.46074e+14 -1.90057e+14 5.34898e+14)
(-6.13309e+14 -6.35777e+13 3.87158e+14)
(-5.08111e+14 -1.82682e+14 3.77079e+14)
(-4.97843e+14 1.17082e+14 5.14201e+14)
(-4.77957e+14 -6.37109e+13 2.71664e+14)
)
;
    }
    procBoundary17to16
    {
        type            processor;
        value           nonuniform List<vector> 
20
(
(-8.00416e+14 7.42279e+14 2.2837e+15)
(-4.94909e+14 9.68728e+14 5.97128e+14)
(-8.74032e+14 -2.73588e+15 -7.85299e+13)
(-9.53951e+14 5.6385e+14 2.54179e+14)
(-5.2443e+12 1.27154e+15 -8.07983e+14)
(-1.00806e+15 -1.59108e+15 5.31461e+14)
(-7.25163e+14 5.12529e+14 6.24535e+14)
(-9.37575e+14 -1.56929e+15 -3.39429e+14)
(-1.17306e+15 -1.03627e+15 7.84544e+14)
(-6.21749e+14 -1.55122e+14 9.15423e+14)
(-6.419e+14 -1.24757e+15 1.20717e+13)
(-5.23826e+14 3.63369e+13 1.78599e+14)
(-2.56874e+14 -3.63114e+14 6.96253e+14)
(-8.29545e+14 -5.05923e+14 2.06669e+14)
(-4.08388e+14 -5.41514e+13 3.6508e+14)
(-5.6155e+14 1.87609e+14 -1.13229e+14)
(-8.15815e+14 -1.32254e+14 9.95324e+13)
(-5.33269e+14 -3.97094e+13 4.00671e+13)
(-4.86692e+14 2.24509e+14 -2.78573e+14)
(-4.1898e+14 -1.38573e+14 -9.88416e+13)
)
;
    }
    procBoundary17to18
    {
        type            processor;
        value           nonuniform List<vector> 
20
(
(4.55528e+14 2.76189e+14 3.5291e+14)
(-1.00349e+14 6.27191e+14 3.89215e+14)
(-3.96907e+14 6.64581e+13 1.10786e+14)
(-5.48288e+14 3.18565e+14 -2.33631e+13)
(2.8132e+13 6.66795e+14 9.42024e+14)
(-4.28668e+14 1.38901e+14 4.79368e+14)
(-6.93813e+14 1.62267e+14 2.73019e+14)
(-6.6952e+14 4.46729e+13 1.98318e+14)
(-2.51738e+14 -2.94286e+12 6.50508e+14)
(-4.92836e+14 1.03756e+14 4.85793e+14)
(-4.98051e+14 5.61728e+13 2.25008e+14)
(-5.19e+14 -4.61058e+13 1.00963e+14)
(-3.6272e+14 1.47378e+14 7.03653e+14)
(-4.18186e+14 1.97258e+14 3.88999e+14)
(-3.24848e+14 1.91552e+14 1.69239e+13)
(-2.57145e+14 -4.02028e+14 9.8321e+13)
(-4.19246e+14 2.34919e+14 2.46547e+14)
(-4.71982e+14 5.2412e+14 3.23911e+14)
(-2.79498e+14 5.55415e+14 2.21099e+14)
(-1.84025e+14 2.83003e+14 -2.09291e+14)
)
;
    }
    procBoundary17to25
    {
        type            processor;
        value           nonuniform List<vector> 
50
(
(-1.0029e+15 1.12935e+14 3.47109e+14)
(-1.04e+15 -1.01924e+15 -9.28483e+13)
(-1.24503e+15 -4.26097e+14 4.98344e+14)
(-2.60647e+14 -4.45354e+14 1.16495e+15)
(-1.14734e+15 -2.02459e+15 -1.82577e+15)
(-4.59237e+14 9.91475e+14 -5.90427e+14)
(-9.03752e+14 -8.96496e+14 -7.20619e+14)
(-6.06486e+14 6.22489e+14 -3.39312e+14)
(-7.21849e+14 -3.29939e+14 -1.24607e+14)
(-5.99263e+14 3.60582e+14 -2.024e+14)
(-8.75957e+14 -5.04431e+14 -3.08654e+14)
(-6.7782e+14 1.55586e+14 3.70088e+14)
(-6.71207e+14 -1.03134e+14 -7.353e+13)
(-3.44306e+14 -5.34291e+14 -1.63826e+14)
(1.10563e+13 4.05469e+14 3.83056e+14)
(-5.28368e+14 -5.60525e+14 -5.98249e+14)
(-4.77325e+14 2.81707e+14 5.64732e+13)
(-7.20674e+14 -7.13138e+13 -1.09558e+14)
(-7.48823e+14 1.12351e+14 -3.5167e+13)
(-6.87542e+14 -1.51492e+12 9.22366e+13)
(-5.92473e+14 -2.66618e+14 -9.7615e+13)
(-8.31952e+14 2.39616e+14 -2.69108e+14)
(-5.45418e+14 -1.01984e+14 -1.04659e+14)
(-7.35974e+14 6.76108e+13 -3.0555e+14)
(-5.66116e+14 -2.43089e+13 -2.0275e+14)
(-5.84671e+14 -6.9715e+13 -2.82323e+14)
(-4.67861e+14 2.30079e+14 -1.66238e+14)
(-5.6343e+14 -1.23012e+14 -1.3987e+14)
(-4.71329e+14 2.46261e+13 -4.12015e+13)
(-5.2918e+14 -6.91899e+13 -1.38028e+13)
(-5.37682e+14 4.68624e+14 -2.68178e+14)
(-4.27269e+14 -1.16005e+14 -1.07381e+14)
(-5.56444e+14 4.31776e+13 -3.66127e+14)
(-5.34094e+14 -1.47747e+14 -2.84777e+14)
(-4.36658e+14 -2.65513e+14 -3.5223e+14)
(-1.63769e+14 9.31084e+14 -2.15049e+14)
(-3.83937e+14 -1.13473e+14 -5.7844e+13)
(-3.13699e+14 2.60063e+14 -1.44343e+14)
(-2.89642e+14 -6.17838e+13 -1.28232e+14)
(-2.80279e+14 -4.91799e+14 3.7288e+13)
(-3.32485e+14 -1.5242e+14 -1.53377e+14)
(-3.57192e+14 -8.76635e+12 -3.83312e+14)
(-4.58927e+14 -1.72802e+14 -1.83773e+14)
(-3.88906e+14 -2.03334e+14 -3.39092e+14)
(-3.15233e+14 7.09843e+14 -2.16519e+14)
(-3.53345e+14 -1.37706e+13 -2.17846e+13)
(-3.90591e+14 7.11006e+14 -1.34079e+14)
(-3.14059e+14 7.6161e+13 1.60347e+13)
(-4.10832e+14 2.45735e+14 -7.8296e+13)
(-2.71051e+14 9.49276e+13 -1.71704e+14)
)
;
    }
}


// ************************************************************************* //
