/*--------------------------------*- C++ -*----------------------------------*\
| =========                 |                                                 |
| \\      /  F ield         | OpenFOAM: The Open Source CFD Toolbox           |
|  \\    /   O peration     | Version:  2.4.0                                 |
|   \\  /    A nd           | Web:      www.OpenFOAM.org                      |
|    \\/     M anipulation  |                                                 |
\*---------------------------------------------------------------------------*/
FoamFile
{
    version     2.0;
    format      ascii;
    class       surfaceScalarField;
    location    "0.04";
    object      phib;
}
// * * * * * * * * * * * * * * * * * * * * * * * * * * * * * * * * * * * * * //

dimensions      [0 3 -1 0 0 0 0];

internalField   nonuniform List<scalar> 
490
(
-2.83367e-05
-2.48383e-05
1.01968e-05
-3.58854e-05
-2.37376e-05
9.54183e-06
-4.33687e-05
-2.40362e-05
1.03357e-05
-5.77406e-05
-1.88595e-05
8.98991e-06
-0.000109479
1.17576e-05
1.24216e-05
-0.000140643
-1.99483e-05
1.57339e-05
-0.000128689
-9.54522e-05
3.61845e-05
-0.000220974
-5.4735e-05
6.71648e-05
-0.00033374
-0.000105964
0.000121676
-0.000199215
5.62659e-05
-2.77727e-05
-2.40057e-05
9.32836e-06
-3.25177e-05
-3.13616e-05
1.2369e-05
-5.51675e-05
-1.46431e-05
1.32567e-05
-9.42196e-05
3.32801e-06
1.68646e-05
-0.000127944
1.82396e-05
2.72426e-05
-0.000197801
5.88903e-06
4.40194e-05
-0.00038727
6.7656e-06
8.72515e-05
-0.000527008
-4.15323e-05
0.000126535
-0.000469662
-0.000252034
8.8724e-05
-0.000167681
4.87737e-05
-7.09862e-06
-2.97667e-05
8.36953e-06
-1.38304e-05
-3.51621e-05
1.05323e-05
-3.19225e-05
-1.04654e-05
1.39144e-05
-8.28332e-05
2.59745e-05
2.82641e-05
-0.000141819
4.96814e-05
2.7544e-05
-0.000204544
4.36324e-05
2.49816e-05
-0.000388852
0.000106433
8.46406e-05
-0.000597807
7.9406e-05
8.80173e-05
-0.000636389
-0.000262948
4.94958e-05
-0.000433665
7.6157e-05
2.63965e-05
4.61841e-06
3.97634e-05
1.04818e-05
3.56285e-05
3.48399e-05
3.89346e-05
2.36636e-05
-9.94412e-05
2.78442e-05
-0.000238111
5.56759e-05
-0.000262307
4.10929e-05
-0.000324461
3.88673e-05
-0.00050947
6.77623e-05
5.65037e-05
4.79668e-06
-1.53139e-05
1.20635e-05
-7.49493e-06
-1.13698e-05
1.65671e-05
-2.14829e-05
-1.48821e-05
2.00683e-05
-3.01347e-05
-2.23217e-05
2.18459e-05
-4.56617e-05
-2.10911e-05
2.26873e-05
-7.08807e-05
-2.70678e-05
3.39601e-05
-7.32562e-05
-3.84932e-05
3.55107e-05
-5.53647e-05
-5.80188e-05
5.96852e-05
-3.29911e-05
-2.53298e-05
6.57002e-05
-5.11669e-05
8.57686e-05
1.12791e-05
-1.15417e-05
7.23661e-06
8.26384e-06
-8.37918e-06
1.23937e-05
-3.16948e-07
-9.44464e-06
1.64e-05
-1.58744e-05
-1.0267e-05
2.03672e-05
-4.79518e-05
7.66057e-06
3.05683e-05
-9.41866e-05
2.3149e-05
4.00375e-05
-0.000147485
3.63109e-05
6.57456e-05
-0.000200642
5.23634e-05
6.93106e-05
-0.000255525
1.74682e-05
0.000100809
-0.000104894
3.889e-05
3.41773e-05
-1.24129e-05
5.10859e-07
4.05588e-05
-1.13291e-05
7.1007e-06
4.81414e-05
-9.63269e-06
6.5199e-06
4.13173e-05
5.28904e-07
2.42924e-05
6.1061e-06
2.2021e-05
4.83947e-05
-4.93825e-05
5.88278e-05
4.47914e-05
-6.63162e-05
9.19063e-05
4.5979e-05
-0.000154222
0.000149554
7.87319e-05
-0.000260645
0.000125842
4.75457e-05
-6.6613e-05
3.18467e-05
5.22958e-05
-3.11114e-06
7.17808e-05
1.49273e-05
0.000118486
2.38041e-05
0.000128554
4.18085e-05
0.000120628
4.67045e-05
8.84906e-05
5.0697e-05
4.5216e-05
4.18661e-05
3.78122e-05
5.06331e-05
4.5766e-05
2.58044e-05
4.85954e-06
5.41898e-05
7.05581e-06
-1.0748e-05
5.98451e-05
1.46088e-05
-5.15382e-06
5.75548e-05
2.40797e-05
-1.41713e-07
5.22002e-05
2.30314e-05
1.22872e-06
4.29485e-05
1.57076e-05
8.06812e-06
4.55163e-05
1.35519e-05
1.03627e-05
4.61084e-05
1.54974e-05
1.16038e-05
6.40857e-05
2.4342e-05
1.14572e-05
9.34516e-05
1.78876e-05
1.58924e-05
2.13608e-05
1.0095e-05
7.05217e-05
1.35832e-05
-1.77707e-05
7.39279e-05
3.95681e-05
-1.59718e-05
7.83969e-05
5.09607e-05
-1.495e-05
7.24842e-05
5.61367e-05
-6.82548e-06
5.59754e-05
5.01853e-05
1.25994e-05
5.15763e-05
4.35758e-05
1.44128e-05
7.13407e-05
5.17859e-05
9.69266e-06
8.02163e-05
6.71132e-05
1.76639e-05
0.000108581
8.25421e-05
7.79024e-06
4.59423e-05
1.78311e-05
8.77267e-05
1.7916e-05
-2.70246e-05
8.82667e-05
4.55708e-05
5.58017e-07
9.83855e-05
3.90904e-05
8.27141e-06
8.04036e-05
2.87428e-05
6.96682e-05
6.60207e-05
1.72314e-05
9.57315e-05
6.82786e-05
3.96887e-05
4.64207e-05
7.84541e-05
5.56164e-05
3.1973e-05
9.65657e-05
0.00011329
1.44436e-05
9.74812e-05
0.000114407
1.47651e-05
7.76618e-05
-2.11781e-06
0.000173928
-2.17136e-05
0.000175017
2.82409e-05
0.000131632
9.93758e-05
0.000145259
7.65459e-05
0.000132279
8.50836e-05
0.000125915
6.90359e-05
0.000116026
6.26306e-05
9.15978e-05
6.17593e-05
0.00010945
8.33236e-06
-3.576e-07
5.58211e-05
8.82951e-06
-5.43636e-05
7.35208e-05
2.06402e-05
-4.38985e-05
8.56302e-05
3.45502e-05
-4.79708e-05
9.51413e-05
4.98214e-05
-5.55471e-05
8.8544e-05
5.80066e-05
-4.22025e-05
7.45763e-05
4.74869e-05
-2.68236e-05
8.11318e-05
2.14754e-05
-1.9567e-05
8.89349e-05
3.17536e-05
-2.45981e-05
0.000103666
1.26801e-05
-1.95386e-05
-7.88908e-06
-8.02826e-06
4.17662e-07
3.74619e-05
-7.73608e-05
6.67407e-06
9.46065e-05
-9.61945e-05
1.12583e-05
0.000123966
-0.000108951
6.78468e-05
4.94806e-05
-6.30732e-05
-2.12686e-05
8.63402e-05
7.33813e-05
2.05924e-05
7.99376e-05
-5.9899e-05
3.07225e-05
5.96885e-05
-3.86507e-05
7.11641e-05
4.26116e-05
-3.36358e-05
9.32685e-05
3.35247e-05
-3.51587e-05
1.14224e-05
-2.55087e-05
0.000147431
4.63197e-05
-0.000161675
0.000157657
0.000225148
-0.00014021
9.59079e-05
0.000210504
-1.65172e-05
-0.000319848
-4.86762e-05
0.000583581
-0.000150031
4.16049e-05
-2.93507e-05
-0.000197318
1.82386e-05
0.000155408
-9.711e-05
5.39052e-05
-6.24521e-05
-2.76721e-05
2.45069e-05
-3.68896e-05
3.68792e-05
2.20778e-05
-3.83393e-05
1.92377e-05
-3.30506e-05
0.000541073
-0.000120582
0.000277584
0.000428239
-0.000129293
0.000680314
-8.03122e-05
-3.83981e-05
-0.000178977
0.000217058
-0.000131191
2.96144e-06
-0.000176879
0.000120787
-7.48281e-05
-3.03518e-05
-2.66323e-06
-2.74052e-05
-4.28369e-05
-0.000202094
-0.000113198
-0.000192301
-0.000114655
-0.000189615
-0.000124917
3.48791e-05
-0.000378923
8.20422e-05
-0.000220042
0.000146751
-0.000165595
0.000161348
-8.1838e-05
0.000159799
-6.41228e-05
0.000149888
-5.50745e-05
-5.59718e-05
-0.000278474
-0.000174492
-0.000333854
-0.00015547
-0.00020028
-0.000367441
-4.40356e-05
-0.00059824
8.16941e-05
-0.000272391
0.000132184
-0.00027598
0.000174898
-0.00016314
0.000176361
-9.9221e-05
0.000164426
-7.82987e-05
-6.34387e-05
-0.000391739
-0.000213862
-9.21026e-05
-0.000595316
8.94916e-05
-0.000565552
0.000312447
-0.000237614
0.000192312
-0.000181607
0.000244179
-0.000172439
0.000200954
-0.000182366
0.000193637
-0.000128794
0.000166218
-8.92189e-05
-7.70252e-05
-0.000470059
-4.11742e-05
0.000235493
2.02403e-05
0.000159555
0.000126732
0.000187241
0.000167963
0.000154014
)
;

boundaryField
{
    inlet
    {
        type            fixedValue;
        value           nonuniform 0();
    }
    outlet
    {
        type            calculated;
        value           nonuniform 0();
    }
    bottom
    {
        type            fixedValue;
        value           uniform 0;
    }
    top
    {
        type            symmetryPlane;
        value           nonuniform List<scalar> 
40
(
-3.89729e-10
-7.44835e-11
-6.0808e-11
-3.99879e-11
-2.02373e-10
-8.08282e-11
-5.17604e-11
-8.59965e-11
-1.52809e-10
-8.59882e-11
-4.1607e-11
-5.53071e-11
-1.32656e-10
-1.5404e-10
-6.1916e-11
-2.37365e-11
-1.297e-10
-6.82362e-11
-3.03331e-11
-1.90149e-11
-8.40345e-11
-7.70319e-11
-6.47707e-11
-2.30476e-11
-7.83413e-11
-6.12155e-11
-5.72496e-11
-3.14291e-11
-7.55762e-11
-6.61111e-11
-5.22575e-11
-3.90291e-11
-1.01951e-10
-7.84821e-11
-5.4976e-11
-4.76738e-11
-8.17466e-11
-8.71622e-11
-7.24693e-11
-5.53807e-11
)
;
    }
    side1
    {
        type            symmetryPlane;
        value           nonuniform 0();
    }
    side2
    {
        type            symmetryPlane;
        value           nonuniform 0();
    }
    procBoundary18to10
    {
        type            processor;
        value           nonuniform List<scalar> 
50
(
2.30935e-05
2.17445e-05
2.11838e-05
2.42415e-05
2.75588e-05
3.5379e-05
4.73136e-05
7.98553e-05
9.70539e-05
0.000160973
1.58365e-05
1.66361e-05
1.91375e-05
1.81176e-05
2.63524e-05
3.40606e-05
4.15426e-05
4.76069e-05
5.8932e-05
8.26167e-05
6.16196e-06
1.45687e-06
-1.57932e-06
2.94029e-06
8.1633e-06
7.47759e-06
7.81746e-06
5.9086e-06
2.55436e-06
3.58736e-06
1.00606e-06
4.04791e-07
1.16943e-06
-2.55671e-06
-1.13872e-06
3.66685e-06
3.12844e-06
-3.50188e-06
8.01942e-06
-1.86731e-05
6.78774e-05
6.09634e-05
7.42597e-05
9.88819e-05
0.000130679
7.4175e-05
4.76702e-05
4.09502e-05
4.54438e-05
5.9898e-05
)
;
    }
    procBoundary18to17
    {
        type            processor;
        value           nonuniform List<scalar> 
20
(
1.98845e-05
1.76118e-05
4.49014e-06
-8.39999e-06
-7.1859e-06
-1.29596e-05
-2.54474e-05
-2.63368e-05
-4.45961e-05
-5.20418e-05
-6.45241e-05
-0.000158078
-2.2041e-05
3.05401e-05
-2.16379e-05
-0.000528926
0.000193052
0.000262408
0.000269434
0.000420073
)
;
    }
    procBoundary18to19
    {
        type            processor;
        value           nonuniform List<scalar> 
20
(
-0.000351764
-0.00054997
-0.000446562
-0.000591386
-9.39436e-05
-0.000191915
-0.000254616
-4.05509e-05
0.000144177
0.000105058
9.97263e-05
0.00010266
0.000148352
0.000117297
5.99968e-05
-7.6488e-06
0.000137934
0.000146385
0.000146754
0.000126416
)
;
    }
    procBoundary18to26
    {
        type            processor;
        value           nonuniform List<scalar> 
50
(
-5.23816e-05
-5.90109e-05
-4.11704e-05
-9.95106e-07
0.000160213
0.000126627
8.95357e-05
0.000102693
-0.000145702
-0.000408253
-3.06424e-05
-3.52596e-05
-4.53023e-05
-2.76841e-05
1.10869e-05
9.59441e-05
0.000134408
0.000145192
0.000159846
7.13481e-05
2.06686e-05
3.11682e-05
6.90424e-06
-1.96222e-05
-8.16757e-06
2.77136e-05
4.47409e-05
0.000126592
0.000114027
8.96681e-05
0.000133041
8.86391e-05
3.64421e-05
1.72872e-05
8.295e-06
3.65266e-05
4.14366e-05
1.45676e-05
-1.43495e-05
6.67025e-05
-0.000284457
-0.000595962
-0.000161905
-6.07601e-05
-0.000103864
-0.000136654
-0.000122088
-0.000139868
-0.000102675
-9.22638e-05
)
;
    }
}


// ************************************************************************* //
