/*--------------------------------*- C++ -*----------------------------------*\
| =========                 |                                                 |
| \\      /  F ield         | OpenFOAM: The Open Source CFD Toolbox           |
|  \\    /   O peration     | Version:  2.4.0                                 |
|   \\  /    A nd           | Web:      www.OpenFOAM.org                      |
|    \\/     M anipulation  |                                                 |
\*---------------------------------------------------------------------------*/
FoamFile
{
    version     2.0;
    format      ascii;
    class       volVectorField;
    location    "0.04";
    object      Ub;
}
// * * * * * * * * * * * * * * * * * * * * * * * * * * * * * * * * * * * * * //

dimensions      [0 1 -1 0 0 0 0];

internalField   nonuniform List<vector> 
200
(
(-11.553 -22.0609 11.1993)
(-11.8112 -16.3699 10.1355)
(-16.5367 -20.6103 11.7493)
(-17.3388 -18.557 10.8584)
(-32.8056 -22.518 19.9312)
(-54.1415 -11.0692 25.8075)
(-31.6185 -9.18654 59.8495)
(-68.2133 -80.7176 134.652)
(-159.634 -149.407 274.982)
(-106.069 4.67571 0.15096)
(-8.52423 -15.288 11.9336)
(-13.4022 -19.5202 11.9627)
(-12.3469 -18.043 12.3872)
(-18.5578 -12.3831 29.5547)
(-63.1256 32.1235 75.0013)
(-22.7931 -39.3364 121.82)
(-153.127 -189.736 195.279)
(-211.334 -49.9782 260.169)
(-156.749 8.81375 34.3812)
(-244.306 -295.738 85.5943)
(-4.349 -22.684 6.35714)
(-2.66606 -26.7998 8.17798)
(3.82642 6.28452 17.6818)
(-30.7809 33.031 40.0933)
(-35.0496 19.3955 42.9128)
(-77.5834 54.6166 35.789)
(-91.3648 224.807 192.767)
(-219.578 15.3198 102.362)
(-301.504 -432.468 65.837)
(-152.351 40.0807 86.5442)
(3.92824 -30.6353 0.73464)
(23.3447 -29.446 8.15277)
(6.61094 -27.1778 58.1765)
(25.674 14.6756 11.3094)
(-5.69439 81.4842 -0.394489)
(-38.3344 51.1192 80.0533)
(-175.329 -40.9047 53.5074)
(-69.836 98.0671 51.6231)
(-161.944 23.0899 99.5092)
(-255.259 -755.215 88.1159)
(3.05654 -12.3305 17.705)
(0.546663 -11.0287 18.5609)
(-7.72979 -14.9573 22.1864)
(-9.81694 -14.7859 19.9276)
(-11.4879 -21.8497 22.6891)
(-22.883 -27.7672 29.4203)
(-31.3066 -22.6838 47.1402)
(-20.6843 -19.4332 64.4743)
(-14.7617 -46.2527 86.591)
(-33.9837 -110.759 173.628)
(4.26309 -12.4327 14.5367)
(3.04808 -7.49133 23.0778)
(2.4857 -8.33933 27.0803)
(-0.865595 -17.1395 22.9945)
(-9.88971 -4.03203 23.7527)
(-22.1776 -3.1364 31.8843)
(-44.294 -21.7047 82.3245)
(-77.7105 -69.0791 107.479)
(-104.968 -16.2731 200.045)
(-86.7972 25.8713 41.2733)
(11.8486 -6.64093 23.8308)
(14.3899 -5.72147 24.1867)
(18.4376 -6.12815 21.0438)
(23.5223 3.89528 40.4704)
(8.61557 16.5651 41.0895)
(9.34879 33.7216 44.7038)
(-44.2482 60.4535 44.3597)
(-20.7904 144.067 138.319)
(-114.312 55.3503 74.5915)
(-120.135 -201.763 83.4184)
(16.353 -19.6631 20.7263)
(24.1765 -21.8858 25.8399)
(39.0728 -15.0502 38.9268)
(47.7423 -15.2441 46.6423)
(58.7073 13.9817 61.9701)
(44.0989 58.4866 52.9386)
(39.9991 86.8726 50.0151)
(-25.1139 80.9542 48.1307)
(46.3545 135.304 56.7867)
(4.88526 113.303 29.0815)
(19.4361 -0.271894 7.8196)
(23.0428 2.38197 16.5562)
(23.6063 8.89294 16.9117)
(22.3435 3.80402 25.661)
(20.1965 6.91913 24.3271)
(17.5065 -5.53306 41.5279)
(17.6495 14.554 23.823)
(18.5089 -0.392791 63.2721)
(32.919 -0.271636 48.3406)
(48.8793 11.8876 31.3655)
(25.4225 15.4858 0.397358)
(28.1544 23.7019 5.21041)
(31.0721 31.5252 10.9751)
(30.6939 36.7969 25.3396)
(26.7003 21.3678 38.3901)
(22.8943 30.3566 39.3335)
(23.6138 15.9719 44.955)
(28.717 46.9481 40.547)
(37.5233 31.67 56.7367)
(41.9486 15.6641 59.919)
(17.6035 -3.99944 -19.0386)
(40.6162 27.154 8.67825)
(36.1009 37.6275 16.242)
(37.6647 30.9294 46.6437)
(31.7621 40.6048 86.4403)
(26.9474 27.1503 67.8977)
(30.6047 54.5536 60.0265)
(30.8234 53.8776 53.039)
(40.972 93.3567 46.3687)
(35.4024 58.0459 23.8819)
(68.1813 33.7873 6.7983)
(69.5979 46.6856 48.0292)
(64.4308 16.4669 58.6585)
(58.7942 22.1994 95.5009)
(52.7849 -6.5494 76.6251)
(52.1067 37.2405 87.3822)
(52.8451 33.2292 67.9892)
(33.4537 110.336 98.6455)
(36.2368 84.8422 34.8902)
(51.029 68.9165 14.3258)
(16.379 12.885 -48.2366)
(26.8288 18.6144 -40.427)
(32.6467 18.2343 -29.454)
(36.7964 34.2309 -42.6143)
(36.6787 28.793 -21.9102)
(33.2949 20.1875 -27.2448)
(30.7433 0.609627 0.762)
(33.4065 26.1998 -37.4642)
(36.9958 -10.2228 -7.74026)
(51.2914 -18.1407 -7.44769)
(-9.08105 9.21839 -66.864)
(4.43787 45.7844 -74.2571)
(-2.5437 72.0829 -86.0406)
(13.5096 89.1221 -96.7956)
(17.1207 62.2518 -55.1704)
(-2.34969 68.2458 -31.8645)
(14.518 43.7843 -36.4003)
(16.8157 28.947 -8.63739)
(33.2328 30.3596 -48.252)
(41.9011 2.54112 -17.7051)
(40.1035 68.0015 -104.659)
(42.3937 119.749 -104.522)
(44.3993 87.7843 -89.071)
(-37.3184 -140.328 -18.7944)
(-83.2754 24.0659 66.3671)
(-78.7328 6.93725 -27.1616)
(-53.0902 31.7329 -23.9533)
(-26.3967 26.9097 -38.8453)
(0.545568 22.1953 -21.9961)
(20.663 17.8966 -40.7414)
(185.484 10.7937 -168.986)
(153.53 117.453 -124.443)
(48.3625 135.999 25.011)
(-9.81432 84.9301 -22.2476)
(-78.19 41.8226 75.5254)
(-71.1146 42.1614 50.4972)
(-64.2223 38.5417 41.1035)
(-32.3749 14.2949 14.1539)
(-22.9188 10.9826 -35.4167)
(-1.88666 4.78037 -31.9256)
(-88.366 -87.9012 -63.378)
(-70.306 -70.4354 -47.613)
(-83.7424 -76.7998 -62.5893)
(-32.9284 -87.7933 -56.7261)
(25.1063 -109.903 -49.6934)
(47.2952 -67.2842 -14.4117)
(65.9525 -42.5989 -32.9002)
(64.0943 -44.744 -11.2644)
(64.293 -29.3973 -35.119)
(56.0742 -50.271 -10.8782)
(-95.1073 -68.2019 -96.4337)
(-137.682 -100.568 -128.378)
(-121.179 -94.5991 -136.906)
(-44.0121 -538.224 18.7171)
(25.5997 -243.686 316.174)
(28.1852 -193.321 -67.3656)
(70.5721 -86.4496 -28.7851)
(71.3857 -55.3533 -51.962)
(69.2711 -58.5907 -26.3201)
(63.6713 -40.1599 -41.5851)
(-148.28 -202.188 -254.368)
(-114.683 -121.77 -145.617)
(-56.8123 -552.079 138.003)
(234.089 -405.153 1686.48)
(-10.5202 -189.841 -30.3215)
(147.35 -236.037 527.103)
(53.3593 -163.379 -66.9944)
(98.3035 -101.657 -22.3235)
(64.6131 -63.497 -58.8484)
(65.2678 -62.4739 -33.9018)
(-200.653 -167.043 -73.7561)
(-155.944 -875.61 1373.08)
(233.125 -314.118 1904.29)
(-89.6278 3.88309 44.3785)
(97.5471 -116.6 544.601)
(4.40723 -83.677 -6.4729)
(113.783 -153.003 320.013)
(41.5135 -112.14 -49.3032)
(84.8779 -90.4895 -13.6342)
(45.1088 -66.921 -60.9914)
)
;

boundaryField
{
    inlet
    {
        type            fixedValue;
        value           nonuniform 0();
    }
    outlet
    {
        type            zeroGradient;
    }
    bottom
    {
        type            fixedValue;
        value           uniform (0 0 0);
    }
    top
    {
        type            symmetryPlane;
    }
    side1
    {
        type            symmetryPlane;
    }
    side2
    {
        type            symmetryPlane;
    }
    procBoundary18to10
    {
        type            processor;
        value           nonuniform List<vector> 
50
(
(-5.76791 -14.7594 8.61005)
(-10.3887 -18.8057 9.47091)
(-9.77134 -14.743 6.81307)
(-13.3674 -21.8584 10.5322)
(-15.1107 -20.5311 9.54483)
(-18.2401 -33.1698 16.7919)
(-27.6376 -35.5957 16.5795)
(-14.4289 -31.8054 33.5533)
(1.83379 -45.3559 81.9536)
(-104.29 -298.555 315.233)
(5.31661 -12.6026 11.729)
(1.03123 -16.0777 16.0381)
(-2.91562 -15.0864 5.86565)
(-1.7314 -13.2589 13.8199)
(-5.39135 -19.2236 16.1788)
(-8.97569 -24.7919 23.6922)
(-10.0193 -34.5867 30.2056)
(-26.3499 -42.3332 41.8794)
(-12.6419 -36.0672 46.9822)
(23.0018 -36.7504 51.8609)
(19.1359 -8.08565 9.0525)
(21.362 -2.80246 10.4643)
(20.5104 -4.51257 19.1785)
(18.1949 -5.94819 17.7501)
(12.9933 -17.4009 33.3083)
(17.9856 -3.02785 11.8847)
(9.99622 -30.0006 55.5912)
(31.1168 -6.51362 19.7787)
(31.0612 -0.391821 15.3178)
(39.879 -16.0994 40.7391)
(26.465 -5.39975 -12.3984)
(28.6369 -8.03261 -5.45299)
(30.2089 -5.17686 -11.3583)
(31.57 -12.4337 3.34358)
(31.3146 -4.96991 -15.4793)
(26.3371 -16.447 14.1212)
(34.1012 -1.78108 -5.75107)
(43.9393 -19.5428 -4.98229)
(49.7777 -3.9431 43.8819)
(70.8188 52.5535 -134.667)
(-11.4557 -30.4559 -9.16695)
(-8.4119 -30.7707 -17.9982)
(5.18317 -42.7955 5.26658)
(7.71116 -47.2511 -25.619)
(22.5124 -83.577 77.5637)
(59.9943 -46.1188 -16.0964)
(57.1876 -32.7033 -8.74593)
(59.7752 -20.3578 -20.0355)
(61.9689 -43.5064 -4.96773)
(57.599 -39.5801 -5.03151)
)
;
    }
    procBoundary18to17
    {
        type            processor;
        value           nonuniform List<vector> 
20
(
(-4.02926 -18.6744 9.79515)
(-5.55546 -21.3901 5.7037)
(-1.35822 -18.8473 8.78499)
(0.122626 -25.7042 0.301539)
(2.60817 -14.8605 9.104)
(5.36675 -11.501 14.6521)
(7.48048 -9.24836 7.61493)
(8.06315 -15.6605 25.1651)
(16.214 -5.28948 2.00986)
(17.9086 2.03591 -12.371)
(28.5677 11.2687 -15.7766)
(49.6022 5.90277 24.605)
(-0.516069 -5.52855 -35.2757)
(-15.5439 -11.8051 -42.4972)
(-2.64585 13.5645 -75.1872)
(188.249 98.0297 -195.448)
(-72.7925 -72.33 -43.9225)
(-102.88 -73.9396 -67.4139)
(-110.295 -4.45843 -209.733)
(-197.761 -481.03 -456.964)
)
;
    }
    procBoundary18to19
    {
        type            processor;
        value           nonuniform List<vector> 
20
(
(-160.293 -196.023 79.2239)
(-156.523 10.0701 76.5781)
(-233.665 -692.766 96.6853)
(-203.475 132.57 -885.493)
(-50.5739 14.2447 10.3936)
(-87.021 -117.444 96.0824)
(-38.3684 128.539 16.1006)
(-89.8251 -378.615 37.9244)
(56.2743 -3.33919 51.4201)
(43.0825 29.9893 17.8994)
(41.8374 19.8634 22.9822)
(35.8618 60.7662 -34.7943)
(64.9287 -7.94675 -9.51467)
(50.0235 -10.3819 -20.2319)
(26.1375 5.66682 -30.7273)
(-5.71894 7.2569 -28.7584)
(53.6943 -45.8736 -13.8816)
(53.8684 -46.8659 -17.3505)
(53.7852 -48.6793 -46.3953)
(50.9858 -63.1328 -34.6122)
)
;
    }
    procBoundary18to26
    {
        type            processor;
        value           nonuniform List<vector> 
50
(
(32.3078 -40.9104 -9.68144)
(24.3929 -76.1713 99.7249)
(78.1565 -52.5192 39.7712)
(35.6744 -37.3749 120.491)
(16.4471 121.408 -16.1526)
(36.4697 103.767 72.2924)
(-65.6122 153.021 100.09)
(-115.561 72.6837 59.7273)
(-154.733 -250.241 73.9229)
(-195.402 122.25 -951.76)
(14.2942 -26.7063 7.37133)
(25.1019 -19.7481 38.3054)
(19.8285 -52.9301 104.534)
(77.7852 -24.2981 55.8625)
(57.5608 -6.65876 111.639)
(54.914 77.5008 18.5844)
(72.2536 102.29 69.7858)
(53.8983 140.775 76.5667)
(45.6576 108.119 19.6804)
(1.02229 -43.6959 46.2014)
(45.4729 -3.03022 -93.6414)
(78.2824 -4.49695 12.4402)
(83.7927 7.99303 40.1039)
(83.8912 -52.7691 113.426)
(86.6184 -5.9984 79.5453)
(79.8844 6.5281 98.9916)
(59.2189 33.7551 69.7741)
(82.7593 92.9713 69.8813)
(40.7793 104.939 125.65)
(36.1528 63.8233 -32.0229)
(49.4224 77.9585 -106.227)
(-18.0524 12.8199 9.12251)
(-6.64422 15.7875 -62.3153)
(-72.4012 1.48167 153.721)
(-64.0204 12.7603 163.153)
(-52.8816 13.9642 62.9408)
(-71.4381 40.2598 56.8874)
(-27.7683 -14.9595 -34.4236)
(-4.10183 -44.0084 -56.4976)
(-78.9177 93.4114 160.585)
(-132.52 -346.066 960.14)
(108.113 -139.54 1013.88)
(-148.298 26.5245 228.201)
(15.2927 -86.1906 426.276)
(-36.2172 -49.1178 39.4935)
(101.392 -108.117 477.87)
(14.3389 -42.1729 13.4553)
(112.598 -117.743 248.153)
(31.4388 -75.1632 -36.4159)
(79.6655 -78.1851 -11.1095)
)
;
    }
}


// ************************************************************************* //
