/*--------------------------------*- C++ -*----------------------------------*\
| =========                 |                                                 |
| \\      /  F ield         | OpenFOAM: The Open Source CFD Toolbox           |
|  \\    /   O peration     | Version:  2.4.0                                 |
|   \\  /    A nd           | Web:      www.OpenFOAM.org                      |
|    \\/     M anipulation  |                                                 |
\*---------------------------------------------------------------------------*/
FoamFile
{
    version     2.0;
    format      ascii;
    class       volVectorField;
    location    "0.12";
    object      gradp;
}
// * * * * * * * * * * * * * * * * * * * * * * * * * * * * * * * * * * * * * //

dimensions      [1 -2 -2 0 0 0 0];

internalField   nonuniform List<vector> 
200
(
(5.29012e+21 -8.94563e+20 -3.80634e+20)
(4.6596e+21 6.00913e+20 -6.41362e+19)
(5.04897e+21 2.03778e+21 1.27613e+21)
(8.18872e+21 1.183e+21 2.0509e+21)
(1.34103e+22 -1.01839e+21 1.37875e+21)
(1.81299e+22 -3.66654e+21 -1.13949e+20)
(2.28135e+22 -4.38926e+21 -1.22799e+21)
(2.87972e+22 -4.44495e+21 -1.71432e+21)
(3.4877e+22 -5.61976e+21 -2.1077e+21)
(4.31281e+22 -5.73178e+21 -2.59223e+21)
(8.62189e+21 -2.32986e+21 -4.14354e+20)
(1.05243e+22 -1.60104e+21 -9.02085e+20)
(6.21315e+21 1.26849e+19 -9.82928e+20)
(2.07638e+21 2.41491e+20 4.08178e+20)
(3.71123e+21 -1.47287e+21 1.56662e+21)
(1.13882e+22 -4.20898e+21 1.85433e+21)
(2.12567e+22 -6.95333e+21 5.70111e+20)
(2.63362e+22 -9.61786e+21 -9.70581e+20)
(3.23033e+22 -1.28378e+22 -8.75754e+20)
(4.01252e+22 -1.6311e+22 -1.12769e+21)
(6.92054e+21 -3.72009e+21 -7.22821e+20)
(9.3447e+21 -5.04633e+21 -6.85434e+20)
(8.73403e+21 -6.09735e+21 -1.05778e+21)
(5.2176e+21 -4.80464e+21 -7.53066e+20)
(4.50937e+21 -3.91385e+21 -2.18431e+20)
(7.16901e+21 -3.2123e+21 2.98532e+20)
(1.19957e+22 -6.29191e+21 -1.85784e+20)
(1.70282e+22 -1.06684e+22 -6.68599e+20)
(2.14908e+22 -1.40798e+22 -6.32505e+19)
(3.0027e+22 -1.94722e+22 1.55193e+21)
(5.05129e+21 -4.90607e+21 -5.37813e+20)
(5.76977e+21 -6.10804e+21 -9.18434e+20)
(6.69653e+21 -8.01874e+21 -7.64789e+20)
(6.44339e+21 -8.66207e+21 -7.00314e+20)
(6.89592e+21 -8.24716e+21 -1.7942e+20)
(6.63207e+21 -7.82968e+21 6.83154e+19)
(6.3445e+21 -8.94439e+21 -3.92208e+20)
(1.07604e+22 -1.16812e+22 -1.27735e+21)
(1.46956e+22 -1.48634e+22 -2.3879e+21)
(1.88641e+22 -1.77884e+22 -1.04057e+21)
(6.12007e+21 -9.48515e+20 2.7685e+19)
(9.96125e+21 -7.39805e+20 9.97292e+20)
(1.18171e+22 -1.57671e+21 2.06973e+21)
(8.5171e+21 -1.44535e+21 2.60518e+21)
(6.4828e+21 -7.17795e+20 2.13736e+21)
(9.78837e+21 -5.17297e+20 8.85886e+20)
(1.76923e+22 -1.5123e+21 -8.93412e+20)
(2.59821e+22 -3.25497e+21 -2.10918e+21)
(3.20677e+22 -3.64864e+21 -1.95248e+21)
(3.68478e+22 -3.38851e+21 -1.95596e+21)
(6.43611e+21 -2.87736e+21 -2.60405e+20)
(8.70485e+21 -2.59512e+21 -9.28506e+20)
(1.0406e+22 -3.72158e+21 -8.22738e+20)
(1.02349e+22 -4.24486e+21 8.41329e+20)
(8.33891e+21 -4.02837e+21 2.53001e+21)
(8.19936e+21 -3.54901e+21 2.78866e+21)
(1.2217e+22 -5.28581e+21 6.47181e+20)
(2.17095e+22 -7.94471e+21 -2.43052e+21)
(3.18006e+22 -9.56671e+21 -2.6757e+21)
(3.58668e+22 -9.6803e+21 -3.14862e+21)
(6.18238e+21 -3.91762e+21 -6.77785e+20)
(8.27282e+21 -5.07249e+21 -8.44623e+20)
(8.51761e+21 -5.74833e+21 -1.25868e+21)
(7.90353e+21 -6.57823e+21 -6.34855e+20)
(7.87448e+21 -6.70751e+21 3.19024e+20)
(7.27348e+21 -6.06992e+21 1.02748e+21)
(8.90091e+21 -7.83162e+21 6.94064e+20)
(1.74204e+22 -1.11592e+22 -6.60128e+20)
(2.85965e+22 -1.64993e+22 -7.90964e+20)
(3.71618e+22 -1.93328e+22 1.96629e+20)
(2.85185e+21 -4.60163e+21 -7.23706e+20)
(5.04345e+21 -6.0386e+21 -8.69258e+20)
(7.39451e+21 -7.36524e+21 -9.23899e+20)
(8.31657e+21 -8.11925e+21 -8.28353e+20)
(9.35553e+21 -8.48156e+21 -7.64096e+20)
(5.95114e+21 -9.27658e+21 -1.07531e+21)
(2.03836e+21 -9.97407e+21 -6.7406e+20)
(4.37415e+21 -1.25863e+22 -1.08724e+21)
(1.54533e+22 -1.71593e+22 -2.33606e+21)
(2.95603e+22 -2.22671e+22 -1.37997e+21)
(9.14826e+21 -1.35551e+21 9.39331e+20)
(1.11942e+22 -2.48036e+21 1.35545e+21)
(1.01942e+22 -2.59017e+21 3.91843e+20)
(8.40512e+21 -1.63916e+21 -3.32707e+20)
(7.90857e+21 -3.90141e+20 2.98102e+18)
(8.43146e+21 -6.22095e+20 1.09446e+21)
(1.32293e+22 -1.92431e+21 1.21295e+21)
(2.54082e+22 -4.9591e+21 3.97105e+20)
(3.53673e+22 -6.7769e+21 -1.78677e+21)
(2.63574e+22 -7.64003e+21 -4.38765e+21)
(6.28978e+21 -3.45862e+21 1.49917e+20)
(8.72483e+21 -4.5481e+21 9.81459e+19)
(1.18766e+22 -5.31278e+21 -1.17147e+20)
(1.28052e+22 -4.94257e+21 -3.03113e+20)
(9.9427e+21 -4.38221e+21 -1.23074e+20)
(5.36313e+21 -3.98244e+21 5.68652e+20)
(4.55528e+21 -4.41337e+21 6.57384e+20)
(1.5703e+22 -7.29938e+21 1.98921e+20)
(3.00054e+22 -1.09794e+22 -1.83086e+21)
(3.40495e+22 -1.28668e+22 -4.1873e+21)
(5.40746e+21 -4.46137e+21 3.29095e+20)
(7.48583e+21 -4.95153e+21 -3.92965e+19)
(9.40529e+21 -6.25921e+21 -1.4627e+20)
(1.02663e+22 -7.47613e+21 -1.50632e+20)
(9.82883e+21 -9.18442e+21 3.10734e+20)
(8.36914e+21 -9.39465e+21 3.22711e+20)
(6.59539e+21 -8.40589e+21 7.10636e+20)
(1.22762e+22 -8.51913e+21 8.30319e+20)
(2.42324e+22 -1.35364e+22 -5.10439e+20)
(3.39066e+22 -1.66424e+22 -3.59442e+21)
(3.20376e+21 -4.07528e+21 2.24292e+20)
(5.12916e+21 -5.48556e+21 5.04882e+20)
(6.82742e+21 -7.2308e+21 2.62039e+20)
(6.95476e+21 -9.24835e+21 2.20525e+20)
(6.10567e+21 -1.06392e+22 2.08693e+20)
(6.92018e+21 -1.17048e+22 2.36662e+20)
(6.3063e+21 -1.22146e+22 4.79305e+20)
(5.44196e+21 -1.25678e+22 9.9881e+20)
(1.37589e+22 -1.46483e+22 1.61118e+21)
(2.66013e+22 -1.98771e+22 8.71895e+20)
(9.2601e+21 -2.21158e+21 5.37606e+20)
(8.20929e+21 -2.7515e+21 -3.4998e+20)
(6.41498e+21 -2.3911e+21 -1.16993e+21)
(7.27274e+21 -1.398e+21 -9.55942e+20)
(1.10497e+22 -9.19483e+20 3.22966e+20)
(1.36603e+22 -1.35859e+21 1.02877e+21)
(1.54608e+22 -2.40121e+21 1.75303e+21)
(1.6383e+22 -3.57206e+21 3.01479e+20)
(1.67564e+22 -3.71919e+21 -2.64922e+21)
(2.26975e+22 -3.06795e+21 -5.21324e+21)
(6.26752e+21 -3.85374e+21 3.96235e+20)
(7.85025e+21 -4.82671e+21 3.75603e+20)
(9.12197e+21 -4.58256e+21 -1.74869e+20)
(1.0216e+22 -3.95354e+21 -5.99638e+20)
(1.11286e+22 -3.53596e+21 -6.64257e+19)
(1.06968e+22 -4.78381e+21 5.20705e+20)
(1.10338e+22 -6.08951e+21 -7.55875e+20)
(1.37471e+22 -7.25157e+21 -2.12291e+21)
(1.77647e+22 -7.52458e+21 -2.24047e+21)
(2.00588e+22 -8.41113e+21 -4.88097e+21)
(5.67529e+21 -3.79862e+21 4.75477e+20)
(6.75165e+21 -4.42171e+21 3.43741e+20)
(8.16134e+21 -5.14163e+21 4.68477e+18)
(9.36594e+21 -5.74041e+21 -5.163e+20)
(9.38918e+21 -6.17668e+21 -4.9479e+20)
(8.55317e+21 -6.6011e+21 -4.39514e+20)
(1.05253e+22 -8.11654e+21 -1.04292e+21)
(1.35129e+22 -9.87939e+21 -2.05664e+19)
(1.44373e+22 -1.0992e+22 3.31477e+20)
(1.53115e+22 -1.12381e+22 -1.37929e+21)
(4.63058e+21 -4.79249e+21 7.87486e+20)
(5.16424e+21 -5.43016e+21 7.69895e+20)
(6.48457e+21 -6.43131e+21 8.1683e+20)
(8.14586e+21 -7.4106e+21 4.45887e+20)
(9.40717e+21 -8.45528e+21 7.57249e+20)
(6.8171e+21 -8.5407e+21 1.57506e+21)
(4.47724e+21 -9.86129e+21 2.21825e+21)
(7.99615e+21 -1.21247e+22 2.33808e+21)
(1.50472e+22 -1.38648e+22 3.21151e+21)
(1.70713e+22 -1.39912e+22 2.54724e+21)
(5.80007e+21 -1.5817e+21 6.59406e+18)
(5.73004e+21 -1.31943e+21 -6.44004e+20)
(8.25514e+21 -9.98074e+20 -7.68172e+20)
(1.31824e+22 -1.06907e+21 -6.89537e+19)
(1.42596e+22 -1.01317e+21 1.07859e+21)
(1.30077e+22 -1.435e+21 9.34147e+20)
(1.09019e+22 -5.93856e+21 8.74659e+20)
(1.1321e+22 -8.83812e+21 -4.90487e+20)
(1.77202e+22 -6.12291e+21 -7.07228e+20)
(2.49184e+22 -7.1084e+21 -1.89316e+20)
(6.26171e+21 -3.55802e+21 4.00267e+20)
(6.89729e+21 -3.43815e+21 2.51036e+20)
(8.75585e+21 -3.4334e+21 1.02468e+20)
(1.31522e+22 -4.23914e+21 1.36626e+20)
(1.35278e+22 -5.69062e+21 1.02004e+21)
(3.15689e+21 -6.33169e+21 8.86389e+20)
(-3.9043e+21 -8.8869e+21 -1.33619e+21)
(1.09523e+22 -7.81465e+21 -3.78177e+21)
(2.11796e+22 -6.21029e+21 -2.20955e+21)
(1.47936e+22 -6.73251e+21 -2.7146e+21)
(5.27811e+21 -3.83537e+21 1.91417e+20)
(5.97929e+21 -4.32066e+21 2.23849e+20)
(6.65316e+21 -4.67249e+21 -4.99448e+19)
(8.66794e+21 -5.80329e+21 -2.47457e+20)
(1.00745e+22 -7.86654e+21 -2.6807e+20)
(6.61511e+21 -7.70767e+21 -3.32799e+19)
(7.93602e+21 -3.64729e+21 -8.73711e+20)
(1.66742e+22 -1.38154e+21 -8.42415e+20)
(1.98845e+22 -4.81325e+21 1.14202e+20)
(1.07312e+22 -4.75724e+21 8.59825e+20)
(3.99755e+21 -4.3567e+21 3.77301e+20)
(5.22306e+21 -5.00345e+21 3.14189e+20)
(5.7906e+21 -5.54352e+21 3.95682e+20)
(6.76409e+21 -6.1521e+21 9.73226e+19)
(9.71904e+21 -7.33571e+21 -3.61208e+19)
(1.15954e+22 -7.89862e+21 1.94782e+20)
(8.74796e+21 -6.70652e+21 1.45709e+21)
(8.6204e+21 -7.14675e+21 1.52938e+21)
(1.44282e+22 -9.80168e+21 1.65217e+21)
(1.53746e+22 -1.1266e+22 1.33595e+21)
)
;

boundaryField
{
    inlet
    {
        type            zeroGradient;
    }
    outlet
    {
        type            zeroGradient;
    }
    bottom
    {
        type            zeroGradient;
    }
    top
    {
        type            symmetryPlane;
    }
    side1
    {
        type            symmetryPlane;
    }
    side2
    {
        type            symmetryPlane;
    }
    procBoundary1to0
    {
        type            processor;
        value           nonuniform List<vector> 
20
(
(5.52755e+21 -1.06497e+21 -3.23495e+20)
(5.28436e+21 -2.41625e+21 -2.1903e+20)
(4.63006e+21 -3.26103e+21 -4.54759e+20)
(3.55273e+21 -4.10419e+21 -2.31111e+20)
(4.91322e+21 -8.97827e+20 -2.08378e+20)
(4.39638e+21 -2.62627e+21 -1.99724e+20)
(2.76598e+21 -3.28036e+21 -3.71787e+20)
(2.11958e+21 -3.87695e+21 -2.91906e+20)
(6.39945e+21 -1.05112e+21 3.74191e+20)
(5.06811e+21 -2.6777e+21 1.5083e+20)
(3.07258e+21 -3.40852e+21 1.19167e+20)
(9.26998e+20 -3.44176e+21 -5.09707e+19)
(7.40237e+21 -1.25521e+21 6.96332e+20)
(4.83907e+21 -3.03431e+21 3.84377e+20)
(4.38338e+21 -3.60324e+21 3.84166e+20)
(3.02858e+21 -3.99499e+21 5.21835e+20)
(6.16356e+21 -1.55025e+21 4.37258e+20)
(5.42478e+21 -3.17717e+21 2.52854e+20)
(4.33642e+21 -3.18859e+21 3.4797e+20)
(3.10269e+21 -3.78387e+21 5.12011e+20)
)
;
    }
    procBoundary1to2
    {
        type            processor;
        value           nonuniform List<vector> 
20
(
(4.9148e+22 -7.12123e+21 -4.07029e+21)
(4.07422e+22 -1.93884e+22 -2.20649e+21)
(3.59263e+22 -2.47104e+22 2.1664e+21)
(2.83285e+22 -2.26405e+22 9.54655e+20)
(3.73072e+22 -4.13915e+21 -7.19334e+21)
(3.2261e+22 -9.40969e+21 -4.57435e+21)
(3.51416e+22 -1.96525e+22 4.21406e+20)
(3.50654e+22 -2.69216e+22 8.18217e+19)
(1.31356e+22 -2.93085e+21 -6.20875e+21)
(2.76858e+22 -7.2048e+21 -6.77087e+21)
(3.60332e+22 -1.72605e+22 -7.33867e+21)
(3.13189e+22 -2.57445e+22 -2.29163e+21)
(3.14034e+22 -5.03854e+21 -3.0989e+21)
(2.52917e+22 -1.12176e+22 -8.25792e+21)
(1.7971e+22 -1.24858e+22 -6.91081e+21)
(1.34793e+22 -1.57416e+22 -2.96824e+20)
(3.31593e+22 -1.11853e+22 -1.31985e+19)
(3.4711e+22 -1.33039e+22 -3.85491e+21)
(5.54278e+21 -4.52275e+21 -1.31713e+21)
(1.05254e+22 -8.74564e+21 1.12197e+21)
)
;
    }
    procBoundary1to9
    {
        type            processor;
        value           nonuniform List<vector> 
50
(
(2.91283e+21 -5.49918e+21 -5.32546e+20)
(3.11937e+21 -6.53077e+21 -6.42032e+20)
(3.62597e+21 -7.68333e+21 -6.49345e+20)
(4.76075e+21 -9.17964e+21 -4.13798e+20)
(6.17416e+21 -9.84286e+21 -3.64931e+20)
(5.77456e+21 -1.09163e+22 -6.05782e+20)
(4.29266e+21 -1.1668e+22 -8.29335e+20)
(5.19032e+21 -1.28726e+22 -1.23429e+21)
(9.27641e+21 -1.46055e+22 -1.49823e+21)
(1.44727e+22 -1.74255e+22 -1.24727e+21)
(1.85907e+21 -4.73547e+21 -1.5854e+20)
(2.74561e+21 -5.26753e+21 -4.55571e+20)
(4.35631e+21 -6.70417e+21 -7.66223e+20)
(5.67088e+21 -8.26368e+21 -1.00128e+21)
(5.55981e+21 -1.01522e+22 -1.17602e+21)
(4.28846e+21 -1.16678e+22 -1.39449e+21)
(2.28144e+21 -1.20127e+22 -1.34984e+21)
(3.04985e+21 -1.28454e+22 -1.21425e+21)
(9.23486e+21 -1.40457e+22 -6.56552e+20)
(1.76372e+22 -1.84033e+22 -1.10884e+21)
(1.31987e+21 -4.40236e+21 2.09808e+20)
(1.17478e+21 -5.26249e+21 3.40975e+20)
(1.8797e+21 -6.56648e+21 4.37433e+20)
(3.4494e+21 -8.61745e+21 2.92271e+20)
(4.91587e+21 -1.01814e+22 3.27159e+20)
(5.21833e+21 -1.14342e+22 7.82638e+20)
(4.86944e+21 -1.22221e+22 7.81125e+20)
(7.40884e+21 -1.24584e+22 1.11882e+21)
(9.61374e+21 -1.25686e+22 1.54861e+21)
(1.17141e+22 -1.65128e+22 1.57806e+21)
(2.80496e+21 -5.62074e+21 2.9959e+20)
(3.47401e+21 -6.54034e+21 6.45061e+20)
(4.20046e+21 -7.43445e+21 1.05924e+21)
(5.318e+21 -8.97874e+21 1.41886e+21)
(7.12898e+21 -1.10367e+22 1.56991e+21)
(5.74115e+21 -1.23156e+22 1.93937e+21)
(3.35723e+21 -1.15453e+22 2.39965e+21)
(5.5058e+21 -1.19253e+22 3.36759e+21)
(1.07044e+22 -1.29922e+22 3.36061e+21)
(1.1558e+22 -1.74163e+22 4.00265e+21)
(2.83895e+21 -5.64599e+21 4.63788e+20)
(3.60565e+21 -6.43204e+21 4.90547e+20)
(4.35585e+21 -7.47071e+21 5.04925e+20)
(5.08357e+21 -8.3249e+21 5.39107e+20)
(6.58151e+21 -9.88839e+21 4.31666e+20)
(7.87349e+21 -1.20589e+22 3.68021e+20)
(9.43975e+21 -1.39339e+22 1.09802e+21)
(1.04839e+22 -1.25124e+22 2.26881e+21)
(1.16459e+22 -1.32688e+22 2.65368e+21)
(1.28433e+22 -1.65391e+22 2.56303e+21)
)
;
    }
}


// ************************************************************************* //
