/*--------------------------------*- C++ -*----------------------------------*\
| =========                 |                                                 |
| \\      /  F ield         | OpenFOAM: The Open Source CFD Toolbox           |
|  \\    /   O peration     | Version:  2.4.0                                 |
|   \\  /    A nd           | Web:      www.OpenFOAM.org                      |
|    \\/     M anipulation  |                                                 |
\*---------------------------------------------------------------------------*/
FoamFile
{
    version     2.0;
    format      ascii;
    class       surfaceScalarField;
    location    "0.04";
    object      phia;
}
// * * * * * * * * * * * * * * * * * * * * * * * * * * * * * * * * * * * * * //

dimensions      [0 3 -1 0 0 0 0];

internalField   nonuniform List<scalar> 
490
(
5.78076e-06
1.07701e-05
-1.24801e-08
5.08672e-06
9.30448e-06
-1.09885e-08
4.54013e-06
8.18594e-06
-9.80285e-09
4.09843e-06
7.30396e-06
-8.81762e-09
3.73397e-06
6.59054e-06
-7.48626e-09
3.30511e-06
6.00164e-06
1.30272e-06
2.21908e-06
5.91264e-06
4.44665e-06
4.03573e-08
7.34474e-06
4.80769e-06
2.63688e-06
8.86015e-06
7.88437e-06
3.6282e-06
2.0803e-05
5.56303e-06
1.08167e-05
-1.21762e-08
4.80351e-06
9.3506e-06
-1.05245e-08
4.2248e-06
8.23166e-06
-9.22572e-09
3.76906e-06
7.34932e-06
-8.09543e-09
3.40054e-06
6.63612e-06
-4.81044e-09
2.47782e-06
7.80095e-06
3.0614e-06
-8.67329e-07
1.03868e-05
4.70415e-06
-4.8462e-06
1.16485e-05
5.98459e-06
4.3441e-07
1.15793e-05
9.98284e-06
3.93571e-06
2.25016e-05
5.78003e-06
1.07084e-05
-1.24249e-08
5.08564e-06
9.60281e-06
-1.01872e-08
4.53885e-06
8.13538e-06
6.01576e-07
4.09578e-06
6.66882e-06
1.02043e-06
3.51174e-08
9.26402e-06
3.11692e-06
-9.06851e-06
1.23401e-05
6.20573e-06
-1.43148e-05
1.48295e-05
8.78356e-06
-1.22815e-05
1.48311e-05
8.786e-06
-1.27059e-06
1.32217e-05
1.10364e-05
4.28562e-06
2.44862e-05
6.49664e-06
5.2878e-07
6.19351e-06
1.38128e-06
7.28054e-06
1.71407e-06
5.8648e-07
2.10181e-06
-1.06332e-05
6.91783e-06
-1.43189e-05
8.785e-06
-1.43203e-05
8.78582e-06
-1.29327e-05
8.78613e-06
-1.56929e-06
1.04502e-05
2.68438e-05
5.94682e-06
1.1033e-05
1.10036e-06
5.3091e-06
9.70856e-06
9.88748e-07
4.79381e-06
8.66427e-06
9.45426e-07
4.36792e-06
7.81938e-06
1.00617e-06
1.30503e-06
7.12377e-06
2.10213e-06
-7.93323e-06
1.06952e-05
5.69602e-06
-1.43097e-05
1.47956e-05
8.7814e-06
-1.25579e-05
1.47968e-05
8.78547e-06
-2.21289e-06
1.31242e-05
9.82577e-06
3.53283e-06
1.47898e-05
5.77978e-06
1.1086e-05
1.08308e-06
5.08534e-06
9.75894e-06
9.61324e-07
4.53884e-06
7.05225e-06
1.0635e-06
4.09366e-06
5.48705e-06
1.14823e-06
-2.51083e-06
8.4217e-06
2.4268e-06
-1.16154e-05
1.35465e-05
7.45547e-06
-1.43187e-05
1.48312e-05
8.78513e-06
-1.29217e-05
1.48315e-05
8.78592e-06
-2.30606e-06
1.36055e-05
9.69998e-06
3.85763e-06
1.56389e-05
5.94804e-06
8.85715e-06
7.4964e-07
6.85817e-06
6.23671e-06
1.14055e-06
9.16928e-06
3.79714e-06
1.86985e-06
3.07684e-06
2.68567e-06
2.33659e-06
-9.18901e-06
1.05765e-05
5.87055e-06
-1.43174e-05
1.48295e-05
8.78391e-06
-1.43204e-05
1.48319e-05
8.78582e-06
-1.32849e-05
1.48317e-05
8.78594e-06
-2.35244e-06
1.40183e-05
9.53489e-06
4.23476e-06
1.66334e-05
9.98367e-06
1.18051e-06
1.28001e-05
2.70258e-06
1.32671e-05
2.9241e-06
3.43564e-06
2.98186e-06
-1.04037e-05
6.71046e-06
-1.43188e-05
8.78486e-06
-1.43205e-05
8.78583e-06
-1.3643e-05
8.78591e-06
-2.33378e-06
9.32847e-06
1.7823e-05
1.78427e-05
5.59136e-06
3.28876e-06
1.46421e-05
4.98547e-06
2.92905e-06
1.15039e-05
2.60212e-06
2.29673e-06
6.65249e-06
1.92681e-06
2.14632e-06
-5.80171e-06
6.27421e-06
3.21697e-06
-1.43086e-05
1.47903e-05
5.61037e-06
-1.43207e-05
1.48032e-05
8.70841e-06
-1.43208e-05
1.48007e-05
8.76778e-06
-1.4008e-05
1.47982e-05
8.72401e-06
1.45124e-05
1.61195e-06
1.74445e-05
4.55081e-06
3.22604e-06
1.36913e-05
3.59501e-06
2.82914e-06
1.08408e-05
1.9132e-06
2.23402e-06
5.9873e-06
1.76297e-06
2.2959e-06
-6.51179e-06
7.2724e-06
3.61085e-06
-1.43127e-05
1.48253e-05
5.72578e-06
-1.43207e-05
1.48319e-05
8.73607e-06
-1.43207e-05
1.48319e-05
8.77399e-06
-1.40901e-05
1.48319e-05
8.76218e-06
1.46353e-05
1.81135e-06
9.6e-06
3.44388e-06
1.53127e-06
1.09624e-05
2.23254e-06
2.18095e-06
1.14746e-05
1.82588e-06
2.46584e-06
5.79012e-06
1.88218e-06
2.57539e-06
-7.20653e-06
8.51139e-06
4.06154e-06
-1.43155e-05
1.48281e-05
5.88255e-06
-1.43206e-05
1.48319e-05
8.75595e-06
-1.43207e-05
1.48319e-05
8.77858e-06
-1.41594e-05
1.48319e-05
8.77882e-06
1.47071e-05
2.73121e-06
1.00309e-05
1.45953e-06
1.25938e-05
2.59938e-06
1.3032e-05
2.85282e-06
5.49729e-06
2.92514e-06
-8.24186e-06
4.60195e-06
-1.43177e-05
6.09084e-06
-1.43206e-05
8.77023e-06
-1.43206e-05
8.782e-06
-1.42192e-05
8.78428e-06
8.90873e-06
2.89595e-05
-4.39683e-08
4.31295e-06
2.1923e-05
-3.3398e-08
3.79372e-06
1.42952e-05
8.63573e-07
2.99383e-06
1.13605e-05
1.22712e-06
2.614e-06
1.03211e-05
1.40524e-06
2.45125e-06
-1.91617e-06
1.92151e-06
2.44538e-06
-1.39507e-05
1.45371e-05
5.48795e-06
-1.41354e-05
1.47363e-05
5.73173e-06
-2.48535e-06
1.47304e-05
5.36462e-06
6.62426e-06
-3.28311e-06
2.81138e-05
1.60572e-06
4.20842e-06
1.91084e-05
1.19168e-06
3.63131e-06
1.13528e-05
1.37915e-06
2.70759e-06
1.07077e-05
1.55881e-06
2.50883e-06
1.04392e-05
1.65411e-06
2.40705e-06
-1.88919e-06
2.25347e-06
2.44411e-06
-1.40683e-05
1.46632e-05
5.5945e-06
-1.42221e-05
1.47916e-05
6.54433e-06
-2.82487e-06
1.48032e-05
6.8317e-06
7.27729e-06
-3.07881e-06
9.18906e-06
3.30945e-06
1.54138e-06
1.0296e-05
2.38008e-06
1.77957e-06
1.09938e-05
1.75752e-06
1.95074e-06
1.14778e-05
1.82568e-06
2.03405e-06
1.12455e-05
1.87837e-06
2.11778e-06
-1.62761e-06
2.66003e-06
2.36015e-06
-1.41566e-05
1.47329e-05
8.44864e-06
-1.42692e-05
1.48079e-05
8.69971e-06
-4.3047e-06
1.48201e-05
8.72688e-06
1.12843e-05
-4.11227e-06
9.60867e-06
1.45504e-06
1.19956e-05
1.9703e-06
1.27187e-05
2.16452e-06
1.30363e-05
2.2667e-06
1.23327e-05
2.37581e-06
-1.33802e-06
2.72086e-06
-1.42263e-05
8.64423e-06
-1.42945e-05
8.73407e-06
-1.42509e-05
8.74705e-06
8.81882e-06
2.81576e-05
-4.31875e-08
2.47693e-05
-3.42623e-08
2.21e-05
-2.61636e-08
1.99424e-05
-1.83404e-08
1.81619e-05
-1.03896e-08
1.64573e-05
-1.72958e-09
1.38162e-05
6.32421e-07
-9.69436e-07
3.35336e-06
-2.78883e-05
1.15892e-05
1.97087e-05
2.70798e-05
1.61351e-06
2.33634e-05
1.63951e-06
2.053e-05
1.63241e-06
1.82977e-05
1.60716e-06
1.64932e-05
1.57125e-06
1.39944e-05
1.55851e-06
7.83382e-06
7.44986e-06
-5.50004e-06
9.96739e-06
-2.79238e-05
1.36281e-05
1.35798e-05
8.23015e-06
3.31774e-06
8.04662e-06
3.33854e-06
8.08999e-06
3.29357e-06
8.26931e-06
3.20853e-06
8.4931e-06
3.10314e-06
-1.88416e-06
3.09099e-06
-1.3136e-05
1.41309e-05
-1.40212e-05
1.46652e-05
-3.68638e-06
1.47485e-05
1.10328e-05
7.75673e-06
7.87661e-06
8.2222e-06
8.73927e-06
9.20116e-06
-2.08145e-06
-1.38297e-05
-1.41739e-05
-1.41899e-05
)
;

boundaryField
{
    inlet
    {
        type            calculated;
        value           nonuniform 0();
    }
    outlet
    {
        type            calculated;
        value           nonuniform 0();
    }
    bottom
    {
        type            calculated;
        value           uniform 0;
    }
    top
    {
        type            symmetryPlane;
        value           uniform 0;
    }
    side1
    {
        type            symmetryPlane;
        value           uniform 0;
    }
    side2
    {
        type            symmetryPlane;
        value           nonuniform 0();
    }
    procBoundary2to1
    {
        type            processor;
        value           nonuniform List<scalar> 
20
(
-6.6915e-06
-6.60451e-06
-6.69129e-06
-8.23651e-06
-6.75645e-06
-6.69117e-06
-6.75634e-06
-8.59643e-06
-1.99868e-05
-1.98357e-05
-1.47259e-05
-7.299e-06
-3.29184e-05
-3.25931e-05
-2.13617e-05
-7.21659e-06
-3.26029e-05
-3.2173e-05
-2.13606e-05
-7.11638e-06
)
;
    }
    procBoundary2to3
    {
        type            processor;
        value           nonuniform List<scalar> 
20
(
6.49334e-06
7.02305e-06
7.64237e-06
8.37813e-06
6.26455e-06
6.81922e-06
7.47724e-06
8.27142e-06
-3.5736e-06
-3.48544e-06
-3.30669e-06
-3.04864e-06
9.35466e-06
9.17177e-06
7.80108e-06
-3.14679e-06
-4.17986e-05
-4.15477e-05
7.83492e-06
-3.17335e-06
)
;
    }
    procBoundary2to10
    {
        type            processor;
        value           nonuniform List<scalar> 
50
(
9.79697e-06
6.91181e-06
5.02422e-06
4.00504e-06
1.24914e-05
1.48308e-05
1.48319e-05
1.48317e-05
1.39082e-05
4.70624e-06
4.41887e-06
2.40748e-06
2.13421e-06
2.16396e-06
1.20106e-05
1.48307e-05
1.48319e-05
1.48318e-05
1.43843e-05
4.69814e-06
2.828e-06
2.2466e-06
2.11353e-06
2.13965e-06
1.02594e-05
1.483e-05
1.48319e-05
1.48319e-05
1.48319e-05
1.47653e-05
2.83549e-06
2.31282e-06
2.08616e-06
2.11348e-06
2.13434e-06
3.3895e-06
1.47835e-05
1.48199e-05
1.48271e-05
1.47921e-05
3.083e-06
3.03916e-06
2.78988e-06
2.7348e-06
2.67057e-06
3.10438e-06
1.45585e-05
1.47231e-05
1.47467e-05
1.47214e-05
)
;
    }
}


// ************************************************************************* //
