/*--------------------------------*- C++ -*----------------------------------*\
| =========                 |                                                 |
| \\      /  F ield         | OpenFOAM: The Open Source CFD Toolbox           |
|  \\    /   O peration     | Version:  2.4.0                                 |
|   \\  /    A nd           | Web:      www.OpenFOAM.org                      |
|    \\/     M anipulation  |                                                 |
\*---------------------------------------------------------------------------*/
FoamFile
{
    version     2.0;
    format      ascii;
    class       volVectorField;
    location    "0.04";
    object      Uc;
}
// * * * * * * * * * * * * * * * * * * * * * * * * * * * * * * * * * * * * * //

dimensions      [0 1 -1 0 0 0 0];

internalField   nonuniform List<vector> 
200
(
(5.57515e-13 -1.71006e-14 -1.44599e-13)
(1.18405e-14 -3.71364e-16 -3.14853e-15)
(7.56369e-15 -8.96341e-16 -8.09144e-15)
(4.7702e-13 -5.76217e-14 -5.19813e-13)
(2.26065e-11 -2.73365e-12 -2.46346e-11)
(5.95451e-10 -7.20797e-11 -6.48871e-10)
(2.26098e-11 -2.73568e-12 -2.46339e-11)
(7.90564e-13 -2.5078e-13 -4.5439e-13)
(2.47928e-11 -1.53067e-11 5.16353e-12)
(1.46954e-09 -9.09686e-10 3.06626e-10)
(1.56103e-10 -4.81627e-12 -4.04873e-11)
(2.96639e-12 -9.21917e-14 -7.75451e-13)
(6.73831e-13 -7.85487e-14 -6.99772e-13)
(4.49644e-11 -5.49484e-12 -4.89979e-11)
(2.36877e-09 -2.89477e-10 -2.58128e-09)
(7.02183e-08 -8.58105e-09 -7.65178e-08)
(2.36877e-09 -2.89477e-10 -2.58128e-09)
(4.49676e-11 -5.49718e-12 -4.8997e-11)
(8.99974e-13 -2.44212e-13 -6.33146e-13)
(1.41222e-11 -8.81383e-12 2.93709e-12)
(3.2363e-08 -9.98503e-10 -8.39376e-09)
(5.45219e-10 -1.68217e-11 -1.41409e-10)
(6.8968e-12 -2.13466e-13 -1.7949e-12)
(5.46815e-13 -6.01965e-14 -5.35632e-13)
(2.24886e-11 -2.74817e-12 -2.45055e-11)
(5.92637e-10 -7.24235e-11 -6.45805e-10)
(2.24879e-11 -2.74815e-12 -2.45054e-11)
(4.74291e-13 -5.79733e-14 -5.16809e-13)
(8.92171e-15 -1.88905e-15 -7.66841e-15)
(7.53493e-14 -4.72015e-14 1.51183e-14)
(3.75561e-06 -1.15873e-07 -9.74066e-07)
(5.53496e-08 -1.70772e-09 -1.43556e-08)
(6.21543e-10 -1.91767e-11 -1.61206e-10)
(5.89188e-12 -1.82035e-13 -1.53042e-12)
(1.6821e-13 -1.6025e-14 -1.42116e-13)
(2.81407e-12 -3.43856e-13 -3.06621e-12)
(1.18839e-13 -1.44122e-14 -1.29348e-13)
(2.76181e-15 -3.33266e-16 -3.0107e-15)
(1.02696e-17 -9.94083e-17 -9.10086e-16)
(-3.94954e-15 -8.95081e-15 -8.4229e-14)
(1.33286e-10 -4.09042e-12 -3.45696e-11)
(2.56443e-12 -8.20473e-14 -6.96435e-13)
(3.28638e-12 -3.93782e-13 -3.55175e-12)
(2.31099e-10 -2.79452e-11 -2.51831e-10)
(1.217e-08 -1.4732e-09 -1.32619e-08)
(3.60625e-07 -4.36999e-08 -3.92977e-07)
(1.21714e-08 -1.47404e-09 -1.32616e-08)
(3.75579e-10 -1.17126e-10 -2.21685e-10)
(1.28569e-08 -7.95391e-09 2.67842e-09)
(8.71291e-07 -5.40466e-07 1.81799e-07)
(4.13464e-08 -1.27568e-09 -1.07238e-08)
(6.9963e-10 -2.1881e-11 -1.84141e-10)
(3.15281e-10 -3.77254e-11 -3.36261e-10)
(2.422e-08 -2.9598e-09 -2.63927e-08)
(1.43558e-06 -1.75435e-07 -1.56437e-06)
(4.86353e-05 -5.94349e-06 -5.29985e-05)
(1.43558e-06 -1.75435e-07 -1.56436e-06)
(2.42215e-08 -2.96079e-09 -2.63924e-08)
(4.32518e-10 -1.16134e-10 -3.07682e-10)
(7.48159e-09 -4.67457e-09 1.55687e-09)
(9.59791e-06 -2.96127e-07 -2.48935e-06)
(1.41417e-07 -4.3632e-09 -3.66785e-08)
(1.59087e-09 -4.93789e-11 -4.15298e-10)
(2.44925e-10 -2.85574e-11 -2.54411e-10)
(1.21127e-08 -1.48023e-09 -1.31993e-08)
(3.59109e-07 -4.38851e-08 -3.91326e-07)
(1.21126e-08 -1.48022e-09 -1.31992e-08)
(2.29896e-10 -2.80993e-11 -2.50508e-10)
(3.91499e-12 -8.22662e-13 -3.38063e-12)
(3.60517e-11 -2.25843e-11 7.37806e-12)
(0.00126347 -3.89822e-05 -0.000327697)
(1.59512e-05 -4.92148e-07 -4.13716e-06)
(1.56637e-07 -4.83277e-09 -4.06259e-08)
(1.31963e-09 -4.08256e-11 -3.4327e-10)
(6.74767e-11 -7.33355e-12 -6.52371e-11)
(1.51534e-09 -1.85172e-10 -1.65122e-09)
(5.77066e-11 -6.94627e-12 -6.27387e-11)
(1.2215e-12 -1.44941e-13 -1.3264e-12)
(1.27349e-14 -2.16463e-14 -1.91853e-13)
(-8.24144e-13 -1.97304e-12 -1.8309e-11)
(6.33526e-13 -2.63855e-14 -2.28459e-13)
(8.33314e-12 -1.00555e-12 -9.071e-12)
(7.88694e-10 -9.53715e-11 -8.5945e-10)
(6.22945e-08 -7.54081e-09 -6.78831e-08)
(3.69045e-06 -4.47204e-07 -4.02153e-06)
(0.000124963 -1.51588e-05 -0.000136173)
(3.69076e-06 -4.47393e-07 -4.02147e-06)
(9.875e-08 -3.00857e-08 -6.02765e-08)
(3.70859e-06 -2.29891e-06 7.72788e-07)
(0.000293318 -0.000182318 6.12019e-05)
(1.624e-10 -5.6152e-12 -4.7615e-11)
(7.8748e-10 -9.59647e-11 -8.55676e-10)
(8.26601e-08 -1.01015e-08 -9.00758e-08)
(7.34862e-06 -8.98041e-07 -8.00789e-06)
(0.00049778 -6.08314e-05 -0.000542437)
(0.0196727 -0.00240411 -0.0214376)
(0.00049778 -6.08314e-05 -0.000542437)
(7.34899e-06 -8.98271e-07 -8.00781e-06)
(1.15403e-07 -3.05629e-08 -8.32437e-08)
(2.22169e-06 -1.38965e-06 4.62545e-07)
(3.23024e-08 -9.96646e-10 -8.37805e-09)
(5.52341e-10 -1.77973e-11 -1.50126e-10)
(7.9143e-10 -9.60893e-11 -8.56725e-10)
(6.20003e-08 -7.57677e-09 -6.75625e-08)
(3.67495e-06 -4.49099e-07 -4.00464e-06)
(0.000124503 -1.52149e-05 -0.000135673)
(3.67495e-06 -4.49098e-07 -4.00464e-06)
(6.20023e-08 -7.57803e-09 -6.7562e-08)
(9.45589e-10 -1.96769e-10 -8.21342e-10)
(9.56518e-09 -5.99358e-09 1.98506e-09)
(3.7493e-06 -1.15678e-07 -9.7243e-07)
(5.52434e-08 -1.70444e-09 -1.43281e-08)
(6.24338e-10 -1.96408e-11 -1.65366e-10)
(3.00128e-10 -3.61396e-11 -3.22174e-10)
(1.55041e-08 -1.89462e-09 -1.68949e-08)
(4.59663e-07 -5.61701e-08 -5.00897e-07)
(1.56768e-08 -1.83158e-09 -1.6968e-08)
(3.00922e-10 -3.35318e-11 -3.23469e-10)
(4.86151e-12 -8.18925e-13 -4.44788e-12)
(3.0755e-11 -1.92905e-11 6.27077e-12)
(1.656e-15 -8.50924e-17 -7.46631e-16)
(3.77589e-14 -4.55366e-15 -4.11219e-14)
(3.2509e-12 -3.92696e-13 -3.54255e-12)
(2.31098e-10 -2.79452e-11 -2.51831e-10)
(1.217e-08 -1.4732e-09 -1.32619e-08)
(3.60625e-07 -4.36999e-08 -3.92977e-07)
(1.21715e-08 -1.47407e-09 -1.32616e-08)
(3.82523e-10 -1.20833e-10 -2.24994e-10)
(1.36791e-08 -8.39374e-09 2.28653e-09)
(9.57837e-07 -5.86857e-07 1.40551e-07)
(3.54983e-13 -1.36926e-14 -1.16969e-13)
(3.23886e-12 -3.95181e-13 -3.52374e-12)
(3.06484e-10 -3.7454e-11 -3.33979e-10)
(2.42199e-08 -2.9598e-09 -2.63927e-08)
(1.43558e-06 -1.75435e-07 -1.56436e-06)
(4.86353e-05 -5.94349e-06 -5.29985e-05)
(1.43558e-06 -1.75435e-07 -1.56437e-06)
(2.42216e-08 -2.96082e-09 -2.63924e-08)
(4.41149e-10 -1.20793e-10 -3.11795e-10)
(8.2996e-09 -5.11676e-09 1.16701e-09)
(6.08533e-11 -1.87756e-12 -1.57829e-11)
(1.19073e-12 -4.01624e-14 -3.39958e-13)
(3.24841e-12 -3.95463e-13 -3.52635e-12)
(2.29891e-10 -2.80915e-11 -2.50512e-10)
(1.21129e-08 -1.4801e-09 -1.31994e-08)
(3.59124e-07 -4.38797e-08 -3.91332e-07)
(1.24912e-08 -1.34199e-09 -1.33594e-08)
(2.44805e-10 -2.26571e-11 -2.56812e-10)
(4.28858e-12 -7.3148e-13 -3.54021e-12)
(4.03693e-11 -2.49076e-11 5.4196e-12)
(6.30928e-09 -1.94662e-10 -1.63639e-09)
(1.06269e-10 -3.27872e-12 -2.75624e-11)
(1.37267e-12 -3.95535e-14 -3.73445e-13)
(2.19841e-12 2.06247e-13 -1.73556e-12)
(1.25745e-10 1.78911e-11 -9.15107e-11)
(5.05402e-09 1.10664e-09 -3.14827e-09)
(1.02786e-07 3.74937e-08 -4.35395e-08)
(3.53997e-09 1.29166e-09 -1.4984e-09)
(6.82777e-11 2.49124e-11 -2.8884e-11)
(1.12503e-12 2.66535e-13 -3.98489e-13)
(3.14658e-18 -1.88297e-19 -1.66084e-18)
(9.35319e-17 -1.12687e-17 -1.01513e-16)
(7.38232e-15 -8.90736e-16 -8.01801e-15)
(4.77029e-13 -5.76177e-14 -5.18248e-13)
(2.26071e-11 -2.73342e-12 -2.45673e-11)
(5.95477e-10 -7.20703e-11 -6.47279e-10)
(2.31777e-11 -2.52938e-12 -2.48054e-11)
(8.48035e-13 -2.58195e-13 -4.78891e-13)
(2.81922e-11 -1.71205e-11 3.53621e-12)
(1.79143e-09 -1.08186e-09 1.53078e-10)
(5.70912e-16 -2.4387e-17 -2.09059e-16)
(7.34743e-15 -8.96567e-16 -7.97034e-15)
(6.32329e-13 -7.72494e-14 -6.86945e-13)
(4.49678e-11 -5.49342e-12 -4.8865e-11)
(2.36901e-09 -2.89389e-10 -2.57501e-09)
(7.02292e-08 -8.57707e-09 -7.63544e-08)
(2.63779e-09 -1.91274e-10 -2.68824e-09)
(5.58704e-11 -1.51753e-12 -5.34525e-11)
(1.18088e-12 -1.7713e-13 -7.51499e-13)
(1.75054e-11 -1.06373e-11 1.32403e-12)
(8.47325e-14 -2.61386e-15 -2.19258e-14)
(2.01295e-15 -1.69133e-17 -6.19402e-16)
(2.05024e-14 3.89907e-15 -1.34983e-14)
(1.58102e-12 3.46058e-13 -9.80897e-13)
(9.89579e-11 2.51669e-11 -5.66368e-11)
(4.47434e-09 1.34457e-09 -2.27993e-09)
(1.09506e-07 3.99638e-08 -4.61954e-08)
(3.88217e-09 1.41694e-09 -1.63623e-09)
(7.64792e-11 2.7913e-11 -3.22062e-11)
(1.2017e-12 3.46262e-13 -4.59354e-13)
(7.93229e-12 -2.44657e-13 -2.05308e-12)
(1.73733e-13 3.89918e-15 -4.87373e-14)
(2.49591e-12 9.10267e-13 -1.04991e-12)
(2.33431e-10 8.52119e-11 -9.83043e-11)
(1.81478e-08 6.62473e-09 -7.64865e-09)
(1.05302e-06 3.84399e-07 -4.44164e-07)
(3.46579e-05 1.26517e-05 -1.46302e-05)
(1.05302e-06 3.84399e-07 -4.44161e-07)
(1.81477e-08 6.62474e-09 -7.64852e-09)
(2.33429e-10 8.52114e-11 -9.83007e-11)
)
;

boundaryField
{
    inlet
    {
        type            calculated;
        value           nonuniform 0();
    }
    outlet
    {
        type            calculated;
        value           nonuniform 0();
    }
    bottom
    {
        type            calculated;
        value           uniform (0 0 0);
    }
    top
    {
        type            symmetryPlane;
    }
    side1
    {
        type            symmetryPlane;
    }
    side2
    {
        type            symmetryPlane;
    }
    procBoundary2to1
    {
        type            processor;
        value           nonuniform List<vector> 
20
(
(1.47067e-11 -4.51364e-13 -3.81439e-12)
(4.63396e-09 -1.42973e-10 -1.20188e-09)
(1.09802e-06 -3.38776e-08 -2.84786e-07)
(0.00014868 -4.58727e-06 -3.85621e-05)
(3.95636e-09 -1.21489e-10 -1.02614e-09)
(1.40315e-06 -4.32917e-08 -3.63925e-07)
(0.000380064 -1.17262e-05 -9.85746e-05)
(0.0600546 -0.00185289 -0.015576)
(1.46796e-11 -4.50618e-13 -3.80714e-12)
(4.62582e-09 -1.42731e-10 -1.19969e-09)
(1.09625e-06 -3.38233e-08 -2.84316e-07)
(0.000148466 -4.58066e-06 -3.85066e-05)
(3.02643e-14 -9.28815e-16 -7.84831e-15)
(8.57909e-12 -2.64739e-13 -2.22473e-12)
(1.80696e-09 -5.57526e-11 -4.68614e-10)
(2.14111e-07 -6.60605e-09 -5.55327e-08)
(4.58219e-17 -1.40616e-18 -1.18518e-17)
(1.18006e-14 -3.64208e-16 -3.0527e-15)
(2.23629e-12 -6.90014e-14 -5.78703e-13)
(2.3549e-10 -7.26566e-12 -6.09644e-11)
)
;
    }
    procBoundary2to3
    {
        type            processor;
        value           nonuniform List<vector> 
20
(
(4.98028e-08 -3.09038e-08 1.03916e-08)
(4.18786e-10 -2.61792e-10 8.7381e-11)
(1.98388e-12 -1.24835e-12 3.76484e-13)
(-3.55931e-13 -7.5187e-13 -7.19008e-12)
(3.44594e-05 -2.14281e-05 7.19009e-06)
(2.53635e-07 -1.58721e-07 5.29218e-08)
(1.06865e-09 -6.71257e-10 2.14926e-10)
(-8.58177e-11 -1.79362e-10 -1.71648e-09)
(0.0139243 -0.00867691 0.00290535)
(8.78906e-05 -5.50586e-05 1.83386e-05)
(3.24197e-07 -2.03448e-07 6.76442e-08)
(9.11184e-10 -5.73284e-10 1.83031e-10)
(4.21455e-05 -2.55567e-05 3.52697e-06)
(3.18245e-07 -1.93683e-07 2.21292e-08)
(1.37533e-09 -8.36553e-10 7.71013e-11)
(4.98459e-12 -2.62724e-12 -2.14363e-13)
(7.52086e-08 -4.45218e-08 -1.69459e-09)
(6.5897e-10 -3.91626e-10 -2.68333e-11)
(3.264e-12 -1.92543e-12 -1.92487e-13)
(2.50687e-12 9.03577e-13 -1.05208e-12)
)
;
    }
    procBoundary2to10
    {
        type            processor;
        value           nonuniform List<vector> 
50
(
(2.76804e-08 -8.54004e-10 -7.17902e-09)
(4.66203e-10 -1.43864e-11 -1.20929e-10)
(5.88938e-12 -1.81765e-13 -1.52777e-12)
(6.20125e-14 -1.91502e-15 -1.60973e-14)
(1.05674e-15 -6.46293e-17 -6.58666e-16)
(1.09117e-14 -8.29833e-16 -1.1212e-14)
(2.43528e-14 8.66643e-15 -1.06344e-14)
(9.89201e-16 2.99961e-16 -1.06835e-15)
(-3.52178e-15 -7.83776e-15 -7.44938e-14)
(-3.84712e-13 -8.43573e-13 -8.02141e-12)
(7.9769e-06 -2.46113e-07 -2.06891e-06)
(1.17487e-07 -3.62485e-09 -3.04718e-08)
(1.31846e-09 -4.06789e-11 -3.41962e-10)
(1.24894e-11 -3.85641e-13 -3.24324e-12)
(3.27807e-13 -2.04203e-14 -2.56239e-13)
(5.77334e-12 -2.29351e-13 -5.63989e-12)
(2.59538e-11 9.37574e-12 -1.11363e-11)
(9.75269e-13 3.43099e-13 -5.45409e-13)
(-8.27076e-13 -1.67702e-12 -1.63294e-11)
(-1.00487e-10 -1.99671e-10 -1.93451e-09)
(2.76272e-08 -8.52366e-10 -7.16525e-09)
(4.65196e-10 -1.43525e-11 -1.20653e-10)
(5.89369e-12 -1.82327e-13 -1.54227e-12)
(1.30736e-12 -5.1283e-14 -1.23267e-12)
(6.4067e-11 -5.16106e-13 -5.98145e-11)
(2.08372e-09 1.30628e-10 -1.74397e-09)
(2.34882e-08 8.55035e-09 -9.98497e-09)
(7.91739e-10 2.88516e-10 -3.36069e-10)
(1.50231e-11 5.46835e-12 -6.44721e-12)
(-1.11385e-13 -7.9563e-13 -8.04887e-12)
(5.31474e-11 -1.63966e-12 -1.37837e-11)
(1.01705e-12 -2.74046e-14 -2.65414e-13)
(1.09551e-12 3.94277e-13 -4.60846e-13)
(1.02521e-10 3.74223e-11 -4.33592e-11)
(8.09988e-09 2.95672e-09 -3.42699e-09)
(4.79996e-07 1.75218e-07 -2.03161e-07)
(1.62581e-05 5.93493e-06 -6.88406e-06)
(4.79991e-07 1.75218e-07 -2.03156e-07)
(8.0997e-09 2.95675e-09 -3.42679e-09)
(1.04581e-10 3.77308e-11 -4.49154e-11)
(9.23741e-14 3.92791e-15 -2.66764e-14)
(2.22094e-12 8.10115e-13 -9.3435e-13)
(2.62957e-10 9.59911e-11 -1.10748e-10)
(2.76946e-08 1.01098e-08 -1.16735e-08)
(2.46109e-06 8.98406e-07 -1.03823e-06)
(0.00016664 6.08311e-05 -7.03562e-05)
(0.00658307 0.00240311 -0.00278169)
(0.00016664 6.08311e-05 -7.03562e-05)
(2.46109e-06 8.98406e-07 -1.03823e-06)
(2.76946e-08 1.01098e-08 -1.16735e-08)
)
;
    }
}


// ************************************************************************* //
