/*--------------------------------*- C++ -*----------------------------------*\
| =========                 |                                                 |
| \\      /  F ield         | OpenFOAM: The Open Source CFD Toolbox           |
|  \\    /   O peration     | Version:  2.4.0                                 |
|   \\  /    A nd           | Web:      www.OpenFOAM.org                      |
|    \\/     M anipulation  |                                                 |
\*---------------------------------------------------------------------------*/
FoamFile
{
    version     2.0;
    format      ascii;
    class       volVectorField;
    location    "0.04";
    object      Ua;
}
// * * * * * * * * * * * * * * * * * * * * * * * * * * * * * * * * * * * * * //

dimensions      [0 1 -1 0 0 0 0];

internalField   nonuniform List<vector> 
200
(
(16.2305 21.3111 -7.05188)
(-12.7392 12.2816 -4.24838)
(-63.7255 -3.61954 -1.3787)
(-63.7529 -3.62834 -1.37768)
(-63.7518 -3.6288 -1.37751)
(-61.5537 -4.5449 -1.03181)
(-59.5114 -5.39607 -0.71061)
(-57.6094 -6.18878 -0.41147)
(-55.8338 -6.92886 -0.132202)
(-54.1736 -7.62029 0.129002)
(21.514 22.9518 -7.96765)
(-21.1169 9.66298 -4.67293)
(-63.7451 -3.62499 -1.37858)
(-63.754 -3.62788 -1.37785)
(-63.7536 -3.62805 -1.37779)
(-62.6336 -4.09487 -1.20163)
(-61.5548 -4.54446 -1.03197)
(-60.5153 -4.97766 -0.868499)
(-59.5131 -5.39536 -0.710877)
(-58.5447 -5.79793 -0.558673)
(-21.1151 9.66372 -4.67322)
(-63.7462 -3.62492 -1.37863)
(-63.7548 -3.62758 -1.37797)
(-63.7548 -3.62758 -1.37797)
(-63.7548 -3.62758 -1.37797)
(-63.7547 -3.62761 -1.37796)
(-63.7546 -3.62765 -1.37794)
(-63.7544 -3.62772 -1.37792)
(-63.7542 -3.62781 -1.37788)
(-63.7509 -3.62728 -1.37755)
(-35.3636 5.19132 -3.57208)
(-63.7495 -3.5879 -1.37837)
(-63.7547 -3.59329 -1.37797)
(-63.7548 -3.59709 -1.37797)
(-63.7548 -3.60088 -1.37797)
(-63.7547 -3.59711 -1.37796)
(-63.7547 -3.59334 -1.37795)
(-63.7546 -3.58959 -1.37794)
(-63.7528 -3.58552 -1.37776)
(-48.7276 -0.455658 0.0467428)
(-37.7246 4.50078 2.21729)
(-37.7285 4.49991 2.2178)
(-36.1458 2.13034 2.5118)
(-15.8297 -23.5599 6.15832)
(-10.4416 -25.847 7.0068)
(-3.76952 -28.6278 8.05616)
(-3.76592 -28.6293 8.05672)
(-3.7648 -28.6298 8.05689)
(-3.76431 -28.63 8.05697)
(-3.76449 -28.628 8.05675)
(-17.488 10.8023 -1.26165)
(-30.9706 2.21116 1.41674)
(-29.5081 -17.8805 4.00658)
(-23.7858 -20.2856 4.90811)
(-15.7805 -23.622 6.16715)
(-3.77487 -28.6256 8.05532)
(-3.76953 -28.6278 8.05616)
(-3.76792 -28.6285 8.05641)
(-3.76725 -28.6288 8.05651)
(-3.76796 -28.6234 8.05589)
(-26.139 8.10016 -2.5883)
(-63.7269 -3.62424 -1.37624)
(-63.7467 -3.63091 -1.37671)
(-63.7452 -3.63157 -1.37646)
(-63.7399 -3.6338 -1.37562)
(-51.7658 -8.62424 0.507579)
(-43.7783 -11.9532 1.76382)
(-38.0714 -14.3317 2.66136)
(-33.7882 -16.1134 3.33465)
(-19.7625 -4.10385 3.76304)
(-35.7164 5.08007 -2.7101)
(-63.7404 -3.58448 -1.37726)
(-63.7498 -3.59153 -1.3772)
(-63.7488 -3.59578 -1.37703)
(-63.7452 -3.60105 -1.37646)
(-57.1043 -6.3488 -0.332027)
(-51.7894 -8.54395 0.503876)
(-47.4372 -10.3351 1.18809)
(-27.8534 -2.58433 2.67616)
(-10.4107 7.53125 3.6796)
(-37.7281 4.50001 2.2178)
(-37.7299 4.50006 2.21795)
(-36.6648 3.46075 2.40118)
(-3.92712 -28.4688 8.02893)
(-3.75998 -28.6318 8.05766)
(-3.7599 -28.6318 8.05767)
(-3.7599 -28.6318 8.05767)
(-3.7599 -28.6318 8.05767)
(-3.7599 -28.6318 8.05767)
(-3.7599 -28.6318 8.05767)
(-37.7268 4.49937 2.21786)
(-35.6635 2.48482 2.57313)
(-3.85446 -28.5398 8.04142)
(-3.7601 -28.6317 8.05764)
(-3.75997 -28.6318 8.05766)
(-3.7599 -28.6318 8.05767)
(-3.7599 -28.6318 8.05767)
(-3.7599 -28.6318 8.05767)
(-3.7599 -28.6318 8.05767)
(-3.7599 -28.6318 8.05767)
(-37.7251 4.49824 2.21796)
(-33.7444 0.294246 2.91132)
(-7.05672 -27.2301 7.53843)
(-5.96771 -27.7117 7.71044)
(-4.88475 -28.163 7.88076)
(-3.76104 -28.6313 8.05749)
(-3.76064 -28.6315 8.05755)
(-3.76051 -28.6316 8.05757)
(-3.76046 -28.6316 8.05758)
(-3.76075 -28.6299 8.05738)
(-37.7229 4.47281 2.21812)
(-32.1348 -1.88832 3.20469)
(-9.96905 -25.8228 7.08062)
(-8.02636 -26.6646 7.38666)
(-5.97212 -27.5346 7.70974)
(-3.76284 -28.47 8.05721)
(-3.76174 -28.4504 8.05738)
(-3.7614 -28.4306 8.05743)
(-3.76166 -28.4085 8.05719)
(-6.33081 -14.5091 6.36507)
(-37.7288 4.5001 2.21784)
(-37.7305 4.50029 2.21794)
(-37.731 4.50034 2.21797)
(-37.637 4.4085 2.23418)
(-5.8264 -26.6164 7.70244)
(-3.76053 -28.6312 8.05756)
(-3.76004 -28.6317 8.05764)
(-3.75995 -28.6318 8.05766)
(-3.75992 -28.6318 8.05766)
(-3.75991 -28.6318 8.05766)
(-37.7283 4.50003 2.21781)
(-37.7302 4.50024 2.21793)
(-37.5638 4.33737 2.24669)
(-4.82588 -27.5922 7.87443)
(-3.76013 -28.6316 8.05763)
(-3.7599 -28.6318 8.05767)
(-3.7599 -28.6318 8.05767)
(-3.7599 -28.6318 8.05767)
(-3.7599 -28.6318 8.05767)
(-3.7599 -28.6318 8.05767)
(-37.7276 4.49995 2.21777)
(-37.7299 4.50015 2.21792)
(-37.3671 4.13873 2.28064)
(-5.0942 -27.7444 7.83914)
(-4.13973 -28.4734 7.99793)
(-3.76039 -28.6316 8.05759)
(-3.76021 -28.6317 8.05762)
(-3.76015 -28.6317 8.05763)
(-3.76013 -28.6317 8.05763)
(-3.7603 -28.6307 8.05752)
(-37.727 4.47856 2.21773)
(-37.7295 4.47636 2.21792)
(-37.1432 3.88338 2.31951)
(-5.6652 -27.3838 7.7517)
(-4.51612 -28.118 7.93873)
(-3.76113 -28.4507 8.05748)
(-3.76065 -28.4309 8.05755)
(-3.7605 -28.411 8.05757)
(-3.76068 -28.3897 8.05743)
(-5.35664 -19.7838 7.01007)
(-37.7281 4.50004 2.21141)
(-37.7301 4.50026 2.21062)
(-37.7307 4.50033 2.20974)
(-37.6786 4.44929 2.21783)
(-8.03725 -24.4601 7.3018)
(-3.76162 -28.6301 8.03747)
(-3.76028 -28.6314 8.0355)
(-3.76004 -28.6317 8.03333)
(-3.75996 -28.6317 8.03114)
(-3.75994 -28.6318 8.02894)
(-37.7276 4.49995 2.21047)
(-37.7299 4.50021 2.2097)
(-37.6377 4.40963 2.22477)
(-6.04294 -26.4052 7.64392)
(-3.76046 -28.6313 8.03768)
(-3.7599 -28.6318 8.03998)
(-3.7599 -28.6318 8.03777)
(-3.7599 -28.6318 8.03557)
(-3.7599 -28.6318 8.03336)
(-3.7599 -28.6318 8.03116)
(-37.7269 4.49987 2.20952)
(-37.7296 4.50014 2.20878)
(-37.5281 4.30101 2.24265)
(-5.41187 -27.2245 7.75539)
(-3.95062 -28.5521 8.00564)
(-3.76021 -28.6317 8.03772)
(-3.76009 -28.6317 8.03554)
(-3.76005 -28.6318 8.03334)
(-3.76003 -28.6318 8.03114)
(-3.76017 -28.631 8.02884)
(-37.7263 4.47612 2.20857)
(-37.7292 4.47402 2.20786)
(-37.4026 4.14878 2.26333)
(-5.4338 -27.1789 7.7549)
(-4.14052 -28.2535 7.97365)
(-3.76065 -28.4308 8.03544)
(-3.76035 -28.411 8.03328)
(-3.76026 -28.3911 8.03109)
(-3.7604 -28.3701 8.02877)
(-4.92032 -22.1566 7.27447)
)
;

boundaryField
{
    inlet
    {
        type            calculated;
        value           nonuniform 0();
    }
    outlet
    {
        type            calculated;
        value           nonuniform 0();
    }
    bottom
    {
        type            calculated;
        value           uniform (0 0 0);
    }
    top
    {
        type            symmetryPlane;
    }
    side1
    {
        type            symmetryPlane;
    }
    side2
    {
        type            symmetryPlane;
    }
    procBoundary28to20
    {
        type            processor;
        value           nonuniform List<vector> 
50
(
(13.2352 24.4331 -0.758911)
(12.6955 24.232 -0.730335)
(-60.284 -2.36557 -1.34667)
(-63.7502 -3.62869 -1.37743)
(-63.7489 -3.62986 -1.37711)
(-60.5131 -4.97866 -0.868128)
(-57.6079 -6.1892 -0.411322)
(-55.0237 -7.28085 0.000678369)
(-52.7258 -8.26656 0.373435)
(-50.284 -9.09322 0.751196)
(-32.8616 3.97374 1.93173)
(-33.4501 4.01145 1.96639)
(-33.0363 2.75046 2.18905)
(-12.4628 -24.9017 6.68251)
(-8.38779 -26.703 7.3298)
(-3.7679 -28.6285 8.05639)
(-3.76481 -28.6299 8.0569)
(-3.76378 -28.6305 8.05699)
(-3.76572 -28.6309 8.05873)
(-3.77277 -28.6294 8.06076)
(-32.2769 3.8498 1.89735)
(-32.9597 3.93115 1.93753)
(-32.965 3.4178 2.07634)
(-4.0876 -28.2767 7.99175)
(-3.75999 -28.6317 8.05763)
(-3.75989 -28.6318 8.05766)
(-3.75988 -28.6318 8.05765)
(-3.7599 -28.6319 8.05766)
(-3.75992 -28.632 8.05767)
(-3.76 -28.6321 8.0577)
(-31.3687 3.74151 1.84397)
(-32.2786 3.85004 1.89746)
(-32.9605 3.93137 1.93755)
(-33.4449 3.94429 1.97811)
(-7.55368 -24.5209 7.29476)
(-3.76143 -28.6302 8.05735)
(-3.76024 -28.6315 8.05759)
(-3.76006 -28.6319 8.05765)
(-3.76002 -28.632 8.05767)
(-3.76008 -28.6322 8.05771)
(-32.1266 4.91614 1.68945)
(-32.7813 4.46155 1.82179)
(-33.3023 4.34165 1.88391)
(-33.6969 4.2723 1.92912)
(-11.1241 -20.6333 6.55587)
(-3.76409 -28.6274 8.03473)
(-3.76084 -28.631 8.03319)
(-3.76029 -28.6318 8.03111)
(-3.76015 -28.6321 8.02895)
(-3.76018 -28.6323 8.02679)
)
;
    }
    procBoundary28to27
    {
        type            processor;
        value           nonuniform List<vector> 
20
(
(21.5139 22.9549 -7.96215)
(21.5231 22.9546 -7.9684)
(21.514 22.9518 -7.96769)
(21.5008 22.7868 -7.96667)
(-28.1223 5.62066 1.05842)
(21.4722 22.9371 -7.95921)
(21.4835 22.9414 -7.96242)
(21.4753 22.7624 -7.96257)
(-32.2785 3.85002 1.89745)
(-32.7583 4.00149 1.90089)
(-33.0396 4.14923 1.88741)
(-33.1693 4.27278 1.85978)
(-31.3702 3.74167 1.84406)
(-32.2787 3.85003 1.89746)
(-32.9599 3.93128 1.93751)
(-33.4909 3.97333 1.96871)
(-32.2801 3.87719 1.88637)
(-32.9608 3.93898 1.92892)
(-33.4906 3.99794 1.9599)
(-33.9153 4.02342 1.98422)
)
;
    }
    procBoundary28to29
    {
        type            processor;
        value           nonuniform List<vector> 
20
(
(-45.7415 -5.60873 0.923492)
(-45.9245 -2.75749 0.601069)
(-41.1499 1.13502 0.765196)
(-10.4185 7.53091 3.67872)
(-6.08797 -15.9642 6.53182)
(-7.86013 -6.27122 5.35886)
(-10.4092 7.61907 3.67978)
(-10.4079 7.54907 3.67973)
(-3.76009 -28.6315 8.05757)
(-3.76014 -28.6305 8.05751)
(-5.95072 -16.6893 6.61511)
(-10.4069 7.52781 3.68038)
(-3.7601 -28.6318 8.05756)
(-3.76005 -28.631 8.05758)
(-5.07192 -21.4812 7.19376)
(-10.4056 7.50467 3.68127)
(-3.76015 -28.632 8.02662)
(-3.76003 -28.6312 8.02888)
(-4.6967 -23.5332 7.4136)
(-10.406 7.47942 3.67282)
)
;
    }
}


// ************************************************************************* //
