/*--------------------------------*- C++ -*----------------------------------*\
| =========                 |                                                 |
| \\      /  F ield         | OpenFOAM: The Open Source CFD Toolbox           |
|  \\    /   O peration     | Version:  2.4.0                                 |
|   \\  /    A nd           | Web:      www.OpenFOAM.org                      |
|    \\/     M anipulation  |                                                 |
\*---------------------------------------------------------------------------*/
FoamFile
{
    version     2.0;
    format      ascii;
    class       volVectorField;
    location    "0.04";
    object      Uc;
}
// * * * * * * * * * * * * * * * * * * * * * * * * * * * * * * * * * * * * * //

dimensions      [0 1 -1 0 0 0 0];

internalField   nonuniform List<vector> 
200
(
(1.09919e-09 1.44326e-09 -4.77578e-10)
(-1.53518e-11 1.48004e-11 -5.11965e-12)
(-1.47315e-09 -8.36733e-11 -3.18716e-11)
(-7.7585e-08 -4.41555e-09 -1.67659e-09)
(-2.29928e-06 -1.30876e-07 -4.96813e-08)
(-7.77591e-08 -5.74144e-09 -1.30345e-09)
(-1.47971e-09 -1.34169e-10 -1.76688e-11)
(-2.08593e-11 -2.24085e-12 -1.48986e-13)
(-2.426e-13 -3.01062e-14 -5.74425e-16)
(-2.46245e-15 -3.46379e-16 5.86378e-18)
(1.396e-07 1.4893e-07 -5.17005e-08)
(-2.60188e-09 1.19061e-09 -5.75766e-10)
(-3.10251e-07 -1.7643e-08 -6.70961e-09)
(-1.83826e-05 -1.04605e-06 -3.97286e-07)
(-0.000622527 -3.54264e-05 -1.34535e-05)
(-1.84033e-05 -1.20317e-06 -3.53069e-07)
(-3.10958e-07 -2.29574e-08 -5.21326e-09)
(-3.94091e-09 -3.24158e-10 -5.65589e-11)
(-4.16218e-11 -3.77337e-12 -4.97168e-13)
(-3.86844e-13 -3.83108e-14 -3.69152e-15)
(-2.6016e-09 1.19067e-09 -5.7579e-10)
(-4.13634e-07 -2.35212e-08 -8.94559e-09)
(-3.67589e-05 -2.09154e-06 -7.94492e-07)
(-0.00248894 -0.000141618 -5.3795e-05)
(-0.0983248 -0.00559458 -0.00212515)
(-0.00248894 -0.00014162 -5.37946e-05)
(-3.67589e-05 -2.09159e-06 -7.94477e-07)
(-4.13648e-07 -2.35372e-08 -8.94011e-09)
(-3.92755e-09 -2.2349e-10 -8.48838e-11)
(-3.31489e-11 -1.8861e-12 -7.16291e-13)
(-3.46545e-11 5.08722e-12 -3.50046e-12)
(-3.94833e-09 -2.22217e-10 -8.53696e-11)
(-3.11735e-07 -1.75697e-08 -6.73771e-09)
(-1.84602e-05 -1.04154e-06 -3.98992e-07)
(-0.000624826 -3.52903e-05 -1.35047e-05)
(-1.84602e-05 -1.04154e-06 -3.9899e-07)
(-3.11735e-07 -1.757e-08 -6.73763e-09)
(-3.94841e-09 -2.22309e-10 -8.53376e-11)
(-4.16766e-11 -2.34393e-12 -9.00672e-13)
(-4.11902e-13 -3.85175e-15 3.95124e-16)
(-2.06935e-07 2.46886e-08 1.21627e-08)
(-6.98052e-09 8.32572e-10 4.10337e-10)
(-1.39495e-10 8.22147e-12 9.69359e-12)
(-3.56671e-10 -5.30846e-10 1.38758e-10)
(-1.11301e-08 -2.75513e-08 7.4688e-09)
(-1.05876e-07 -8.0408e-07 2.26276e-07)
(-3.56751e-09 -2.7121e-08 7.63225e-09)
(-6.7687e-11 -5.14732e-10 1.44854e-10)
(-9.51535e-13 -7.23703e-12 2.03662e-12)
(-1.10386e-14 -8.3946e-14 2.36249e-14)
(-1.22958e-09 7.59506e-10 -8.87065e-11)
(-7.79088e-11 5.56234e-12 3.56391e-12)
(-1.23997e-09 -7.5136e-10 1.68362e-10)
(-6.76231e-08 -5.7672e-08 1.39538e-08)
(-2.21547e-06 -3.31636e-06 8.65825e-07)
(-1.43607e-05 -0.0001089 3.06448e-05)
(-4.2325e-07 -3.21439e-06 9.04562e-07)
(-7.13751e-09 -5.42304e-08 1.52611e-08)
(-9.03026e-11 -6.86243e-10 1.93118e-10)
(-9.52601e-13 -7.23645e-12 2.03666e-12)
(-1.89877e-11 5.88405e-12 -1.88017e-12)
(-1.53148e-09 -8.70978e-11 -3.30737e-11)
(-1.20978e-07 -6.89071e-09 -2.61272e-09)
(-7.16923e-06 -4.08432e-07 -1.54807e-07)
(-0.000242835 -1.3844e-05 -5.24082e-06)
(-7.27475e-06 -1.21198e-06 7.1331e-08)
(-1.24539e-07 -3.40041e-08 5.01763e-09)
(-1.59878e-09 -6.01849e-10 1.11762e-10)
(-1.71013e-11 -8.15551e-12 1.68777e-12)
(-2.23818e-13 -4.64777e-14 4.26179e-14)
(-1.86041e-13 2.64613e-14 -1.41165e-14)
(-1.62458e-11 -9.13594e-13 -3.51028e-13)
(-1.15457e-09 -6.5046e-11 -2.49425e-11)
(-6.07893e-08 -3.42885e-09 -1.3131e-09)
(-1.80095e-06 -1.01738e-07 -3.88884e-08)
(-6.12359e-08 -6.80814e-09 -3.5605e-10)
(-1.17153e-09 -1.93273e-10 1.13982e-11)
(-1.66029e-11 -3.61726e-12 4.15828e-13)
(-2.36297e-13 -2.19244e-14 2.27035e-14)
(-5.45151e-12 3.9437e-12 1.9268e-12)
(-0.000143493 1.71151e-05 8.43506e-06)
(-4.23574e-06 5.05198e-07 2.48998e-07)
(-7.16938e-08 6.76708e-09 4.69524e-09)
(-1.91348e-08 -1.38714e-07 3.91208e-08)
(-1.08057e-06 -8.22839e-06 2.31566e-06)
(-3.66076e-05 -0.000278768 7.8452e-05)
(-1.08054e-06 -8.22839e-06 2.31566e-06)
(-1.82299e-08 -1.38822e-07 3.90677e-08)
(-2.30683e-10 -1.75666e-09 4.94366e-10)
(-2.43263e-12 -1.85246e-11 5.21327e-12)
(-1.0595e-06 1.26358e-07 6.2285e-08)
(-3.59692e-08 2.50612e-09 2.59519e-09)
(-2.49852e-08 -1.84999e-07 5.21257e-08)
(-2.16083e-06 -1.64539e-05 4.63052e-06)
(-0.000146365 -0.00111455 0.000313661)
(-0.00578435 -0.0440481 0.0123962)
(-0.000146362 -0.00111455 0.000313661)
(-2.16071e-06 -1.64539e-05 4.63052e-06)
(-2.43045e-08 -1.8508e-07 5.20859e-08)
(-2.30674e-10 -1.7566e-09 4.94348e-10)
(-4.47051e-09 5.33052e-10 2.62833e-10)
(-1.75207e-10 1.52777e-12 1.51161e-11)
(-4.58437e-10 -1.76899e-09 4.89731e-10)
(-3.004e-08 -1.39494e-07 3.88124e-08)
(-1.43063e-06 -8.24831e-06 2.3081e-06)
(-3.66194e-05 -0.000278769 7.84517e-05)
(-1.08077e-06 -8.2284e-06 2.31566e-06)
(-1.82331e-08 -1.38822e-07 3.90676e-08)
(-2.3072e-10 -1.75666e-09 4.94365e-10)
(-2.43332e-12 -1.85244e-11 5.21337e-12)
(-1.41854e-11 1.68197e-12 8.34109e-13)
(-6.49058e-13 -3.81401e-14 6.47282e-14)
(-3.61328e-12 -9.35949e-12 2.56637e-12)
(-1.99532e-10 -6.62873e-10 1.8363e-10)
(-7.54179e-09 -3.47716e-08 9.73611e-09)
(-1.35646e-07 -1.0263e-06 2.90452e-07)
(-4.57542e-09 -3.46044e-08 9.80022e-09)
(-8.68594e-11 -6.56528e-10 1.86065e-10)
(-1.22181e-12 -9.22723e-12 2.61702e-12)
(-3.88959e-14 -8.91422e-14 3.91064e-14)
(-0.0580432 0.00692309 0.003412)
(-0.00146874 0.000175183 8.63379e-05)
(-2.1683e-05 2.58622e-06 1.27461e-06)
(-2.43968e-07 2.85764e-08 1.44822e-08)
(-5.87634e-09 -2.68445e-08 7.76846e-09)
(-1.05608e-07 -8.04061e-07 2.26284e-07)
(-3.5616e-09 -2.71206e-08 7.63239e-09)
(-6.75944e-11 -5.14726e-10 1.44856e-10)
(-9.50356e-13 -7.23696e-12 2.03665e-12)
(-1.10238e-14 -8.39467e-14 2.36246e-14)
(-0.000367334 4.38137e-05 2.15933e-05)
(-1.08432e-05 1.29331e-06 6.37404e-07)
(-1.83029e-07 2.11337e-08 1.09469e-08)
(-9.43646e-09 -5.39534e-08 1.53975e-08)
(-4.2213e-07 -3.21432e-06 9.04588e-07)
(-1.43002e-05 -0.000108897 3.06461e-05)
(-4.22102e-07 -3.21432e-06 9.04586e-07)
(-7.12136e-09 -5.42295e-08 1.52615e-08)
(-9.01152e-11 -6.86231e-10 1.93122e-10)
(-9.50307e-13 -7.23663e-12 2.03656e-12)
(-1.35615e-06 1.61754e-07 7.97195e-08)
(-4.5745e-08 5.45613e-09 2.68908e-09)
(-8.69474e-10 9.63018e-11 5.3067e-11)
(-9.43949e-11 -5.14101e-10 1.45258e-10)
(-3.94622e-09 -2.71425e-08 7.62408e-09)
(-1.05603e-07 -8.04064e-07 2.26282e-07)
(-3.56176e-09 -2.71206e-08 7.63238e-09)
(-6.75981e-11 -5.14726e-10 1.44856e-10)
(-9.50409e-13 -7.23695e-12 2.03665e-12)
(-1.10253e-14 -8.39461e-14 2.36249e-14)
(-3.82385e-09 4.53929e-10 2.2478e-10)
(-1.45126e-10 1.72183e-11 8.53119e-12)
(-3.07026e-12 3.21e-13 1.9173e-13)
(-5.60012e-13 -2.70693e-12 7.66265e-13)
(-2.06348e-11 -1.28475e-10 3.62732e-11)
(-4.47095e-10 -3.38201e-09 9.57814e-10)
(-1.69665e-11 -1.28268e-10 3.63524e-11)
(-3.57881e-13 -2.70383e-12 7.66826e-13)
(-5.53715e-15 -4.18005e-14 1.18636e-14)
(-1.31254e-16 -4.84762e-16 1.71768e-16)
(-0.0001437 1.71399e-05 8.42289e-06)
(-4.24272e-06 5.06051e-07 2.48582e-07)
(-7.15956e-08 8.53956e-09 4.19308e-09)
(-9.06319e-10 1.07023e-10 5.33475e-11)
(-1.61702e-11 -4.92115e-11 1.46906e-11)
(-1.74342e-10 -1.32693e-09 3.72517e-10)
(-6.61286e-12 -5.03515e-11 1.41313e-11)
(-1.39454e-13 -1.06191e-12 2.97944e-13)
(-2.15697e-15 -1.64251e-14 4.6072e-15)
(-2.72979e-17 -2.07873e-16 5.82918e-17)
(-1.06124e-06 1.2658e-07 6.21786e-08)
(-3.58048e-08 4.27059e-09 2.09695e-09)
(-6.79883e-10 7.96551e-11 4.01881e-11)
(-2.27794e-11 -9.95364e-11 2.88144e-11)
(-6.96604e-10 -5.30378e-09 1.48893e-09)
(-2.06463e-08 -1.57222e-07 4.41489e-08)
(-6.96489e-10 -5.3038e-09 1.48893e-09)
(-1.32207e-11 -1.00676e-10 2.8255e-11)
(-1.85908e-13 -1.4157e-12 3.9721e-13)
(-2.15681e-15 -1.64242e-14 4.60695e-15)
(-4.47875e-09 5.34203e-10 2.62303e-10)
(-1.69972e-10 2.02731e-11 9.95054e-12)
(-3.5875e-12 4.11154e-13 2.14386e-13)
(-2.09948e-13 -1.05615e-12 3.00863e-13)
(-6.96969e-12 -5.03718e-11 1.41236e-11)
(-1.74268e-10 -1.32695e-09 3.72511e-10)
(-6.61246e-12 -5.03515e-11 1.41312e-11)
(-1.39454e-13 -1.06191e-12 2.97944e-13)
(-2.157e-15 -1.64251e-14 4.60719e-15)
(-2.73002e-17 -2.07872e-16 5.82924e-17)
(-1.42142e-11 1.68647e-12 8.32124e-13)
(-5.9944e-13 7.1083e-14 3.50783e-14)
(-1.39286e-14 1.545e-15 8.42858e-16)
(-1.2229e-15 -6.11672e-15 1.74527e-15)
(-3.88002e-14 -2.6476e-13 7.472e-14)
(-8.30391e-13 -6.27782e-12 1.77431e-12)
(-3.50142e-14 -2.64547e-13 7.48013e-14)
(-8.12505e-16 -6.13466e-15 1.73533e-15)
(-1.37152e-17 -1.03474e-16 2.92832e-17)
(-2.97553e-19 -1.3399e-18 4.39918e-19)
)
;

boundaryField
{
    inlet
    {
        type            calculated;
        value           nonuniform 0();
    }
    outlet
    {
        type            calculated;
        value           nonuniform 0();
    }
    bottom
    {
        type            calculated;
        value           uniform (0 0 0);
    }
    top
    {
        type            symmetryPlane;
    }
    side1
    {
        type            symmetryPlane;
    }
    side2
    {
        type            symmetryPlane;
    }
    procBoundary28to20
    {
        type            processor;
        value           nonuniform List<vector> 
50
(
(3.10845e-10 5.73842e-10 -1.7824e-11)
(4.21994e-12 8.05467e-12 -2.42762e-13)
(-5.13212e-12 -2.01387e-13 -1.14645e-13)
(-2.45594e-10 -1.39793e-11 -5.30647e-12)
(-6.47056e-09 -3.68434e-10 -1.39777e-10)
(-2.46421e-10 -2.0274e-11 -3.53518e-12)
(-5.2158e-12 -5.60368e-13 -3.72409e-14)
(-8.09667e-14 -1.07137e-14 9.98213e-19)
(-1.02838e-15 -1.61234e-16 7.28361e-18)
(-1.13008e-17 -2.04361e-18 1.68824e-19)
(-1.52425e-09 1.84317e-10 8.96009e-11)
(-5.87941e-11 7.05079e-12 3.45627e-12)
(-1.28462e-12 1.06952e-13 8.51215e-14)
(-1.38606e-12 -2.76946e-12 7.43201e-13)
(-4.08615e-11 -1.30085e-10 3.57074e-11)
(-4.4654e-10 -3.39281e-09 9.54777e-10)
(-1.69269e-11 -1.28722e-10 3.62245e-11)
(-3.56837e-13 -2.7144e-12 7.63868e-13)
(-5.51793e-15 -4.1953e-14 1.18085e-14)
(-6.98708e-17 -5.30209e-16 1.49283e-16)
(-9.06423e-07 1.08113e-07 5.32827e-08)
(-3.12202e-08 3.72368e-09 1.83527e-09)
(-6.03288e-10 6.25487e-11 3.79988e-11)
(-9.5093e-11 -6.57824e-10 1.85918e-10)
(-4.55877e-09 -3.47142e-08 9.7694e-09)
(-1.35153e-07 -1.0292e-06 2.8964e-07)
(-4.55862e-09 -3.47143e-08 9.7694e-09)
(-8.65185e-11 -6.58844e-10 1.85414e-10)
(-1.21643e-12 -9.26317e-12 2.60686e-12)
(-1.41102e-14 -1.07448e-13 3.02383e-14)
(-0.000305416 3.64285e-05 1.79535e-05)
(-9.27645e-06 1.10645e-06 5.45305e-07)
(-1.5981e-07 1.90613e-08 9.39425e-09)
(-2.05514e-09 2.42371e-10 1.21552e-10)
(-3.88464e-11 -1.26104e-10 3.75149e-11)
(-4.45736e-10 -3.39273e-09 9.54811e-10)
(-1.69052e-11 -1.28721e-10 3.62252e-11)
(-3.56456e-13 -2.71432e-12 7.6387e-13)
(-5.51261e-15 -4.19778e-14 1.18135e-14)
(-6.97562e-17 -5.31177e-16 1.49485e-16)
(-9.42786e-07 1.44269e-07 4.95784e-08)
(-3.18661e-08 4.33699e-09 1.77093e-09)
(-6.10747e-10 7.96236e-11 3.45499e-11)
(-8.67084e-12 1.09934e-12 4.96399e-13)
(-1.36304e-13 -2.5282e-13 8.0329e-14)
(-8.2834e-13 -6.29986e-12 1.76816e-12)
(-3.48844e-14 -2.65572e-13 7.45133e-14)
(-8.09091e-16 -6.16061e-15 1.72803e-15)
(-1.36512e-17 -1.03949e-16 2.91491e-17)
(-1.87157e-19 -1.42512e-18 3.9952e-19)
)
;
    }
    procBoundary28to27
    {
        type            processor;
        value           nonuniform List<vector> 
20
(
(1.04785e-07 1.11804e-07 -3.87802e-08)
(1.24095e-05 1.32349e-05 -4.59431e-06)
(1.04709e-07 1.11706e-07 -3.87788e-08)
(4.98667e-10 5.28494e-10 -1.84771e-10)
(-5.71002e-09 1.14123e-09 2.14904e-10)
(4.07821e-08 4.35643e-08 -1.51169e-08)
(3.87263e-10 4.13543e-10 -1.43531e-10)
(2.0498e-12 2.17265e-12 -7.6002e-13)
(-3.62372e-06 4.32219e-07 2.13015e-07)
(-3.11445e-08 3.80437e-09 1.80725e-09)
(-1.49763e-10 1.88077e-11 8.55528e-12)
(-5.32966e-13 6.86553e-14 2.9883e-14)
(-0.00122115 0.000145652 7.17838e-05)
(-9.27644e-06 1.10645e-06 5.45304e-07)
(-3.99616e-08 4.7664e-09 2.34909e-09)
(-1.28821e-10 1.52832e-11 7.57256e-12)
(-3.63314e-06 4.36379e-07 2.12312e-07)
(-3.12869e-08 3.73894e-09 1.83096e-09)
(-1.50891e-10 1.80126e-11 8.83028e-12)
(-5.38873e-13 6.39272e-14 3.15268e-14)
)
;
    }
    procBoundary28to29
    {
        type            processor;
        value           nonuniform List<vector> 
20
(
(-2.34511e-17 -2.87553e-18 4.73463e-19)
(-3.46304e-15 -2.07935e-16 4.53251e-17)
(-2.87246e-13 7.92302e-15 5.34145e-15)
(-2.67039e-12 1.93025e-12 9.42896e-13)
(-2.77068e-16 -7.26542e-16 2.97268e-16)
(-4.806e-14 -3.83448e-14 3.27663e-14)
(-6.77427e-12 4.95846e-12 2.39479e-12)
(-6.4527e-10 4.68029e-10 2.28137e-10)
(-2.25758e-14 -1.71906e-13 4.83781e-14)
(-1.94629e-12 -1.48195e-11 4.17066e-12)
(-5.32867e-14 -1.49447e-13 5.92361e-14)
(-2.66123e-12 1.925e-12 9.4114e-13)
(-1.11603e-16 -8.49818e-16 2.39156e-16)
(-8.81951e-15 -6.71564e-14 1.88997e-14)
(-1.87553e-16 -7.94345e-16 2.66015e-16)
(-6.0367e-15 4.35377e-15 2.13566e-15)
(-2.99425e-19 -2.27999e-18 6.39169e-19)
(-2.1839e-17 -1.66296e-16 4.66333e-17)
(-4.35275e-19 -2.18098e-18 6.87068e-19)
(-9.97263e-18 7.16793e-18 3.51986e-18)
)
;
    }
}


// ************************************************************************* //
