/*--------------------------------*- C++ -*----------------------------------*\
| =========                 |                                                 |
| \\      /  F ield         | OpenFOAM: The Open Source CFD Toolbox           |
|  \\    /   O peration     | Version:  2.4.0                                 |
|   \\  /    A nd           | Web:      www.OpenFOAM.org                      |
|    \\/     M anipulation  |                                                 |
\*---------------------------------------------------------------------------*/
FoamFile
{
    version     2.0;
    format      ascii;
    class       surfaceScalarField;
    location    "0.17";
    object      phib;
}
// * * * * * * * * * * * * * * * * * * * * * * * * * * * * * * * * * * * * * //

dimensions      [0 3 -1 0 0 0 0];

internalField   nonuniform List<scalar> 
490
(
7.61254e+08
-8.85566e+08
1.25388e+08
1.36829e+09
-9.16212e+08
2.5398e+08
1.76622e+09
-6.38022e+08
2.37608e+08
2.25562e+09
-7.4002e+08
2.50575e+08
2.67909e+09
-5.82912e+08
1.59439e+08
3.15944e+09
-6.44611e+08
1.64269e+08
3.68071e+09
-5.78732e+08
5.74574e+07
4.19261e+09
-5.15779e+08
3.88185e+06
4.73337e+09
-5.07226e+08
-3.35322e+07
-4.69053e+08
-1.58995e+08
6.37498e+08
-1.58212e+09
1.23211e+08
9.57947e+08
-1.30412e+09
6.88268e+07
1.61795e+09
-1.43388e+09
1.35862e+08
1.94002e+09
-1.11333e+09
5.12371e+07
2.51064e+09
-1.26406e+09
1.10531e+08
2.89208e+09
-9.81719e+08
-4.43316e+07
3.43364e+09
-1.14206e+09
2.17645e+07
3.94705e+09
-9.08387e+08
-1.20801e+08
4.49684e+09
-9.65832e+08
-9.11773e+07
-8.45727e+08
-1.76974e+08
3.32033e+08
-1.9065e+09
-6.92883e+06
8.95807e+08
-1.94457e+09
7.66931e+07
1.1907e+09
-1.68935e+09
-3.94283e+07
1.84841e+09
-1.8448e+09
7.37579e+07
2.11999e+09
-1.42183e+09
-1.13812e+08
2.78949e+09
-1.66193e+09
1.0715e+07
3.11382e+09
-1.26818e+09
-1.98213e+08
3.79596e+09
-1.50064e+09
-8.98863e+07
4.23968e+09
-1.15374e+09
-2.55808e+08
-1.30311e+09
-1.82986e+08
3.18099e+08
9.2795e+07
5.86627e+08
-1.42194e+07
1.10295e+09
1.51579e+08
1.32496e+09
-1.77304e+08
2.02683e+09
5.66413e+07
2.30189e+09
-2.54013e+08
3.08105e+09
-8.1703e+07
3.38831e+09
-2.93809e+08
4.18818e+09
-1.99902e+08
-3.34569e+08
7.61892e+08
-9.42934e+08
2.97353e+08
1.25389e+09
-5.84136e+08
3.45519e+08
1.80262e+09
-6.67324e+08
3.56186e+08
2.23527e+09
-4.81763e+08
2.99694e+08
2.62294e+09
-4.97625e+08
2.69393e+08
3.09709e+09
-4.85378e+08
1.75493e+08
3.54798e+09
-5.01773e+08
1.08344e+08
4.01984e+09
-4.90232e+08
2.22471e+07
4.55751e+09
-4.91679e+08
-7.95145e+07
-4.32601e+08
-1.42176e+08
4.38893e+08
-1.33468e+09
7.61724e+07
1.23409e+09
-1.44854e+09
1.38035e+08
1.59927e+09
-1.04052e+09
1.43884e+08
2.1903e+09
-1.17324e+09
1.51687e+08
2.60838e+09
-8.7894e+08
7.37615e+07
3.03505e+09
-9.87808e+08
3.14266e+07
3.46291e+09
-8.37719e+08
-7.01441e+07
3.91783e+09
-9.50868e+08
-1.15084e+08
4.35656e+09
-8.12145e+08
-2.09447e+08
-8.55727e+08
-2.76437e+08
5.96452e+08
-1.95213e+09
1.40708e+07
8.95907e+08
-1.65434e+09
-1.69603e+07
1.60322e+09
-1.78174e+09
-5.52813e+06
1.92847e+09
-1.38579e+09
-3.89412e+07
2.53525e+09
-1.55957e+09
-3.99642e+07
2.88692e+09
-1.20435e+09
-1.24418e+08
3.38551e+09
-1.3713e+09
-1.63221e+08
3.73785e+09
-1.12846e+09
-2.64643e+08
4.25285e+09
-1.27818e+09
-3.04768e+08
-1.0351e+09
-3.98111e+08
3.80586e+08
-4.51739e+07
9.18789e+08
-5.9278e+07
1.28884e+09
-1.09392e+08
1.90738e+09
-1.01128e+08
2.26106e+09
-1.60752e+08
2.81808e+09
-1.88312e+08
3.13141e+09
-2.7772e+08
3.68002e+09
-3.17955e+08
4.00922e+09
-4.18352e+08
-4.721e+08
6.05122e+08
-6.3988e+08
3.32058e+08
1.27143e+09
-6.92451e+08
3.71663e+08
1.7343e+09
-4.50977e+08
3.44294e+08
2.13668e+09
-4.23471e+08
3.20778e+08
2.56102e+09
-3.92675e+08
2.37731e+08
2.97259e+09
-4.07396e+08
1.71323e+08
3.35994e+09
-3.69515e+08
9.05001e+07
3.75609e+09
-3.89547e+08
1.56465e+07
4.05727e+09
-3.23859e+08
-5.68317e+07
-3.8375e+08
-1.50649e+08
8.04169e+08
-1.50042e+09
1.32544e+08
1.09492e+09
-1.01693e+09
1.71767e+08
1.75383e+09
-1.15797e+09
1.91964e+08
2.15501e+09
-8.1804e+08
1.45084e+08
2.60343e+09
-8.65486e+08
9.81482e+07
2.97586e+09
-7.594e+08
1.09966e+07
3.37511e+09
-7.9011e+08
-4.87944e+07
3.69636e+09
-6.91485e+08
-1.34395e+08
4.06071e+09
-6.97994e+08
-1.9966e+08
-5.95481e+08
-2.94961e+08
3.44035e+08
-1.79424e+09
-3.61437e+07
1.15866e+09
-1.84523e+09
-3.28595e+06
1.42665e+09
-1.43189e+09
398192
2.12667e+09
-1.56368e+09
6.68224e+06
2.46519e+09
-1.21026e+09
-3.37088e+07
2.94308e+09
-1.28634e+09
-7.53742e+07
3.26401e+09
-1.11915e+09
-1.55104e+08
3.64257e+09
-1.13106e+09
-2.03639e+08
3.92023e+09
-9.74442e+08
-3.05978e+08
-9.50288e+08
-3.66535e+08
4.63209e+08
-3.18001e+07
7.00555e+08
-5.6897e+07
1.39125e+09
-7.94443e+07
1.74635e+09
-1.01377e+08
2.42106e+09
-9.29865e+07
2.7763e+09
-1.80987e+08
3.19947e+09
-1.62473e+08
3.51464e+09
-3.14711e+08
3.9027e+09
-3.11262e+08
-5.01438e+08
7.703e+08
-6.79476e+08
2.41234e+08
1.28393e+09
-3.92273e+08
2.50306e+08
1.73995e+09
-3.44131e+08
2.32403e+08
2.1822e+09
-2.88603e+08
1.67129e+08
2.57795e+09
-2.78819e+08
1.20802e+08
2.90531e+09
-2.24405e+08
6.83739e+07
3.2155e+09
-2.55928e+08
3.62359e+07
3.42903e+09
-1.84162e+08
-1.37247e+07
3.64209e+09
-2.39615e+08
-3.02737e+07
-1.27318e+08
-8.49873e+07
5.18281e+08
-1.10904e+09
4.38259e+07
1.31833e+09
-1.15403e+09
1.33469e+08
1.77869e+09
-7.21346e+08
1.08822e+08
2.25145e+09
-7.23479e+08
1.07203e+08
2.65145e+09
-6.2552e+08
4.48429e+07
3.01576e+09
-5.98901e+08
2.11845e+07
3.31674e+09
-5.74382e+08
-3.13185e+07
3.55942e+09
-4.85266e+08
-7.59702e+07
3.70317e+09
-4.34481e+08
-1.48544e+08
-3.69527e+08
-1.76952e+08
6.99987e+08
-1.86442e+09
1.92546e+07
9.76865e+08
-1.44166e+09
7.46475e+06
1.71973e+09
-1.50511e+09
4.12946e+07
2.12988e+09
-1.15106e+09
2.41176e+07
2.6125e+09
-1.16681e+09
2.49553e+07
3.02176e+09
-1.06792e+09
-1.56125e+07
3.3572e+09
-1.02084e+09
-4.40879e+07
3.71665e+09
-9.53053e+08
-9.53061e+07
3.95622e+09
-8.24855e+08
-1.55172e+08
-7.45502e+08
-2.58826e+08
3.16086e+08
-2.32075e+07
9.67835e+08
6.28138e+06
1.2981e+09
-2.3152e+07
1.9405e+09
-5.42648e+06
2.41768e+09
-2.24854e+07
2.85808e+09
-2.66384e+07
3.31514e+09
-8.85236e+07
3.65576e+09
-1.03473e+08
4.18068e+09
-2.20218e+08
-2.73636e+08
7.09713e+08
-4.6848e+08
1.33453e+09
-3.74507e+08
1.86391e+09
-2.96978e+08
2.30795e+09
-2.76909e+08
2.70248e+09
-2.7373e+08
3.024e+09
-2.53148e+08
3.27383e+09
-2.13593e+08
3.41644e+09
-1.56332e+08
3.43565e+09
-4.94922e+07
-8.64176e+07
8.05792e+08
-1.23045e+09
1.3403e+09
-7.75545e+08
1.86987e+09
-7.17728e+08
2.34766e+09
-6.47498e+08
2.73996e+09
-6.21182e+08
3.11808e+09
-6.10082e+08
3.3858e+09
-5.12636e+08
3.58835e+09
-4.3485e+08
3.65018e+09
-2.59872e+08
-1.78632e+08
4.87615e+08
-1.69881e+09
1.23658e+09
-1.51704e+09
1.76036e+09
-1.20021e+09
2.29037e+09
-1.15339e+09
2.76739e+09
-1.07325e+09
3.18902e+09
-1.04733e+09
3.64065e+09
-1.00835e+09
4.05731e+09
-9.46807e+08
4.63139e+09
-9.89131e+08
-8.25297e+08
4.96605e+08
9.30358e+08
1.56176e+09
2.05076e+09
2.55626e+09
3.02937e+09
3.45976e+09
3.97146e+09
4.24816e+09
)
;

boundaryField
{
    inlet
    {
        type            fixedValue;
        value           nonuniform List<scalar> 
20
(
-1.5e-05
-1.5e-05
-1.5e-05
-1.5e-05
-1.5e-05
-1.5e-05
-1.5e-05
-1.5e-05
-1.5e-05
-1.5e-05
-1.5e-05
-1.5e-05
-1.5e-05
-1.5e-05
-1.5e-05
-1.5e-05
-1.5e-05
-1.5e-05
-1.5e-05
-1.5e-05
)
;
    }
    outlet
    {
        type            calculated;
        value           nonuniform 0();
    }
    bottom
    {
        type            fixedValue;
        value           uniform 0;
    }
    top
    {
        type            symmetryPlane;
        value           nonuniform List<scalar> 
40
(
-2.14553e-23
-1.80022e-23
-1.3367e-23
-9.36347e-24
-1.25802e-23
-1.06593e-23
-9.10863e-24
-7.59652e-24
-9.84855e-24
-8.50331e-24
-7.44579e-24
-6.61753e-24
-8.0762e-24
-6.98399e-24
-6.35219e-24
-5.84542e-24
-6.92127e-24
-6.19764e-24
-5.74419e-24
-5.37319e-24
-6.19602e-24
-5.60755e-24
-5.38113e-24
-5.18224e-24
-5.75969e-24
-5.36095e-24
-5.26092e-24
-5.21697e-24
-5.23181e-24
-5.06546e-24
-5.70232e-24
-6.5565e-24
-5.07632e-24
-5.31426e-24
-8.00198e-24
-7.90627e-24
-4.74746e-24
-4.87136e-24
-1.00013e-23
-8.78119e-24
)
;
    }
    side1
    {
        type            symmetryPlane;
        value           uniform 0;
    }
    side2
    {
        type            symmetryPlane;
        value           nonuniform 0();
    }
    procBoundary0to1
    {
        type            processor;
        value           nonuniform List<scalar> 
20
(
5.36141e+09
5.05048e+09
4.88005e+09
4.57022e+09
4.97329e+09
4.87915e+09
4.64735e+09
4.62252e+09
4.44949e+09
4.29096e+09
4.24346e+09
4.24315e+09
3.70375e+09
3.82737e+09
4.22448e+09
4.47856e+09
3.43708e+09
3.56545e+09
5.01923e+09
4.35112e+09
)
;
    }
    procBoundary0to8
    {
        type            processor;
        value           nonuniform List<scalar> 
50
(
-2.31739e+09
-2.19888e+09
-2.35725e+09
-1.8895e+09
-2.18035e+09
-1.68297e+09
-1.96564e+09
-1.51409e+09
-1.7537e+09
-1.35059e+09
-2.19474e+09
-2.14749e+09
-1.89082e+09
-2.0805e+09
-1.69585e+09
-1.82707e+09
-1.48862e+09
-1.65292e+09
-1.38893e+09
-1.51086e+09
-2.27082e+09
-2.08496e+09
-2.15253e+09
-1.91853e+09
-1.95273e+09
-1.64891e+09
-1.65757e+09
-1.44947e+09
-1.46959e+09
-1.2614e+09
-2.1891e+09
-2.15659e+09
-1.89167e+09
-1.88941e+09
-1.71449e+09
-1.66267e+09
-1.55184e+09
-1.50492e+09
-1.44081e+09
-1.27118e+09
-2.21862e+09
-1.94451e+09
-1.85477e+09
-1.64781e+09
-1.60125e+09
-1.54707e+09
-1.52726e+09
-1.56198e+09
-1.48605e+09
-1.20188e+09
)
;
    }
}


// ************************************************************************* //
