/*--------------------------------*- C++ -*----------------------------------*\
| =========                 |                                                 |
| \\      /  F ield         | OpenFOAM: The Open Source CFD Toolbox           |
|  \\    /   O peration     | Version:  2.4.0                                 |
|   \\  /    A nd           | Web:      www.OpenFOAM.org                      |
|    \\/     M anipulation  |                                                 |
\*---------------------------------------------------------------------------*/
FoamFile
{
    version     2.0;
    format      ascii;
    class       volVectorField;
    location    "0.17";
    object      U;
}
// * * * * * * * * * * * * * * * * * * * * * * * * * * * * * * * * * * * * * //

dimensions      [0 1 -1 0 0 0 0];

internalField   nonuniform List<vector> 
200
(
(3.04549e+14 1.583e+14 2.32872e+14)
(1.79222e+14 -1.37852e+15 9.33762e+13)
(9.18144e+14 4.88778e+14 3.50675e+14)
(4.84656e+14 -1.35464e+15 1.09952e+14)
(1.33536e+15 5.72171e+14 2.59744e+14)
(7.77463e+14 -1.3255e+15 1.84393e+13)
(1.7732e+15 5.76658e+14 2.22832e+14)
(1.13808e+15 -1.14378e+15 -2.07443e+14)
(2.25094e+15 5.6519e+14 2.36023e+14)
(1.50792e+15 -1.05081e+15 -4.79712e+14)
(1.01981e+13 -1.65704e+15 -3.66802e+13)
(4.63781e+14 -2.17864e+14 2.39196e+14)
(3.26968e+14 -1.61334e+15 -8.90164e+12)
(9.35065e+14 5.13076e+13 1.57532e+14)
(6.32084e+14 -1.60138e+15 -8.71778e+12)
(1.37054e+15 2.02684e+14 3.18272e+13)
(9.32384e+14 -1.58094e+15 -5.58254e+13)
(1.83615e+15 2.67806e+14 -2.94305e+13)
(1.29133e+15 -1.43653e+15 -1.6227e+14)
(2.34264e+15 2.71817e+14 -4.26744e+13)
(9.3823e+13 -9.21224e+14 2.37731e+14)
(1.89632e+14 -1.84733e+15 -4.83935e+13)
(4.91564e+14 -6.95696e+14 1.63692e+14)
(4.97688e+14 -1.81172e+15 8.97829e+12)
(9.37491e+14 -4.35075e+14 -2.15436e+13)
(7.98923e+14 -1.76307e+15 -3.76072e+13)
(1.39599e+15 -2.58e+14 -1.62228e+14)
(1.12602e+15 -1.72756e+15 -8.70655e+13)
(1.89673e+15 -1.12448e+14 -2.41925e+14)
(1.49712e+15 -1.6406e+15 -1.32725e+14)
(1.17158e+14 -2.08588e+15 -3.68771e+12)
(1.07333e+14 -1.26871e+15 2.60698e+14)
(3.97194e+14 -1.98253e+15 2.48266e+14)
(4.46313e+14 -1.15818e+15 -1.29522e+14)
(6.54165e+14 -1.82166e+15 1.62874e+14)
(9.21657e+14 -9.21617e+14 -3.33227e+14)
(9.7471e+14 -1.75562e+15 5.64653e+13)
(1.43548e+15 -6.97224e+14 -4.26953e+14)
(1.33118e+15 -1.72719e+15 -3.18978e+13)
(1.97485e+15 -4.60016e+14 -4.6567e+14)
(-8.12235e+13 -1.29876e+15 1.06857e+14)
(7.11572e+14 4.87783e+14 5.3305e+14)
(2.55123e+14 -1.18045e+15 2.38377e+14)
(1.18064e+15 5.42033e+14 5.18071e+14)
(5.96456e+14 -1.05151e+15 1.3549e+14)
(1.5113e+15 3.86099e+14 4.04913e+14)
(9.50946e+14 -9.15678e+14 -7.58866e+13)
(1.89848e+15 2.82558e+14 2.3092e+14)
(1.3033e+15 -8.21199e+14 -3.17036e+14)
(2.35327e+15 2.63574e+14 8.30226e+13)
(2.51078e+14 -3.24622e+14 3.2212e+14)
(1.22398e+14 -1.50517e+15 -6.62592e+13)
(8.30615e+14 2.21015e+13 3.45914e+14)
(4.58724e+14 -1.39038e+15 -2.29363e+13)
(1.27503e+15 1.70519e+14 2.84914e+14)
(8.1987e+14 -1.2373e+15 -1.44605e+14)
(1.60294e+15 4.04294e+13 1.08809e+14)
(1.16608e+15 -1.13185e+15 -2.84476e+14)
(1.97385e+15 -2.42487e+13 -7.39909e+13)
(1.51063e+15 -1.01119e+15 -4.22224e+14)
(3.35389e+13 -1.7508e+15 -2.20187e+14)
(4.06351e+14 -8.0533e+14 2.52355e+14)
(3.41833e+14 -1.66319e+15 -2.43723e+14)
(9.03173e+14 -4.90989e+14 1.77973e+14)
(6.72602e+14 -1.56273e+15 -2.56201e+14)
(1.31521e+15 -3.52805e+14 5.40315e+13)
(1.03346e+15 -1.37076e+15 -3.43005e+14)
(1.64418e+15 -4.00948e+14 -1.62575e+14)
(1.37419e+15 -1.2734e+15 -4.26958e+14)
(2.01212e+15 -3.67541e+14 -3.63645e+14)
(1.25378e+14 -1.4006e+15 2.46072e+14)
(1.88733e+14 -1.8296e+15 -2.75824e+14)
(5.24072e+14 -1.19009e+15 1.49355e+14)
(5.32024e+14 -1.72601e+15 -3.00926e+14)
(9.64872e+14 -9.67799e+14 -1.49722e+13)
(8.78068e+14 -1.55525e+15 -3.09201e+14)
(1.32998e+15 -8.4496e+14 -2.91001e+14)
(1.22666e+15 -1.38994e+15 -3.36353e+14)
(1.67593e+15 -7.93657e+14 -5.23537e+14)
(1.57886e+15 -1.28588e+15 -4.27595e+14)
(4.82818e+14 3.9821e+14 5.86064e+14)
(-7.64579e+12 -1.03111e+15 3.2356e+14)
(9.92156e+14 4.69415e+14 6.53516e+14)
(4.02219e+14 -8.1557e+14 2.41335e+14)
(1.29046e+15 2.66034e+14 5.54984e+14)
(7.67078e+14 -6.15462e+14 4.62328e+13)
(1.59712e+15 1.25551e+14 3.63592e+14)
(1.09005e+15 -5.16846e+14 -1.63732e+14)
(1.91265e+15 8.47532e+13 1.39858e+14)
(1.32882e+15 -5.15066e+14 -4.17779e+14)
(-2.00103e+13 -1.41788e+15 -9.22685e+13)
(6.364e+14 -9.88579e+13 4.21427e+14)
(2.49097e+14 -1.21387e+15 3.41336e+13)
(1.11387e+15 7.67926e+13 4.04838e+14)
(6.46984e+14 -9.35382e+14 -7.94292e+13)
(1.39835e+15 -1.002e+14 2.3149e+14)
(1.00527e+15 -7.60618e+14 -2.65883e+14)
(1.67233e+15 -1.64869e+14 1.16782e+13)
(1.30144e+15 -6.54676e+14 -4.31466e+14)
(1.93293e+15 -1.58489e+14 -2.46586e+14)
(1.71474e+14 -1.03891e+15 2.25325e+14)
(1.57667e+14 -1.52341e+15 -2.81967e+14)
(7.0257e+14 -6.60662e+14 2.24341e+14)
(4.86745e+14 -1.36019e+15 -2.51259e+14)
(1.1538e+15 -4.67866e+14 1.56295e+14)
(8.67579e+14 -1.10079e+15 -3.37004e+14)
(1.44524e+15 -5.25422e+14 -5.80769e+13)
(1.1976e+15 -9.38661e+14 -4.70341e+14)
(1.69247e+15 -4.78842e+14 -3.18482e+14)
(1.46616e+15 -7.97658e+14 -6.04735e+14)
(1.43092e+13 -1.76376e+15 -3.21168e+14)
(3.16738e+14 -1.44961e+15 1.37301e+14)
(2.92513e+14 -1.60993e+15 -3.97314e+14)
(7.70776e+14 -1.19898e+15 5.15165e+13)
(6.78328e+14 -1.4643e+15 -3.63984e+14)
(1.20164e+15 -9.88499e+14 -1.5489e+14)
(1.05667e+15 -1.24436e+15 -3.66612e+14)
(1.47265e+15 -8.87188e+14 -4.44672e+14)
(1.36927e+15 -1.0813e+15 -4.94329e+14)
(1.74309e+15 -7.38885e+14 -7.50991e+14)
(-1.83423e+14 -8.66091e+14 2.60027e+14)
(7.82183e+14 4.09888e+14 6.43166e+14)
(2.31686e+14 -6.14999e+14 2.45432e+14)
(1.1264e+15 2.09594e+14 5.85483e+14)
(6.37365e+14 -3.68837e+14 6.66494e+13)
(1.39625e+15 6.17506e+13 4.03678e+14)
(9.42645e+14 -2.35892e+14 -1.08105e+14)
(1.61461e+15 -1.13458e+13 2.35944e+14)
(1.12509e+15 -2.28871e+14 -2.45715e+14)
(1.78507e+15 2.5637e+13 8.98414e+13)
(4.14242e+14 -2.66675e+14 3.8133e+14)
(3.20033e+13 -1.0526e+15 1.48539e+13)
(9.64299e+14 3.07412e+13 4.49126e+14)
(4.86111e+14 -6.82191e+14 -1.19173e+13)
(1.27002e+15 -1.19143e+14 3.34027e+14)
(8.82336e+14 -4.40639e+14 -1.75484e+14)
(1.49699e+15 -2.11827e+14 1.5985e+14)
(1.17133e+15 -3.14832e+14 -3.1761e+14)
(1.66147e+15 -1.92737e+14 -3.89104e+13)
(1.30479e+15 -2.69443e+14 -4.45632e+14)
(4.06826e+13 -1.43063e+15 -2.6654e+14)
(4.88141e+14 -7.85304e+14 2.75614e+14)
(3.20231e+14 -1.15573e+15 -2.01403e+14)
(1.00828e+15 -4.93435e+14 2.64293e+14)
(7.28071e+14 -8.68076e+14 -2.16752e+14)
(1.33547e+15 -5.39251e+14 1.50195e+14)
(1.09446e+15 -7.2321e+14 -3.08844e+14)
(1.58519e+15 -4.96045e+14 -2.43786e+13)
(1.3893e+15 -5.58621e+14 -4.22544e+14)
(1.79592e+15 -3.98016e+14 -2.90494e+14)
(1.60493e+14 -1.6115e+15 2.14413e+14)
(1.36451e+14 -1.52011e+15 -2.76169e+14)
(5.88265e+14 -1.28198e+15 1.80982e+14)
(4.81216e+14 -1.33532e+15 -2.97683e+14)
(1.04866e+15 -1.03468e+15 1.24463e+14)
(8.9846e+14 -1.18308e+15 -2.87533e+14)
(1.38352e+15 -9.24177e+14 -4.52964e+13)
(1.26557e+15 -1.0543e+15 -3.44643e+14)
(1.69267e+15 -7.72936e+14 -2.74557e+14)
(1.63089e+15 -7.95357e+14 -4.67174e+14)
(5.04389e+14 2.20446e+14 5.09721e+14)
(9.29883e+13 -4.27078e+14 9.82534e+13)
(9.07324e+14 7.80625e+13 4.23477e+14)
(5.92941e+14 -2.38246e+14 -9.14918e+13)
(1.234e+15 -2.31286e+13 2.84836e+14)
(9.3212e+14 -1.68617e+14 -1.9084e+14)
(1.47681e+15 -3.53737e+13 2.23724e+14)
(1.13133e+15 -8.44172e+13 -2.50681e+14)
(1.60196e+15 1.07628e+12 1.90439e+14)
(1.1289e+15 -7.95975e+13 -2.83376e+14)
(-3.79912e+13 -9.43348e+14 -1.2904e+14)
(6.78899e+14 -1.77594e+14 4.02335e+14)
(3.83057e+14 -5.51236e+14 -1.0228e+14)
(1.07672e+15 -2.28553e+14 3.19387e+14)
(8.14642e+14 -4.33651e+14 -1.83526e+14)
(1.36919e+15 -2.62036e+14 2.42725e+14)
(1.11975e+15 -3.33578e+14 -2.24635e+14)
(1.57879e+15 -1.89291e+14 1.29595e+14)
(1.2842e+15 -1.01171e+14 -3.23713e+14)
(1.63424e+15 -6.57123e+13 1.17372e+13)
(2.57406e+14 -1.06206e+15 3.27122e+14)
(1.75071e+14 -1.0745e+15 -2.2061e+14)
(7.75159e+14 -6.20534e+14 3.24999e+14)
(6.34631e+14 -8.11639e+14 -1.74901e+14)
(1.18915e+15 -5.80474e+14 2.84187e+14)
(1.02874e+15 -7.41671e+14 -1.82732e+14)
(1.52893e+15 -5.33442e+14 1.90085e+14)
(1.38526e+15 -6.10435e+14 -2.27366e+14)
(1.88492e+15 -4.83405e+14 3.61384e+13)
(1.79896e+15 -4.55616e+14 -3.22269e+14)
(1.70085e+13 -1.60981e+15 -2.34856e+14)
(3.83393e+14 -1.35483e+15 3.05182e+14)
(3.66298e+14 -1.2972e+15 -2.17766e+14)
(8.66083e+14 -1.04707e+15 2.8443e+14)
(7.82926e+14 -1.14368e+15 -1.76876e+14)
(1.25988e+15 -9.46149e+14 2.12432e+14)
(1.16284e+15 -1.09165e+15 -1.81027e+14)
(1.62526e+15 -8.94426e+14 9.79327e+13)
(1.52917e+15 -1.02333e+15 -2.50108e+14)
(1.85529e+15 -6.96817e+14 -1.65405e+14)
)
;

boundaryField
{
    inlet
    {
        type            calculated;
        value           nonuniform List<vector> 
20
(
(5.13114 0 0)
(5.99449 0 0)
(5.99998 0 0)
(6 0 0)
(5.99784 0 0)
(5.99998 0 0)
(6 0 0)
(6 0 0)
(6 0 0)
(6 0 0)
(6 0 0)
(6 0 0)
(6 0 0)
(6 0 0)
(6 0 0)
(6 0 0)
(6 0 0)
(6 0 0)
(6 0 0)
(6 0 0)
)
;
    }
    outlet
    {
        type            calculated;
        value           nonuniform 0();
    }
    bottom
    {
        type            calculated;
        value           uniform (0 0 0);
    }
    top
    {
        type            symmetryPlane;
    }
    side1
    {
        type            symmetryPlane;
    }
    side2
    {
        type            symmetryPlane;
    }
    procBoundary0to1
    {
        type            processor;
        value           nonuniform List<vector> 
20
(
(2.80812e+15 6.27439e+14 3.25803e+14)
(1.67117e+15 -1.25953e+15 -3.37532e+14)
(2.42555e+15 -3.06274e+12 -2.97976e+14)
(1.72041e+15 -1.66609e+15 -9.23328e+13)
(1.62634e+15 -7.85834e+14 -5.87539e+14)
(2.39622e+15 -2.6741e+13 -2.66407e+14)
(1.72907e+15 -1.14923e+15 -5.30276e+14)
(2.08689e+15 -6.56767e+14 -7.3007e+14)
(2.23072e+15 1.16058e+14 -7.42811e+13)
(1.51924e+15 -5.96082e+14 -6.48988e+14)
(1.91553e+15 -3.97931e+14 -7.05058e+14)
(1.69159e+15 -8.09941e+14 -7.05152e+14)
(1.16433e+15 -2.83557e+14 -4.34804e+14)
(1.74913e+15 -9.3372e+13 -2.63477e+14)
(1.59734e+15 -4.57041e+14 -6.80844e+14)
(1.9299e+15 -5.96826e+14 -6.42863e+14)
(1.61918e+15 1.34057e+14 1.73218e+14)
(1.20696e+15 -2.233e+12 -3.40463e+14)
(2.24418e+15 -3.00461e+14 -2.34141e+14)
(1.59381e+15 -6.31076e+14 -1.67635e+14)
)
;
    }
    procBoundary0to8
    {
        type            processor;
        value           nonuniform List<vector> 
50
(
(-2.23903e+14 -1.63703e+15 3.84342e+14)
(3.60386e+14 -2.2347e+15 4.37144e+14)
(-4.63264e+13 -1.79576e+15 -3.59418e+14)
(5.08965e+14 -1.8493e+15 5.43521e+14)
(3.70622e+14 -1.68585e+15 -7.61588e+14)
(8.14699e+14 -1.74619e+15 4.57676e+14)
(9.04919e+14 -1.40656e+15 -8.62488e+14)
(1.17402e+15 -1.69676e+15 3.0637e+14)
(1.48076e+15 -1.09487e+15 -8.26667e+14)
(1.54369e+15 -1.67489e+15 1.42922e+14)
(8.53534e+13 -2.09264e+15 -1.56114e+14)
(2.09111e+14 -1.60493e+15 2.26415e+14)
(4.8785e+14 -1.82359e+15 -3.29285e+13)
(5.23443e+14 -1.5993e+15 -1.92937e+14)
(8.31105e+14 -1.70277e+15 4.37942e+12)
(9.79337e+14 -1.34401e+15 -5.26199e+14)
(1.10109e+15 -1.49753e+15 -3.44324e+13)
(1.30106e+15 -1.25734e+15 -8.50364e+14)
(1.41561e+15 -1.40244e+15 -1.13344e+14)
(1.70006e+15 -1.13314e+15 -9.89528e+14)
(1.37113e+14 -1.89861e+15 9.66771e+13)
(1.01453e+14 -1.86031e+15 -3.77374e+14)
(5.06464e+14 -1.88145e+15 -2.11727e+13)
(5.72011e+14 -1.81603e+15 -2.06347e+14)
(8.98391e+14 -1.63096e+15 -3.97188e+14)
(9.19931e+14 -1.57543e+15 -8.47204e+13)
(1.17445e+15 -1.39529e+15 -7.83908e+14)
(1.17991e+15 -1.40959e+15 -1.84027e+14)
(1.41361e+15 -1.24593e+15 -9.5227e+14)
(1.48319e+15 -1.26373e+15 -3.98684e+14)
(-4.23449e+13 -1.84056e+15 -2.21007e+14)
(3.09711e+14 -1.93033e+15 1.59596e+14)
(1.88875e+14 -1.71969e+15 -2.84773e+14)
(6.89785e+14 -1.72222e+15 7.38279e+13)
(6.30631e+14 -1.68112e+15 -1.86204e+14)
(1.08837e+15 -1.42092e+15 -1.45389e+14)
(9.72085e+14 -1.52354e+15 -1.86686e+14)
(1.30497e+15 -1.27406e+15 -3.6387e+14)
(1.23677e+15 -1.45795e+15 -3.04821e+14)
(1.49796e+15 -1.12431e+15 -5.61037e+14)
(1.60485e+14 -1.95214e+15 2.6059e+14)
(1.05362e+14 -1.74486e+15 -1.8365e+14)
(5.2027e+14 -1.66715e+15 2.5164e+14)
(4.43169e+14 -1.57437e+15 -1.73302e+14)
(8.96652e+14 -1.39577e+15 1.93289e+14)
(7.81064e+14 -1.49872e+15 -1.49345e+14)
(1.1657e+15 -1.2972e+15 7.39941e+13)
(1.05871e+15 -1.54599e+15 -1.65756e+14)
(1.46094e+15 -1.2753e+15 -7.60609e+12)
(1.35931e+15 -1.15856e+15 -1.74996e+14)
)
;
    }
}


// ************************************************************************* //
