/*--------------------------------*- C++ -*----------------------------------*\
| =========                 |                                                 |
| \\      /  F ield         | OpenFOAM: The Open Source CFD Toolbox           |
|  \\    /   O peration     | Version:  2.4.0                                 |
|   \\  /    A nd           | Web:      www.OpenFOAM.org                      |
|    \\/     M anipulation  |                                                 |
\*---------------------------------------------------------------------------*/
FoamFile
{
    version     2.0;
    format      ascii;
    class       labelField;
    location    "0.01/lagrangian/defaultCloud";
    object      origId;
}
// * * * * * * * * * * * * * * * * * * * * * * * * * * * * * * * * * * * * * //


25810
(
0
1
2
3
6
8
11
0
1
2
11
14
15
31
0
7
11
0
1
2
3
4
5
6
7
11
0
1
2
3
4
5
25
0
1
3
6
7
8
0
1
2
3
4
5
6
7
8
9
10
11
12
13
14
15
16
17
18
27
28
15
31
29
0
1
2
3
4
5
6
7
8
9
10
16
27
0
1
2
3
4
5
6
7
8
9
10
11
12
13
14
16
17
0
1
2
3
4
5
6
7
8
9
10
11
12
13
14
22
15
0
1
2
3
4
5
6
7
8
9
10
11
12
13
14
15
0
1
2
3
4
5
6
7
8
9
10
11
12
13
14
118
15
0
1
2
3
4
5
6
7
9
10
12
13
14
37
52
0
1
2
3
4
5
6
7
64
8
9
10
12
13
14
43
0
1
2
3
4
5
6
7
9
13
0
1
2
3
4
5
6
7
8
9
10
11
12
13
14
15
88
8
10
11
66
4
16
13
14
9
12
13
7
4
13
15
14
5
7
698
3
4
12
10
250
364
28
29
11
45
856
14
4
16
10
13
29
10
412
32
101
28
85
350
1166
29
19
185
854
1119
182
472
904
915
939
203
1183
860
399
431
678
298
929
1394
61
883
192
208
1141
436
919
1150
442
1158
936
431
1352
697
219
403
700
1145
157
916
204
918
874
1416
239
114
892
57
201
204
379
448
133
953
130
270
1067
149
875
184
456
131
47
690
637
405
716
1110
1409
768
950
927
1053
716
404
208
481
27
17
14
19
23
38
12
28
16
11
14
48
1222
1279
1029
1053
31
33
1008
34
42
36
37
1249
58
34
40
24
66
25
38
50
24
22
36
61
60
54
69
1307
118
42
942
430
196
191
194
387
749
808
331
1419
932
192
1396
20
874
1276
573
618
31
761
20
902
6
20
9
739
1038
1271
37
35
1228
1227
28
24
39
806
26
33
35
33
20
17
552
18
8
49
634
27
1257
25
27
780
1152
260
211
639
923
73
460
714
243
669
1146
1487
1371
1165
1016
193
136
137
139
184
374
15
1420
829
443
700
1421
1148
433
1171
51
945
216
661
674
1057
1257
1310
1146
96
132
848
694
926
425
691
1140
1059
900
287
1384
498
160
429
1157
553
1357
1336
197
888
73
171
1438
652
1264
756
663
50
214
930
455
140
1346
1192
104
121
107
676
84
1432
156
430
178
106
376
28
1003
40
68
420
410
512
261
419
626
254
16
428
272
418
44
1474
745
1056
747
1478
1296
786
97
1128
79
925
686
1249
689
191
533
1490
53
1111
724
1194
1148
217
1340
1156
739
147
1003
543
1266
1293
1158
515
1050
1016
1034
91
1306
885
190
1335
727
1283
1502
299
26
372
769
515
23
575
919
696
54
31
665
215
1335
999
419
398
1533
678
181
1429
192
713
1012
184
1259
945
463
477
27
1185
1176
667
139
670
381
736
1206
503
695
401
955
1126
255
427
230
170
953
311
1502
309
444
733
629
1063
1420
12
121
771
1421
632
836
622
1120
197
933
102
1173
44
1419
1283
718
418
832
1073
999
1129
1416
1211
171
69
930
975
867
96
220
139
168
245
219
279
74
204
198
194
125
205
175
247
213
199
182
273
202
164
80
1159
243
172
53
197
240
178
682
237
220
238
224
225
202
726
237
56
55
130
167
129
235
236
71
237
78
113
23
196
213
182
169
226
188
170
85
57
72
73
37
39
43
119
908
140
34
1395
453
231
1351
1599
232
696
58
194
176
406
216
454
113
144
708
131
900
634
126
850
558
675
1030
142
189
489
44
1237
1093
959
885
175
1233
1306
635
183
139
1567
1505
980
434
1408
900
209
49
68
1385
85
97
178
443
672
498
22
55
132
1009
187
68
148
1469
1338
737
1650
465
1390
202
978
181
1191
945
415
1128
433
240
220
600
921
1186
833
1397
23
64
398
1532
678
687
732
1465
53
243
423
1337
1165
39
1043
95
950
238
134
1173
1501
1182
155
997
689
1406
486
542
1333
1248
1618
1185
409
1203
129
711
314
1181
662
884
106
95
450
443
1371
1018
1439
310
8
1564
195
739
905
941
1027
146
1045
33
517
267
1279
148
1438
229
165
1221
1362
1240
669
707
92
40
689
43
72
893
693
103
606
72
39
670
895
1368
659
816
184
165
59
426
175
798
247
593
1467
1259
977
977
552
75
583
168
1371
748
883
423
35
79
49
958
669
1092
872
525
891
1500
1187
1506
1197
503
200
954
1036
35
1546
74
59
67
75
95
572
56
50
1004
31
9
1
810
196
712
432
1378
649
1517
195
296
1050
768
259
1625
171
119
1236
888
1568
896
363
457
1454
1676
826
76
200
1003
1278
898
240
445
244
416
210
1471
1672
689
225
518
1155
485
305
239
292
158
1132
1439
910
630
1243
485
1554
253
869
905
951
999
632
625
500
449
1302
1094
380
444
1487
166
648
716
500
886
683
1156
919
1585
232
1403
215
1365
955
932
1187
1508
430
1239
785
242
722
421
142
1517
883
681
619
368
36
1046
446
1192
36
214
291
770
1154
1148
529
30
319
478
445
246
1278
699
1678
1187
1476
1383
508
702
827
1106
187
60
846
184
1533
514
1177
702
1513
1065
779
1330
935
1655
1515
550
531
414
1113
233
440
114
85
301
1180
1423
1281
321
929
279
397
1466
1308
109
949
805
93
1515
1570
1320
1123
1017
1131
279
185
181
685
716
288
190
914
226
256
574
703
467
1309
502
501
504
1417
949
1286
1181
559
1137
424
173
898
185
175
1282
678
501
1607
544
447
241
706
369
898
1212
147
581
1464
1665
379
1176
1015
1230
539
1234
44
620
597
1045
232
710
226
1561
1197
680
434
743
226
944
1287
1406
1418
967
647
930
184
1069
416
905
1244
1456
384
675
480
645
476
448
214
192
1053
356
930
989
702
833
670
204
200
1039
940
777
1180
215
1306
391
760
610
1433
1576
1496
1545
1291
449
441
1231
436
187
429
1093
920
1255
1429
872
1100
326
403
1494
470
972
560
576
607
365
460
1283
1523
1182
1017
906
1417
1056
640
124
433
1425
1425
444
346
898
1071
975
511
1394
1435
1279
1021
735
722
708
959
1588
1072
959
743
936
1498
775
668
986
414
1237
1275
1085
424
207
1445
718
881
957
473
661
451
671
1563
686
936
476
865
1220
432
51
862
39
634
97
1263
417
223
796
1454
937
1168
308
764
372
1500
452
715
1147
1308
203
431
266
509
1090
166
370
47
962
1501
461
420
1150
1173
752
379
202
287
1200
446
1383
152
1343
1365
509
480
372
503
219
1426
714
760
168
876
1436
1510
1271
1421
1365
624
1153
424
1120
934
679
1519
502
1511
1171
1378
471
1431
670
447
898
1487
738
1530
471
148
938
805
389
1294
499
1249
41
715
220
408
219
1192
1053
68
1342
719
162
1135
680
1476
439
460
202
219
466
180
1368
236
438
134
229
801
621
676
924
1124
158
253
1058
928
794
863
803
855
1429
238
462
108
78
409
1478
481
920
195
182
924
560
935
392
1199
417
968
1227
1014
201
645
447
732
625
1254
459
666
1464
437
680
1242
661
1135
217
1097
167
657
60
1585
437
49
21
412
397
433
819
1464
260
590
1092
205
242
482
182
653
419
103
1317
442
1232
803
1229
1244
234
241
413
408
142
992
697
1507
1284
788
1463
1544
1446
1495
635
233
1214
248
1264
623
1392
1418
351
69
1312
141
1393
1106
1127
1637
1015
1326
219
1083
54
786
1201
1279
1290
333
753
1260
434
258
1055
1225
1198
980
446
1276
1582
694
962
500
1478
165
168
1322
716
664
22
1278
921
654
658
1430
1351
462
383
700
937
1114
851
323
1374
450
837
454
442
685
1359
280
1215
677
982
1036
1567
644
748
1374
171
189
397
1467
213
484
877
714
1177
457
1411
1401
74
1268
1432
1160
164
478
785
693
1171
1388
185
547
428
620
473
352
1002
251
1166
195
868
315
852
1327
1182
60
1320
1587
706
446
221
465
487
1425
967
1155
282
265
1621
234
512
203
983
425
289
42
764
1119
317
600
1174
316
320
617
1514
1253
130
802
1059
505
1384
1210
360
1411
905
500
224
737
649
952
673
402
1180
546
712
565
66
792
1522
262
532
504
315
35
63
470
514
267
470
264
506
299
118
200
173
80
778
270
102
477
190
438
251
216
594
280
290
428
18
550
1396
1143
810
1440
650
676
1142
946
695
1047
687
1187
989
965
1277
472
697
1315
1394
360
1124
277
1398
970
190
458
638
1116
430
1099
553
734
886
1197
1388
240
1215
977
267
1629
1351
421
447
1163
681
694
1370
1309
1567
900
945
771
1263
1117
883
694
673
298
343
1121
153
1382
857
1311
414
1049
1473
456
203
1136
667
307
406
471
1477
960
330
1149
143
1268
688
801
1276
1232
678
1084
344
645
283
868
475
182
457
470
1436
216
496
424
501
1253
414
701
40
1130
465
448
719
105
1087
1056
1605
236
1319
874
1202
1303
711
852
1237
1050
1483
882
14
770
76
920
1320
181
481
178
170
1225
222
452
238
1176
411
1508
1484
1387
652
974
269
386
1205
644
1182
1133
1370
136
937
897
488
102
1436
503
62
454
1514
1413
816
258
1171
1243
1483
92
415
1269
1061
663
1112
225
471
864
936
613
1085
373
1250
982
641
1304
620
474
894
843
985
213
1044
257
621
1136
14
1392
1082
617
936
661
1147
216
1299
444
1487
671
192
1485
455
478
1266
1239
336
697
1548
409
793
290
1479
1178
187
1114
257
260
152
520
557
710
1611
155
939
1206
1118
663
698
1026
1442
325
401
209
992
1135
1189
713
457
951
755
452
476
1096
156
266
1240
120
934
1306
1173
419
201
1299
129
361
785
355
1123
1103
456
415
1010
477
218
1386
607
1148
241
1050
617
1136
869
471
1188
1179
1283
1145
198
795
654
272
767
1170
1082
787
443
922
286
42
700
159
539
1055
1212
1365
498
221
206
97
1077
352
422
1227
735
1116
1038
257
59
505
158
499
625
703
879
228
726
197
1120
1052
630
485
469
1379
480
217
497
284
158
1375
748
540
1027
462
1157
393
1042
718
864
736
932
672
468
274
534
187
955
1415
977
1402
949
1181
219
922
1035
765
889
1226
842
465
436
235
473
413
501
418
468
186
180
957
726
1018
578
1126
713
1203
740
177
191
1299
1222
721
733
408
886
510
438
475
320
863
38
1150
667
849
611
141
587
1195
656
225
227
680
475
1195
679
729
1288
804
710
914
921
736
445
985
648
476
406
1451
841
773
1048
979
158
241
1594
253
392
187
459
473
247
97
286
71
302
228
268
1193
620
555
1195
189
1232
327
1066
1047
445
566
889
75
248
439
223
454
511
1097
1339
418
527
339
781
496
223
422
353
440
607
269
289
614
728
1432
244
72
467
399
409
1019
938
573
577
1204
1450
697
792
409
317
261
436
436
476
317
412
492
435
131
714
328
643
358
695
190
449
716
1095
674
182
458
762
1394
526
1164
1400
105
442
414
986
173
122
1342
273
216
186
403
1351
176
270
143
400
137
206
469
194
277
229
176
459
447
449
282
1438
415
257
211
294
488
361
287
103
1356
521
1580
189
446
459
492
444
1113
262
69
168
202
183
372
201
436
464
255
410
877
483
504
455
1302
104
466
1664
405
193
38
623
385
52
266
233
1108
77
443
1365
731
481
103
65
99
55
439
1545
189
233
462
265
101
212
93
151
191
60
213
204
127
327
347
153
160
154
126
735
507
374
497
247
646
153
498
719
196
1175
462
320
653
616
625
40
509
327
664
289
19
591
205
965
221
426
206
163
588
577
421
624
707
686
470
1447
38
680
1123
642
86
412
445
416
117
222
373
391
204
168
250
206
76
173
920
315
210
323
274
329
224
151
528
279
227
90
768
449
166
229
138
440
258
462
236
433
536
676
646
360
279
29
40
82
298
825
189
600
696
663
881
245
45
649
414
110
759
161
404
677
435
436
770
895
510
250
793
473
861
873
820
231
801
253
852
286
271
757
254
46
529
28
212
169
657
298
503
62
100
53
821
899
499
586
93
99
103
29
224
48
174
297
81
236
22
728
108
256
249
68
1499
1354
1349
18
249
57
488
844
1549
1342
173
510
1434
1113
240
263
483
225
226
475
1462
492
220
951
1324
1538
220
115
269
218
66
458
1559
282
31
1243
159
70
301
1286
74
146
89
181
87
253
250
317
24
1493
106
205
88
205
118
143
1353
20
98
185
91
223
249
70
151
185
146
165
265
273
218
205
120
568
123
151
189
383
86
42
43
185
96
85
62
1610
1127
625
896
16
534
25
237
617
23
915
537
30
30
515
43
61
28
39
53
8
31
744
40
40
23
17
59
39
41
15
19
68
145
117
126
98
77
98
49
74
18
20
22
19
27
26
41
42
29
53
34
27
6
220
136
68
24
46
270
172
254
151
137
19
149
84
88
138
251
16
130
177
147
101
131
116
141
205
148
283
110
121
65
176
254
1646
46
25
1598
1563
880
1498
1035
1209
709
758
1395
745
610
909
1299
655
1112
880
770
716
1676
1089
936
1371
1443
1255
1155
1431
646
627
557
1439
186
1528
633
1098
703
1510
514
175
1063
880
1295
421
692
1403
439
1137
907
1312
1268
610
1230
205
176
1075
612
725
1518
1486
878
1493
1079
273
1541
324
583
1432
1074
144
1059
1210
271
992
616
1168
1319
963
1446
860
153
827
744
1130
1209
519
1333
496
1668
1416
407
1193
1165
1061
1553
998
375
395
1127
1106
228
418
1434
429
1451
874
1607
1526
1513
1666
1675
1677
1589
1670
1486
1652
1559
1562
649
710
1637
525
671
754
656
492
1414
1092
748
432
704
222
748
1562
908
179
1434
1506
1162
925
697
946
1133
919
1462
1120
1146
1473
1124
896
1502
699
1029
1112
801
1412
1664
1637
698
486
1042
471
1193
230
932
1398
523
793
1607
570
780
351
639
1096
1528
901
319
1396
1537
1235
355
1557
846
460
1551
1196
885
955
628
624
803
202
1286
180
1056
490
989
725
942
1444
1432
953
850
187
959
701
30
451
1301
1184
149
1511
583
727
1439
1270
411
1114
1499
446
1122
1192
1392
1043
598
1197
660
1311
719
583
247
781
645
1229
1393
225
1398
799
1286
163
1141
914
639
1587
280
707
982
658
559
871
1215
189
490
373
1241
1202
662
508
606
1233
216
1237
1328
805
591
1097
1236
66
962
320
129
888
1515
1472
890
1495
970
841
635
1208
760
1339
474
961
1390
887
983
845
944
1072
1251
896
1235
950
1379
1083
791
1499
1664
1427
927
692
898
1633
178
138
736
849
1335
451
926
1146
1203
205
823
1516
1276
393
787
867
471
1596
707
1067
118
471
1661
213
895
1205
678
255
1338
423
160
542
995
175
661
869
1562
987
1259
837
1365
322
1387
1008
67
1558
455
1372
992
1378
102
151
1550
1478
1239
1086
231
559
1605
928
342
828
115
1200
208
1183
1055
1657
776
1644
527
1283
1199
1296
670
1154
1101
1320
1404
826
995
1328
433
469
628
1586
155
706
1359
219
440
1384
491
1653
866
1560
1144
960
1427
1295
229
633
195
744
1334
1446
665
819
689
1297
572
1220
126
672
1172
1568
1190
494
242
122
758
908
341
1183
1434
1376
1003
462
1072
1095
676
1406
179
1023
309
212
291
1497
1025
872
1154
314
1388
905
691
1191
769
1173
584
1282
251
1413
1485
692
381
516
402
957
370
921
443
1378
1311
631
509
981
1513
828
1265
1524
441
989
841
752
982
1107
1003
245
1473
116
487
1677
34
1157
802
1326
1158
777
273
573
206
1386
544
570
1619
759
90
795
1548
1185
828
352
111
1400
1030
547
614
1587
1229
1508
381
1143
1249
428
1400
438
1289
390
185
1449
380
773
418
1132
442
852
729
1026
56
949
283
61
1126
197
595
1535
455
779
712
680
1346
556
1399
210
227
1184
669
677
1674
455
210
751
655
971
327
89
1522
579
138
1377
1508
224
913
372
186
1179
915
1621
221
960
864
803
146
924
210
521
1408
436
1400
1272
564
868
846
1615
838
891
184
639
320
1263
547
950
172
350
338
1152
957
922
941
571
1451
681
1291
573
1395
198
1427
1230
866
601
851
676
1023
1150
1329
888
66
1552
1594
684
928
518
1361
1483
1212
1522
962
1398
1221
471
1503
725
1600
865
163
368
366
1292
1007
676
534
718
479
153
920
116
1531
661
506
1219
1569
1385
1171
1455
721
1214
658
820
853
1216
1031
641
1537
1528
455
210
641
1380
1438
1445
155
588
905
696
955
355
1329
1613
454
810
1240
29
119
352
1417
1506
1251
1484
698
1104
1299
1653
675
1072
224
751
1181
1155
761
289
1126
729
1470
720
327
932
904
545
828
1500
938
1393
1563
448
972
1007
980
1579
697
1161
1472
1098
751
1532
1553
1577
517
1557
813
531
1112
1647
1538
1553
1452
834
1009
1380
1258
282
1026
1190
531
1214
1308
1250
880
1333
1340
125
223
273
1157
496
1119
1051
646
1373
115
1169
1561
960
661
393
689
860
256
884
1245
752
1164
420
364
750
485
774
388
1536
1153
1119
1312
1218
1127
338
774
1251
558
779
917
712
1103
678
893
1166
1541
666
926
949
1046
744
467
953
1042
543
510
1446
1226
1528
258
886
250
1079
1545
1199
935
881
661
1658
720
817
453
1011
604
1058
1158
1474
1042
716
819
1525
1516
1386
790
1117
1617
665
893
284
270
1354
255
877
289
427
694
415
1401
1427
699
1667
113
644
711
1003
1199
396
632
538
334
998
1515
1386
568
746
300
1034
1242
165
703
778
621
636
1111
1491
511
425
492
1374
1107
1381
1468
1350
696
1085
241
498
942
877
163
1357
1633
1172
456
782
1366
1175
1409
1385
160
515
184
697
274
1635
1078
217
592
1073
1612
687
188
316
1059
993
53
546
852
1214
180
930
416
1628
1175
690
1385
260
1216
956
1199
1074
894
699
422
140
1196
1142
1405
1452
312
1062
524
1438
416
1276
1553
982
1622
921
188
845
1309
1366
788
1183
840
220
503
574
1668
1615
1515
1547
1024
231
1242
987
672
918
752
1192
195
923
1234
375
1237
1369
337
1041
1405
1601
442
949
181
1437
237
466
1141
1167
1238
426
232
1215
1450
1180
387
806
877
1249
971
738
1020
858
217
218
30
1220
214
533
422
885
1053
966
487
1480
1179
1469
1300
184
1466
236
1022
1220
141
836
1054
77
1311
882
195
699
352
1315
1333
473
1178
621
199
1519
1293
767
696
1672
794
1455
463
739
174
774
1221
1287
540
1118
208
1292
1536
545
967
1438
248
96
1643
893
1001
19
488
264
1145
787
523
1341
719
706
384
1524
1219
1476
438
170
1245
629
900
919
1267
495
1165
508
1117
519
1167
808
684
183
1674
186
704
921
180
403
213
1580
1206
938
444
166
925
1162
403
152
115
357
827
563
532
1132
712
431
430
204
1247
734
402
1198
467
237
1432
1099
145
163
1577
958
238
1176
1335
1198
1271
980
381
1512
958
133
423
1096
314
1482
178
1196
1418
1139
1428
223
181
784
213
1391
309
896
707
1350
269
1238
265
1161
617
688
1601
1670
1152
1503
599
1605
890
1040
836
798
1089
1205
254
1394
1602
1632
56
1190
1660
851
1340
1004
1084
296
686
669
1465
1356
1064
486
688
1157
1662
30
136
1552
1430
1491
1407
1246
446
1236
807
1203
1266
1652
1011
702
83
1498
30
435
78
378
1404
1480
303
95
463
667
1276
177
611
1424
234
354
1379
1444
197
1622
448
1188
497
437
467
726
1487
1224
1008
965
81
1495
1488
1531
882
410
870
277
782
1567
956
1510
127
227
1376
1136
199
650
1156
432
629
804
187
1005
912
654
619
1118
440
705
1413
924
1505
1493
463
894
845
156
171
596
376
1272
1422
1424
1497
1139
593
847
1048
1375
637
558
640
775
811
442
110
1134
727
840
1436
39
212
1528
973
1274
1604
325
486
757
105
1365
1505
763
377
261
571
270
221
921
708
681
1309
1648
801
487
1327
1182
1151
1565
1346
1491
1617
218
487
1570
701
1048
920
1673
462
870
504
1588
1287
332
472
1063
892
351
637
1538
402
64
1417
1387
1524
953
611
1230
737
1494
489
612
1204
263
1017
1623
375
1612
933
461
1033
947
419
1343
1291
1241
170
790
1032
1253
747
824
613
961
1386
954
1132
1169
1442
949
416
218
680
1327
1481
1135
1161
1374
911
419
1659
1416
1175
995
487
944
230
797
836
1060
555
900
658
874
419
1246
259
1029
1431
853
727
681
241
895
782
872
172
1416
1609
1108
144
924
978
1328
1113
231
56
683
1426
1161
669
843
946
254
285
907
875
1008
1197
990
1129
1648
306
1547
597
1424
1208
298
868
835
727
573
1221
1264
1026
531
506
733
500
1051
1114
759
1033
956
121
1393
893
1539
1459
1134
1468
859
1604
77
895
1233
1031
880
529
1180
983
585
1305
159
458
141
1419
517
104
1513
1496
179
1653
1265
654
827
1132
892
278
207
927
642
1283
865
806
1402
525
64
1269
1481
1371
255
101
1479
635
222
1463
913
241
130
1219
228
695
1478
1138
1151
1074
1483
1225
981
1084
1396
966
1443
858
1080
861
420
954
97
597
1032
1178
1396
575
1572
931
925
713
209
189
736
1314
504
564
1577
78
1167
126
57
692
383
1374
109
1654
1635
1541
507
449
1566
1270
1589
328
1541
636
275
1538
1638
140
1624
1103
428
457
876
1149
644
1035
1404
278
104
709
389
940
1019
211
809
526
614
1641
1392
1163
831
1125
898
1123
1052
617
332
902
645
901
481
623
1186
1451
1006
823
1141
712
1652
1117
938
1444
668
942
1119
1526
253
113
1129
85
44
920
290
1223
953
1366
279
1454
1098
959
505
827
337
636
1361
687
141
1406
1078
1279
1602
221
938
110
1473
1354
1238
946
915
1559
666
947
659
914
823
1146
994
978
60
20
1494
728
1349
1284
1075
40
1548
965
590
394
518
893
341
1178
473
1447
1002
1616
212
291
1341
1420
485
487
503
693
1541
832
189
128
520
1544
439
1396
925
714
80
1471
684
147
464
1277
1094
1130
1325
976
1383
406
587
748
248
747
123
1540
1135
1126
541
1341
908
1282
178
361
909
943
248
452
755
1311
704
818
660
610
927
89
1338
1315
346
982
1374
896
957
1378
500
424
677
656
96
569
775
1153
1631
73
377
592
806
914
685
917
467
824
1425
500
1176
48
264
1417
405
1140
639
680
766
463
1287
65
476
630
922
1056
154
746
1209
1372
16
1676
1630
1377
1012
1054
1176
203
918
228
1429
441
626
975
1316
353
1561
821
673
472
201
747
413
1041
1400
816
842
1658
1291
1147
762
384
1188
1595
599
1444
242
1484
938
1550
882
1170
39
338
370
973
1241
613
86
1445
207
235
1173
529
556
1133
664
1051
1470
708
213
264
1480
818
1654
917
1250
549
632
1138
916
117
334
1369
203
1202
1460
917
1563
647
1443
1287
303
1520
564
950
1175
673
1222
227
212
1174
1007
329
86
715
732
473
951
435
442
873
42
1295
1510
461
1196
1370
914
198
244
1224
1368
529
1619
786
1570
1129
1365
283
527
1455
1462
336
1249
223
427
1186
732
32
1130
1664
477
1389
1413
479
1160
201
1037
716
454
212
1174
399
592
1345
796
779
288
690
394
689
242
897
896
367
1337
1084
518
182
272
29
551
1106
1040
1328
1184
873
783
25
1102
519
1446
1071
1353
1420
743
1484
1394
860
972
1191
844
1206
697
64
944
91
256
718
579
836
1002
268
1221
396
446
1072
733
1483
1068
702
1177
335
381
1226
1181
336
1072
240
924
738
621
745
493
764
50
178
1416
383
905
534
655
723
1271
1151
1210
834
753
346
509
1458
500
82
690
470
835
932
1372
976
1378
1571
460
562
122
1320
1258
1297
754
21
172
422
1552
1321
1405
1260
867
361
501
602
222
1650
1057
1552
1484
936
513
246
194
721
970
1128
1559
173
1410
1546
463
675
1431
412
1610
256
170
1002
1430
943
935
760
1410
193
757
1170
1073
474
1175
1204
913
1550
1309
1667
43
1273
836
222
1513
728
155
377
1292
1039
1251
1676
1412
1472
1218
793
171
1600
952
1432
896
1489
441
432
377
1303
1549
230
1320
648
1391
1077
1112
244
718
48
388
216
682
1028
196
994
1181
929
1234
1233
1665
778
665
173
484
1143
1591
96
1473
1576
1281
235
1638
1649
595
333
305
885
342
1495
1195
1435
1294
1204
607
416
727
1168
1044
1396
417
1147
1193
1342
1465
641
462
1325
1292
527
492
1581
304
478
635
1108
1125
834
682
380
680
1348
65
264
975
210
747
952
1352
1005
565
210
1134
933
1498
1055
1371
1161
227
969
731
1360
1121
869
157
1173
1287
875
1141
929
961
202
1646
50
1195
1440
656
179
1169
145
851
1048
1669
713
1558
450
763
186
1025
943
1128
367
1446
1222
1279
192
201
1676
794
274
1263
385
988
91
1080
1315
623
631
1469
498
699
1217
849
1667
1529
1154
908
1141
359
1441
834
626
694
1280
1178
107
886
647
452
1529
618
1024
1062
553
1248
1548
956
327
1347
939
1255
1509
1442
505
684
1188
943
1124
658
212
724
109
1016
337
1614
940
212
723
89
537
1374
207
55
358
894
1568
295
398
1114
383
461
647
1081
1617
756
1005
1178
961
384
665
264
617
759
1164
1192
714
1223
1246
1665
729
104
1085
611
696
167
1284
1226
1086
509
1654
1065
216
616
1241
237
1031
937
1021
1119
1120
1041
538
328
1634
159
1297
1369
95
1179
637
1672
1060
1186
18
485
1391
206
748
1422
973
1489
293
845
882
428
508
1047
635
110
1199
302
513
573
751
988
385
1152
1009
455
714
1294
1186
1429
754
712
567
82
1643
432
945
1430
1365
1008
21
282
169
1270
288
1095
1192
715
1258
201
658
1499
1600
568
1324
1290
1123
484
1425
402
889
901
672
653
810
1237
354
433
1363
1451
937
1670
840
400
1244
670
1133
1380
1067
682
455
83
1154
300
1083
599
1252
648
65
739
830
1041
990
614
976
1139
1044
1557
698
677
501
802
976
340
1253
731
739
822
1565
829
1591
1572
1106
1032
968
443
940
506
612
203
457
1353
668
431
465
1190
725
1406
458
1263
958
470
1274
1584
1176
990
1247
822
1224
417
680
687
473
115
742
649
1325
121
769
630
1634
197
429
500
100
1502
172
1554
366
284
712
629
570
902
527
1501
178
764
258
903
369
37
1580
1413
1679
125
1234
1269
1236
1627
42
1086
780
1317
114
1070
1250
927
119
434
1424
771
239
547
262
906
733
863
1609
310
901
322
429
1294
134
1370
502
1469
705
985
1139
917
1385
1501
536
1229
883
1458
1569
1106
1303
1472
453
719
427
1327
1330
445
952
120
1298
1462
378
929
1002
1196
581
904
48
1048
425
1401
489
659
768
1357
1333
668
1451
949
935
64
970
1360
1124
1028
654
1400
1334
380
1181
91
1478
1519
849
539
1064
1656
342
1226
1183
1437
388
1598
1109
1679
920
1246
1258
715
491
437
1521
1422
468
195
200
615
207
1214
1064
502
446
859
289
1258
944
1193
1243
914
1115
1063
1287
902
513
1398
709
57
1185
1375
923
1041
740
907
959
945
501
872
1060
486
1513
1256
1254
1426
861
1498
616
163
538
1371
444
1441
1500
510
1049
564
455
1177
623
1131
512
472
78
663
1084
900
82
1514
983
902
1285
453
1667
171
257
1348
547
296
175
1584
459
238
318
1670
781
788
753
385
564
952
182
445
1496
950
1539
1536
645
452
95
979
1241
191
511
856
1473
441
1095
1118
1149
665
570
208
1201
1557
169
1552
652
1082
1232
1472
1333
147
433
392
474
212
764
776
1109
266
1195
1408
1657
1222
1480
987
1237
196
161
808
1268
1145
1439
295
1637
1149
1549
231
1033
578
1206
408
241
811
1610
462
541
1054
1119
690
1329
409
143
1190
1449
146
1558
948
948
1366
1366
200
1099
167
857
1530
1527
672
1321
1197
1189
988
245
46
618
1307
1491
1454
1499
513
219
454
1648
228
1415
183
1579
946
1321
1599
1219
1354
1517
1273
760
248
933
919
498
1411
1529
660
978
1050
747
745
174
422
1143
560
708
649
742
150
257
232
1314
1527
281
877
296
1214
46
449
802
1211
1220
830
1147
352
778
1501
483
1577
1138
1376
1103
1469
397
1381
166
1026
1113
287
785
974
239
1403
92
1489
149
1482
183
577
1011
101
291
1448
787
1042
1177
1285
918
1410
422
451
41
353
1261
868
437
198
232
1386
911
1392
1058
921
1372
951
1448
1289
1126
397
1612
530
1032
907
351
229
1448
196
930
244
288
1570
1274
395
287
1116
1021
869
1583
430
1613
529
282
712
601
366
461
892
1552
499
1339
390
269
407
425
350
903
1416
1042
854
1183
1071
879
824
1071
1614
1104
1625
1344
1663
536
1090
414
572
1660
1153
644
1275
1126
1290
1392
912
1443
85
1222
623
278
643
1436
943
1612
1186
1572
606
646
746
1670
238
509
1211
909
145
1371
736
1646
1263
1174
1051
1368
533
1435
1088
193
425
1304
391
24
1444
643
1183
796
1576
1022
938
204
1112
128
855
1264
151
277
136
1354
36
1040
527
189
1479
1121
707
262
1061
1365
1017
1509
738
873
1453
1344
453
1212
773
608
1575
404
249
522
1219
600
1332
665
632
968
540
437
41
1517
476
851
1347
321
596
435
1430
162
1486
246
1289
1038
1213
1096
188
1527
724
153
211
951
834
1512
754
229
1403
157
870
946
1383
548
476
1039
1261
196
1498
932
1528
1296
408
1141
781
288
47
747
199
439
765
847
1185
687
673
733
316
1537
1547
999
355
1217
209
227
496
765
1666
1520
688
675
1138
374
1112
240
1021
762
905
123
686
976
466
1257
1121
420
493
150
837
901
652
737
395
160
913
1150
514
978
1656
95
288
860
515
37
687
228
1420
973
137
1320
1358
1213
1470
775
1442
805
45
847
765
1026
410
1069
627
1224
1453
437
785
971
1037
1423
207
722
1610
1419
908
458
50
959
1457
652
462
174
255
1147
774
956
879
1274
1144
863
890
1277
847
1220
516
220
410
1586
1072
1508
1014
1349
513
315
839
686
49
1297
1382
1253
411
1188
1283
439
515
1353
1639
405
252
735
1588
377
683
507
1455
1080
1624
1327
1204
477
1233
398
1619
284
382
230
1003
193
1182
1266
100
1033
186
194
1474
1153
844
1172
160
1053
1567
746
127
428
1024
421
92
460
453
478
927
414
945
1275
1106
1102
1062
1202
1355
1579
231
1462
765
1183
555
1360
1550
599
838
603
394
536
1350
1620
701
1183
1211
211
949
141
1399
449
976
1030
227
160
1029
698
1571
400
691
576
1008
206
1158
1269
1469
1109
884
1031
1307
121
531
701
864
681
203
387
1467
1387
751
50
388
219
1426
1232
677
297
992
1145
123
1268
171
254
1260
619
458
831
166
45
743
633
1021
845
726
1121
820
462
1343
1313
1111
1484
1290
1479
1536
1362
400
598
1175
1658
545
1451
1441
948
919
1363
108
292
481
450
482
1013
1399
542
1501
695
959
766
783
1256
551
1154
767
817
68
955
141
652
49
213
932
34
519
1214
996
1201
571
531
1224
471
285
943
250
244
496
984
864
1228
771
523
1535
734
1169
467
481
884
1490
459
522
672
318
350
810
1542
1316
444
465
228
1086
617
875
725
750
866
1255
70
653
157
693
1172
966
1096
504
459
71
264
325
1553
1306
103
1374
669
770
539
636
831
304
114
874
47
395
660
319
618
1246
1174
259
707
239
668
1502
1483
1014
722
771
598
667
1281
363
1509
1157
297
1099
86
155
811
685
348
813
1541
622
546
315
658
1229
392
1025
655
606
1470
1109
239
1138
257
663
144
1295
1317
1313
1428
470
1275
1213
1036
965
234
1474
993
775
927
1612
472
759
1367
668
1410
1502
1633
963
1025
958
931
110
954
1383
1410
369
462
108
445
403
572
322
711
1209
616
1377
104
791
191
747
419
970
798
597
1420
1631
546
1516
944
310
829
1347
1015
909
537
1497
1328
82
444
276
941
70
657
1275
1137
1385
968
1397
241
1322
1188
141
1097
992
1461
560
1360
641
1512
1286
313
1457
1257
282
1092
607
353
1440
195
1494
1573
1069
540
1392
1503
1356
1001
399
613
811
1125
182
1418
1310
669
1095
974
1452
1502
659
452
431
511
1500
239
1224
947
518
300
1156
1437
68
842
372
598
698
1561
1413
1538
297
698
912
619
889
768
922
397
693
949
1471
450
1199
388
1525
1295
293
1163
253
303
1272
423
509
468
872
1005
399
1272
730
1512
263
915
743
398
764
599
1073
815
444
799
1461
1591
667
954
1190
64
1338
985
206
1603
1099
1115
703
1139
1605
47
667
1666
1580
1367
316
1575
1147
1423
821
1117
957
1368
250
569
621
1215
1139
320
1605
1105
585
438
670
254
485
702
480
164
838
1370
1393
275
321
112
724
1288
1532
914
217
463
1385
445
213
162
853
1462
1001
684
1040
930
671
202
578
193
34
1204
175
747
1361
1483
737
479
1034
850
1392
119
1067
102
834
1636
722
793
426
1006
1484
711
1410
867
1303
472
1201
109
393
355
1235
1677
1225
276
1445
128
1548
294
1218
1131
951
1058
821
1173
854
361
230
1414
1452
1223
1106
1570
249
820
482
1376
1125
612
1008
898
419
1217
660
1165
886
225
538
647
147
1376
649
983
524
1494
958
240
1133
645
1444
1079
1201
1117
706
1580
1038
1402
871
933
611
1229
1620
1243
1269
1323
446
1391
479
1045
1474
1533
1009
1167
1063
530
726
714
869
1459
1153
1024
166
786
233
45
139
1270
1677
461
1464
1470
348
1164
633
1424
1320
1334
1174
70
519
864
1387
677
1066
389
942
1156
551
1238
1411
640
792
509
435
444
690
1533
1277
1294
655
1521
1226
1234
717
1076
479
1429
1478
618
1676
365
54
224
871
544
1039
681
1124
720
179
1241
636
925
746
1148
1029
1216
839
37
909
1423
1466
956
243
1218
431
585
491
1167
301
1449
1149
1300
1487
625
989
389
356
773
168
1122
1341
1608
1074
1672
873
469
324
1264
1012
1125
699
1570
1427
535
1038
994
430
930
708
194
1048
672
1230
1275
666
1455
165
947
999
1056
1446
1508
46
683
1385
891
306
288
254
1078
1244
1010
765
1337
1424
1203
164
1393
479
1087
1520
1384
211
1628
1489
697
1050
1226
1617
199
1459
229
408
1045
1365
1096
1442
1273
1165
1355
692
1534
1452
1309
1241
577
961
812
1240
932
151
505
1025
1666
1254
1125
1334
987
734
1021
15
673
130
72
715
1139
1489
743
1513
1250
1636
691
1470
499
397
1094
1480
1504
1380
43
962
281
1455
1140
304
1477
1604
1339
1644
993
813
1083
326
457
513
1369
825
1472
1010
1264
595
407
1543
1082
1415
1285
686
1468
35
693
143
1421
1414
823
481
417
1031
1190
269
699
1117
948
1678
983
323
1015
764
1239
1063
212
1306
920
1266
1361
558
147
1039
1279
839
158
122
1270
446
448
1068
221
1269
1008
971
405
1463
537
1277
918
1529
724
36
1150
928
1352
1449
255
678
1023
1657
668
323
826
705
566
208
157
1162
985
1472
809
985
917
524
1084
968
1444
65
479
1294
1108
488
1148
1179
665
1182
330
309
461
416
1145
825
835
1280
782
511
1468
978
78
817
1227
112
420
889
895
377
1107
1503
1145
371
423
673
707
23
957
767
1373
285
264
428
1387
449
580
640