/*--------------------------------*- C++ -*----------------------------------*\
| =========                 |                                                 |
| \\      /  F ield         | OpenFOAM: The Open Source CFD Toolbox           |
|  \\    /   O peration     | Version:  2.4.0                                 |
|   \\  /    A nd           | Web:      www.OpenFOAM.org                      |
|    \\/     M anipulation  |                                                 |
\*---------------------------------------------------------------------------*/
FoamFile
{
    version     2.0;
    format      ascii;
    class       Cloud<softParticle>;
    location    "0.01/lagrangian/defaultCloud";
    object      positions;
}
// * * * * * * * * * * * * * * * * * * * * * * * * * * * * * * * * * * * * * //

9
(
(0.00474287 0.000119628 8.56419e-05) 7
(0.00491788 0.000129202 8.8252e-05) 7
(0.00511775 0.000120168 8.62333e-05) 8
(0.00529702 0.000119721 8.53497e-05) 8
(0.00546873 0.000107506 8.73405e-05) 8
(0.00564866 0.000122433 8.54494e-05) 9
(0.00584334 0.000172588 8.67662e-05) 9
(0.0060145 0.000146239 8.57365e-05) 9
(0.00620254 9.5176e-05 8.57549e-05) 9
)


// ************************************************************************* //
