/*--------------------------------*- C++ -*----------------------------------*\
| =========                 |                                                 |
| \\      /  F ield         | OpenFOAM: The Open Source CFD Toolbox           |
|  \\    /   O peration     | Version:  2.4.0                                 |
|   \\  /    A nd           | Web:      www.OpenFOAM.org                      |
|    \\/     M anipulation  |                                                 |
\*---------------------------------------------------------------------------*/
FoamFile
{
    version     2.0;
    format      ascii;
    class       labelField;
    location    "0.01/lagrangian/defaultCloud";
    object      tag;
}
// * * * * * * * * * * * * * * * * * * * * * * * * * * * * * * * * * * * * * //


25810
(
1
2
3
4
7
9
12
17
18
19
28
31
16
266
32
39
43
48
49
50
51
52
53
54
55
59
63
64
65
66
67
68
322
79
80
82
85
86
87
95
96
97
98
99
100
101
102
103
104
105
106
107
108
109
345
346
347
348
357
358
94
344
373
110
111
112
113
114
115
116
117
118
119
120
360
371
126
127
128
129
130
131
132
133
134
135
136
137
138
139
140
376
377
142
143
144
145
146
147
148
149
150
151
152
153
154
155
156
399
141
157
158
159
160
161
162
163
164
165
166
167
168
169
170
171
172
173
174
175
176
177
178
179
180
181
182
183
184
185
186
187
1929
188
189
190
191
192
193
194
195
196
198
199
201
202
203
696
946
204
205
206
207
208
209
210
211
1204
212
213
214
216
217
218
715
220
221
222
223
224
225
226
227
229
233
235
236
237
238
239
240
241
242
243
244
245
246
247
248
249
250
1462
228
230
231
1237
5
251
30
46
41
44
45
70
83
123
125
124
6
8
10761
35
36
60
58
4058
6224
497
498
215
970
13384
15
21
268
11
14
264
73
6372
722
1615
263
1365
5265
18140
436
457
2838
14109
18557
3050
7321
14009
14363
14590
3353
18344
14350
6651
7106
10616
4983
15484
21878
967
13754
3060
3311
17818
6880
15474
17890
6886
18085
14587
7059
21181
10838
3387
6608
10763
17885
2467
14380
3307
14319
14552
22134
3516
1776
14774
904
3088
3354
6443
7110
2240
14791
2230
4171
16684
2453
13715
2837
7071
2231
672
10862
10649
6256
11091
18595
22111
12157
14788
14344
17723
11044
6364
3360
8221
262
269
77
254
258
507
29
280
282
74
93
848
20446
19766
16037
16295
375
645
16895
659
667
661
678
20943
995
737
743
354
1112
385
632
878
401
446
677
1018
794
866
1115
20496
1780
573
14577
6624
3346
2875
3031
6404
11576
12712
5090
22074
14567
3107
21880
272
13620
19888
8764
9683
518
12528
380
14038
23
286
72
11582
16046
19867
740
566
19169
19184
372
415
526
12538
386
627
660
723
489
300
8618
301
56
849
9761
465
19666
432
404
12075
19154
4208
3316
10526
14434
1244
7247
11245
3957
11229
17995
23250
21496
18248
15790
3233
2471
2244
2012
2993
6156
439
22091
13943
6840
10825
22123
17872
7108
18316
926
14830
3523
10365
11109
17696
19744
20499
17933
1563
2107
14150
10819
14327
7147
11549
17958
16582
14114
4972
21571
7956
2704
7057
18131
8635
21045
20790
3084
14848
1135
2574
23858
10852
21146
11880
11051
897
3521
14581
7008
2216
22403
18540
1562
2049
1746
10567
1458
22290
2523
6671
2925
1542
6268
452
15621
652
1197
7095
6370
8126
4445
6504
10356
4062
440
6685
4485
6905
544
23175
11588
17695
11512
23132
20376
12425
1627
17618
1302
14342
10577
19611
10752
2844
8256
23331
990
18549
12146
18573
19228
3555
20935
18083
11535
2363
15637
8297
19815
20092
19348
8207
16292
15868
17031
1596
20433
13818
3105
20867
12149
21275
23421
4668
450
6029
12080
8176
306
8766
14367
10821
901
422
11022
3320
20961
15742
6582
6218
23889
10569
3096
22381
3173
11135
15864
3224
20781
14814
7125
7326
418
19939
18259
10371
2302
10343
6273
11610
18913
7820
10820
6653
14824
17663
3766
7149
3616
2850
15806
4930
23468
4928
7307
12202
9787
16508
23527
232
1822
12129
22045
10550
13950
10399
18605
3037
14631
1710
18365
703
22137
20113
11093
6581
13852
16814
16604
17619
22212
18965
2512
1229
14628
15219
14404
1523
3263
2271
2540
3990
3496
4289
1214
3075
3301
3081
1998
3076
2855
3883
3551
3086
2882
4377
3042
2583
1376
18008
3785
2774
775
3347
4189
2815
10589
3576
3341
3640
3532
3611
3214
12054
3545
837
867
2081
2769
2057
3684
3544
1164
3686
1218
1924
414
3114
3256
3144
2849
3706
2966
2745
1334
779
1232
1233
631
742
733
1859
15025
2303
693
21879
7006
3773
21070
24938
3509
11695
886
3062
2829
6460
3259
7693
1806
2313
11083
2129
15095
10599
2226
14199
8749
10613
16241
2218
2936
7572
562
19459
17178
14766
14767
2719
20520
21846
10647
2992
2215
24500
25147
15333
6831
22063
14067
3330
986
1161
21682
1459
1649
2780
7306
10532
8442
477
820
2130
15783
2871
1056
2364
22764
20964
12441
25878
7314
21749
3120
15409
2928
18664
14924
6777
17681
6783
3751
3419
9337
15304
19799
13033
23441
447
1126
6093
23966
11395
11357
11372
24308
947
3879
6586
22269
18045
633
16316
1422
14835
3858
2062
18334
23467
18296
2262
15584
11484
21874
8148
8296
20834
20895
25362
18611
6385
18926
2127
11133
5234
19559
10366
13927
1714
1344
7595
6887
21465
16983
22375
4991
25
24388
3004
12271
14072
14545
16176
2378
17449
580
8131
4121
19844
2452
22296
3615
2892
19084
21425
20699
10420
11176
1722
681
10955
684
1243
13998
10865
1680
9343
1107
586
11152
13922
21415
10457
13601
3052
2970
840
7054
2902
12421
3961
9361
24310
19715
16300
15330
8743
1470
9070
2665
21262
12483
14702
6617
694
1094
877
14843
11104
17177
14644
8139
13871
23497
19941
23706
18623
8275
3134
14964
17346
707
24011
1011
965
1227
1267
1522
8997
993
815
16562
297
10
33
12542
3005
11087
6829
21628
10244
23592
3129
4712
16339
12973
4129
25260
2668
1906
20726
14770
24610
14809
5512
7088
24203
26013
12823
1346
3181
16733
21348
14065
3923
6842
3880
6735
3548
22828
26181
11406
3564
8728
19298
8147
4986
3547
4977
2728
18899
22297
14124
10548
20702
8022
24362
3873
13615
14182
15851
15539
9868
10277
8397
7064
20335
18109
5997
6763
23219
2846
10212
11013
7880
14893
10684
18067
15302
24830
3852
21934
3336
22892
14840
14630
18660
23677
7199
20526
12330
4191
11362
6506
2249
25347
13863
11273
10396
5954
648
16257
7278
18618
567
3413
4535
12206
19234
17919
8455
517
4875
7983
7308
3882
19890
11651
26171
18566
23114
23223
7794
11529
12840
17253
2918
888
14023
3021
23998
8159
18369
10890
23588
16541
12812
20956
15725
25914
25392
8679
8851
6374
18692
3682
7444
1831
1412
5221
19605
22188
21476
5236
14502
4258
6092
22823
20372
1514
15849
12506
1551
23668
24612
20712
18561
15838
18945
4414
2822
2865
10623
11122
4973
3058
15203
3846
4079
8937
10891
7316
21802
7929
8445
8448
22119
15802
20069
19606
9349
18982
6509
2686
14159
2760
2672
21446
10679
7881
25008
9021
7357
4049
11065
5986
14175
20060
2451
9731
22884
26064
6349
19554
15914
19171
8434
19253
669
9716
9951
16287
3665
11132
3503
24369
18576
10681
6925
12306
3628
14876
21404
21843
22089
15242
10847
14706
2962
17896
6563
14088
20562
24471
6401
10676
7563
10115
7809
7358
3366
3079
16467
5981
15689
15498
10765
13947
10437
3044
3040
17474
14622
12213
19652
3522
21893
6690
11931
9612
22463
24665
24778
24166
21690
7281
6822
20596
6786
3102
7151
18061
14368
19570
22365
13665
18272
5278
6410
23257
7257
15138
9272
9726
10102
6225
7730
21447
23863
18265
15760
14120
22135
17726
10605
1763
6752
22252
22377
6888
5768
14128
16719
15094
8596
21815
22293
21443
15826
11266
11331
11114
14875
24880
16954
14844
12478
14618
23261
12164
10419
15417
6948
19334
19887
16873
7021
3172
24100
11046
13955
14842
7385
11049
7160
11059
24418
10593
15726
7263
14402
19239
7154
976
13265
680
9964
1533
21020
6705
3438
12466
22749
14572
19358
5150
12562
6201
23419
7161
11074
17887
20341
3275
6625
4183
8281
17065
2799
5815
941
15175
23373
7170
6583
19199
19723
11782
5793
3305
4941
20220
6827
21633
2290
22400
22970
7764
7610
5755
8447
3698
23768
11776
11837
2712
13716
23856
23741
21106
23731
21459
9782
18127
6681
18558
14616
10570
25302
7882
23617
19690
22858
7383
23773
11105
6891
14811
24941
11628
23870
7976
2380
14683
12678
6406
20077
8443
19564
619
11980
3527
6259
3340
18571
17598
1114
20796
11016
2534
17719
11397
24695
7271
7185
3245
3371
7315
2927
21431
3575
6913
2210
3568
13273
10398
11299
14497
18656
2390
3764
16612
15483
12323
14306
12738
14345
22412
3546
7077
1638
1124
6260
23069
7705
14337
3113
2929
14325
8860
15647
6597
18594
6674
16150
19246
15757
3398
10845
6797
12107
10449
20979
7651
10464
24448
6756
10712
19386
11221
17672
3524
18347
2664
10951
825
24908
6928
955
476
6899
6186
7061
13698
22868
4177
9124
17130
3170
3831
7659
2866
10186
6906
1530
21904
7446
20597
12676
19076
20609
3901
3908
6436
6337
2187
16691
10963
23629
20083
13150
22930
24087
24054
24902
10600
3541
20031
4056
19907
9672
23060
23556
5375
1162
20532
2170
21924
18309
17664
25584
15789
20593
3418
18051
991
12378
18877
20000
20120
5186
11877
19716
7203
4034
17694
19010
18546
15380
7356
19763
24624
11724
15159
7927
23210
2709
2895
22097
11856
10259
460
19827
14416
10171
10456
22288
22596
7701
5844
10872
14713
17386
13426
5238
22901
7517
13857
7085
7274
10686
21016
4290
20392
11347
16352
16075
24266
10562
11747
21390
2621
2920
6217
22762
3334
7630
14649
11136
18338
7135
23596
23304
1109
19755
22368
18165
2734
7437
12455
10756
18363
23056
3022
8676
7025
9669
7338
5946
15745
3793
18046
3298
13739
5267
13255
22102
18327
841
20587
24926
11971
6968
3420
7283
8196
22424
15086
18129
4370
4449
25412
3667
8110
3121
15367
7022
4943
732
12703
18604
5347
10017
18288
4919
5126
10472
23683
19709
2199
12503
17729
7791
23193
18839
5509
22082
15100
8475
3656
12269
10088
15774
10611
6654
19699
8659
11134
9480
1023
13060
23753
4399
8411
7915
4840
553
891
7803
8065
4279
7944
4479
7839
4637
1960
3071
2592
1360
12089
4077
1632
7389
3152
6835
3887
3368
9456
4605
4628
6669
378
8569
21864
17883
13689
22626
10897
11346
19097
14815
10836
16336
10594
19769
15436
15131
21472
7337
10822
20707
21909
5587
18562
4381
21819
15073
2843
7728
10556
18601
6593
17090
8682
11296
13835
18670
21669
3876
18938
15408
4137
25373
22643
6662
6844
18074
10572
10835
22975
21943
24344
14083
14861
12207
19672
18696
14561
11599
10674
4636
5733
18559
2551
21632
14394
21898
6265
16432
23111
7726
3012
17954
11055
4957
6257
7336
23084
16017
5011
19151
2306
21197
10813
13476
19935
19485
11348
18146
5734
10006
4387
14311
7387
2757
7696
7288
22466
3337
8440
6587
7756
19537
6437
10936
730
17667
7377
7405
11906
1845
18196
17648
25084
3856
21859
14599
18878
21655
11086
13458
19381
16495
23215
13909
234
12128
1393
14384
20743
3049
7658
2858
2683
19244
3296
7597
3593
18290
6945
23661
23185
23055
10946
15218
4217
6159
18865
10609
18499
17639
21323
2212
15727
14158
7634
1569
22372
7836
827
7116
23636
22068
13554
4159
19549
20733
23137
1435
6808
19990
16568
10430
18691
3658
7945
14401
14681
10155
18100
6155
20850
15319
10080
20290
10475
7495
14854
14145
15432
3365
16364
4111
10476
17860
62
21782
18191
10300
14571
11018
19102
3415
21604
6997
24769
11153
3204
23092
7647
7343
19878
19414
5648
10994
24013
6943
13233
4659
23133
18417
2824
18724
4174
4130
2493
8699
8717
11085
25246
2293
15698
18866
18603
11192
11603
16003
24191
5178
6606
3252
15673
18855
18662
11806
7649
14883
12522
7083
7950
17181
2263
4214
19321
2017
14538
20495
19598
6812
3351
20285
2080
6143
12283
5855
17504
17094
7134
6422
16772
7295
3370
21511
10196
17997
4143
16433
9666
17985
13709
7367
18614
18340
20207
17932
3038
13439
10093
4376
11828
18362
18050
12457
6871
14433
4893
589
10935
2469
8293
16328
18966
21318
7862
3295
3093
1674
17857
5626
6569
19168
11391
17435
16249
4472
887
7963
2650
7754
10355
11561
14604
3614
12023
3006
17735
16497
10642
7631
7459
21613
8048
3432
7752
4497
2468
21375
12452
8388
16035
7140
18037
6088
16487
11952
14307
11704
15644
10563
7333
4724
8460
2965
14871
22180
15283
21870
14787
18326
3324
15305
16246
11826
14849
20356
14097
7408
6817
3590
7900
6853
7865
6858
7895
3023
3095
14920
11382
15823
9728
17616
11088
18957
11583
2830
2938
20254
20477
11377
12108
6895
13960
7890
7395
7324
5444
14400
697
17921
10293
14104
10200
2398
9972
18684
10454
3845
3535
11475
7980
18590
11396
12057
20009
12661
11163
14253
15476
12393
6889
15463
10165
7341
6491
22637
14221
12068
17358
16349
2343
3830
24839
3920
6722
3024
7074
7806
3789
1727
4971
1133
5144
3630
4075
19978
10397
9392
18621
3104
19407
5357
16511
17482
6826
8913
13885
1121
3962
6867
3297
7599
7891
17182
20918
6675
8800
5729
12092
8299
3391
6585
5978
6868
9391
4170
4705
10156
11431
22321
4021
1181
7894
6604
6369
15793
14714
9692
9158
18786
24027
10885
12368
6322
4920
4006
7299
6911
7372
5472
6435
7638
6832
2035
11979
5071
10004
5538
10914
2937
7080
11075
18345
10659
2913
7136
11933
23062
8140
18169
23350
1798
6870
6854
15433
2623
2019
20937
4692
3431
3054
6332
21117
2903
4140
2275
6652
2166
3187
7381
3175
4412
3849
2923
7090
6938
7484
4292
23811
6855
4127
3410
4679
7540
5744
4391
1702
21091
8088
24544
2967
7403
7168
7575
6919
18723
4132
1104
2848
3352
2914
5833
3476
6989
7423
4345
6339
13670
8192
7931
7725
20319
1712
7425
26157
6892
3061
728
10447
6355
880
4011
3853
17411
1300
6793
21381
11465
7580
1733
1174
1629
930
6820
25939
2873
3588
7046
4402
1709
3286
1692
2258
2922
997
3318
3401
1844
5482
5418
2463
2652
2521
2148
11422
8357
5819
7955
4024
10893
2723
7878
11094
3161
18289
7124
5110
10217
10268
10308
712
7920
5211
10415
4502
349
9976
3139
16147
3528
6667
3124
2629
9942
9696
7096
10354
11066
10718
7382
22680
710
10587
17582
10237
1403
6774
6873
6856
1779
3654
5990
6549
3448
2634
3933
3309
1138
2717
15475
4918
3284
5400
4409
5166
3531
2549
8376
4698
3769
1548
12942
7312
2616
3974
2136
7303
4442
7093
3685
6861
8337
10505
10940
5634
4526
406
571
1253
4620
13892
2826
9321
10868
11020
13924
3881
939
10802
6468
1624
11914
2653
6380
10678
6879
6864
12081
13828
7921
4199
12416
7322
13436
13619
13699
3633
12658
3842
13427
4265
4518
11787
4109
940
8252
435
3597
2802
10408
4542
7930
1191
1536
881
12959
14004
8474
9167
1373
1535
1508
326
3563
876
2948
4682
1252
3638
491
11384
1622
4393
3885
1103
23262
22646
21037
442
4229
963
8197
13216
25896
20999
2748
7999
23948
17463
4142
4133
7504
3533
3737
7371
22882
7716
3466
14758
20591
25556
3388
1902
4045
3417
1226
7073
24289
4386
690
19418
2375
1230
4686
20241
1234
2450
1312
3018
1336
4155
4152
4826
479
23381
1683
3123
1321
3045
1811
2478
21088
458
1728
2994
1496
3328
4104
1152
2461
2916
2362
2939
4135
4424
3697
3449
2048
8993
2192
2690
2764
6447
1382
636
621
3100
1626
1318
1222
25214
18972
10402
14856
471
8366
463
3639
10394
461
15470
8416
437
421
8066
655
1096
405
508
806
71
438
11681
699
634
383
314
906
557
588
267
316
1150
2361
1951
1999
1697
1170
1525
802
1062
284
427
382
332
293
370
572
607
484
900
534
279
69
3730
2393
1208
276
749
4249
2622
3999
2336
2300
363
2334
1286
1452
2442
4231
407
2027
2779
2410
1559
2082
1856
2445
3014
2427
4340
1515
1791
1194
2985
4203
25718
515
291
24874
26192
13782
23370
17267
20057
11115
11913
21832
11713
10152
15026
20457
10219
18550
13985
12112
11169
26138
18026
14634
21371
22676
20949
19267
22367
10241
10404
8545
23984
2839
23962
9994
17042
10938
23663
8034
2578
17608
13923
21647
7221
10864
21840
6914
17861
15102
20673
21228
10199
19218
3092
2954
16910
10154
11412
25301
24846
13749
23318
17859
4408
25653
5276
9655
22493
16925
2485
17698
18823
4047
16644
9618
19280
20508
15176
22585
13497
2692
13800
11540
18975
18916
8729
20818
7860
26067
22165
6800
18588
18092
17559
24377
15569
5961
6647
17586
18356
3708
6811
22417
6670
24200
13683
25117
25356
25108
26003
26137
26139
24912
26007
24940
25927
25859
24417
10974
11038
25740
8045
10328
11784
10903
7747
23521
17036
12280
6860
11063
3421
11591
24370
15103
2816
22386
25101
18136
14295
10869
15971
17686
14320
22960
17673
17917
23080
18609
14204
23296
10871
16068
18597
12674
22161
26079
25568
10839
7632
16456
7289
18666
3741
14677
21913
8012
13202
25164
8823
13048
5804
10604
17118
23837
15096
4938
21833
25555
19285
5582
24365
13046
7527
24250
19809
14892
15808
9958
10448
13275
3089
20132
2864
16563
8152
16312
11381
14593
24193
23899
14838
13487
3227
14828
11606
468
7643
20381
18704
2406
23633
9133
12024
22266
21199
6418
17339
23465
6874
18701
19774
21923
16285
9780
18514
11142
20297
11953
9702
3914
12076
10209
20484
21908
3674
21929
12422
21481
2561
19190
14315
10729
24785
4730
11160
15413
10315
9396
14643
18891
3026
7667
5787
19432
20222
11222
7919
9421
19361
3493
19412
20829
12740
9094
18269
20554
1101
16019
5475
2064
13868
23590
23079
13839
23289
16058
14049
10694
20056
11915
20887
7464
15174
21515
14800
15461
14022
14829
16907
19613
14110
20694
15944
21660
18098
13231
23434
26204
22379
14438
10911
14206
25658
2784
2183
11501
14151
20914
7004
14390
19226
18879
3277
13733
23747
19872
6010
12316
14310
7320
24888
11113
16715
1983
7414
25936
3490
14000
18912
10663
4439
22348
7145
2730
8265
15660
2516
10412
14281
26050
16404
19684
13951
21365
5206
21590
16848
1004
25952
7164
21419
16519
21706
1732
2721
24140
23085
20698
18101
3570
9474
25131
14563
5257
12966
1785
18923
3423
18391
16422
25885
12809
25575
8047
20066
18625
20360
10421
19031
17123
22220
21872
13893
16553
20954
7155
7365
10452
24831
2496
11159
21141
3262
6915
21587
8106
25787
13581
26095
17931
16095
22457
21600
3537
10645
3176
11743
20929
22569
11194
12816
11359
21649
8841
19036
1765
10704
19644
26103
19850
7515
3987
2144
11788
14138
5559
18500
23776
21704
15746
7654
16860
17008
11471
21890
2953
15938
4834
3317
4629
24904
17225
13712
18034
4761
21685
14119
10754
19773
12002
18381
9212
21399
3918
22006
23123
10958
5842
8083
6331
15857
6152
14338
7478
21737
20438
10549
7889
16398
23744
13848
21147
23755
7351
16453
14143
11751
16305
17254
15543
4100
23064
1927
7570
26076
724
18068
13352
20749
18069
12135
4252
8842
3403
23023
8626
8839
25332
11961
1433
12324
25848
19798
12872
5805
1898
21931
16069
8707
9710
24816
20406
23630
6445
17758
20896
6544
21821
7301
21484
6548
3147
22510
5966
12115
6659
17591
6995
14107
11385
16128
884
14865
4418
936
17569
3178
9902
23797
7180
12984
11805
10509
22481
9471
21992
3517
3800
18610
11151
11269
26011
7694
3425
11547
10125
15137
5404
1416
23831
9207
2073
21658
23583
3657
14408
6060
3148
18293
14316
25490
3373
15157
13657
12566
2487
15401
3331
8700
22001
6927
21993
21060
9448
13614
13015
25094
13085
13887
2821
10651
5235
19750
8535
14819
2747
5437
5425
18126
14826
14495
14592
8871
24028
10635
21549
8826
21988
3069
22410
19077
14356
10190
13488
10583
16000
17999
20924
13790
1148
24376
24870
11307
14626
8085
21424
24608
18919
23815
15112
21991
19068
7773
23344
12022
25063
13627
2733
6197
5624
21722
15641
10677
8288
11015
7422
2260
14462
1911
25643
10459
7823
20271
24564
21541
18410
22719
11252
20203
10905
12927
13412
19079
16117
10174
25649
25358
7600
3642
10559
21567
23780
22615
2324
9801
14010
11601
15902
5566
22198
25123
7069
12745
20605
389
1812
5579
22088
23675
20976
23169
10792
17485
20426
25756
11392
16813
3501
12643
18373
18004
11760
4771
18799
12198
22937
11313
5164
14739
14181
8502
12997
25017
15697
23108
26145
7032
15013
15719
16397
24590
11555
19304
23063
18395
11750
23872
24424
24510
8006
25779
13645
8804
17493
25547
24175
24455
22716
13112
16771
21708
19667
4433
17195
18569
8254
20109
20419
20897
14652
22108
22397
1967
3344
4645
18084
7923
17375
16324
10210
21467
1910
18377
26096
15126
11143
6135
10924
14475
4126
14562
19420
11985
18122
6677
5513
11593
8225
12163
6452
25601
18033
17469
20657
19112
17617
5315
12038
19535
8624
12953
15441
11071
18478
11270
13795
18187
24068
11195
14296
14834
16319
11634
7379
14932
17305
8391
7796
24101
20278
25311
4128
13788
3839
17812
25892
18578
14664
14731
10428
25839
11282
13524
7598
15863
9435
17525
18241
24693
17274
11903
13526
23756
23685
23054
12382
17467
25330
11100
14806
4562
4595
21011
3969
14524
4611
6715
10757
6438
21822
22363
10840
26129
1861
10734
11242
15684
18516
6523
9931
8983
5724
15710
23715
21542
9483
11511
4591
16245
19495
2678
10875
12952
9748
9997
17414
23316
8643
7225
7622
21374
17332
21740
22935
22548
11554
18194
3877
8473
14687
14727
2702
21170
25705
18255
7181
12218
21382
18414
23359
21572
2579
8129
3193
11696
4331
25582
17983
3727
9774
16752
25138
10750
3103
4794
16504
15736
959
8675
13317
18999
2989
14565
6809
25341
18258
10831
23022
4036
20440
14841
19953
16753
13843
10918
7191
2044
18669
17913
23308
22685
5201
16710
8044
22421
6579
21299
24330
15257
25382
15273
2888
13092
21896
21366
13228
19702
14220
3605
8478
9599
26036
25141
25470
25894
17146
3586
19464
15418
11060
15301
11876
19946
3207
14371
20693
6392
19428
22974
5524
17445
21873
25111
6933
14912
3221
22295
3623
7940
19018
19451
20525
6573
3712
18875
22620
19527
6113
12710
13545
19658
16028
12442
17189
14301
3338
3603
642
19114
3257
8428
7222
14845
16373
16023
7711
23212
19729
22873
20411
2884
24450
3669
15874
20272
2123
13005
16390
1394
21851
14529
3066
11729
5563
21777
22202
7775
19697
9717
3039
23750
20076
11797
10759
26134
12464
22625
7561
11660
2577
12776
20351
20070
9189
17421
3313
20075
25554
8674
16024
23952
3837
1657
25621
14900
16559
379
7509
4040
17838
12285
8043
22351
11250
11175
6204
23833
19129
24554
7348
2944
19295
10484
15142
15349
21055
7641
19402
7935
18555
8164
18141
13483
10747
3223
26136
2933
11157
14322
3048
6457
3428
24622
20148
14589
7276
2893
15449
18120
6488
2368
1777
5537
13894
9478
8364
17716
11118
6578
7230
3169
19344
11265
6487
18671
7410
3779
22431
18349
2330
2655
24635
14874
3671
18368
22345
19780
19930
15458
6476
25060
14890
2037
6664
17165
5156
23167
2956
18591
22120
17832
22364
3530
2959
13193
3459
21547
5229
14903
11129
22689
4076
19413
4166
18041
10441
10907
25127
26179
18157
23438
9812
25068
13964
16282
13036
12437
18151
20053
3874
23203
25112
25673
950
18663
25872
14153
22350
15575
16919
4856
11278
10326
22791
21216
16665
7663
10860
18006
25890
343
2440
24313
22429
24773
21797
20799
6843
19458
13482
20192
19925
25817
16773
10827
1306
23433
390
7298
1187
6473
21794
23181
5192
1328
7172
10262
19825
2861
9535
22329
3589
5675
22812
24146
3162
25319
7311
18677
7986
6881
7332
12148
23188
19165
15813
15037
1424
24808
23407
25690
14701
6292
14595
4459
12140
26149
14919
25058
2000
3582
21610
18778
3164
10850
19346
7060
10359
12536
3149
16845
14485
10948
10443
18650
6759
11205
22240
14419
23658
23490
7733
13874
14225
2341
2637
9427
5790
19759
22124
22485
23416
17785
9252
13250
16415
22949
9764
8687
10110
12777
12668
6823
1640
17593
11461
14189
22419
570
3255
23884
16108
21062
25083
5355
7710
12524
1510
21256
23736
11840
6300
4162
8840
4689
3436
15398
11973
11445
20342
25751
13351
7633
20672
19654
17875
24436
21112
23457
25486
3556
7742
26105
10967
16321
15397
26135
7560
13632
7884
24927
20180
5722
7774
16742
13919
5438
9889
25728
6409
1235
22213
21684
23927
14885
9738
20689
11705
24776
7541
10201
20193
4164
15885
25258
6345
25216
15645
7528
16119
14910
6676
20797
20137
20559
2589
12366
16009
20853
12451
12790
10061
16049
23101
15854
17685
19453
22628
14928
6903
3386
10665
20750
23119
17625
18072
22948
14125
6859
25887
22181
19725
16694
7508
15562
3507
12420
13083
16614
8574
15048
10487
13745
6535
19437
4271
16162
22336
14108
12055
10713
3955
14855
12015
14597
2669
22009
25135
18405
2307
15276
15456
20985
17369
3617
903
11275
22378
19476
11026
13043
15940
3765
4467
14074
14647
15876
18592
15390
18974
25907
5101
24246
9810
22423
20025
4745
14483
13176
11336
8873
20273
19813
17148
8457
7995
11326
7755
16434
18599
12526
16088
15950
1994
21986
13873
24035
24474
18807
22825
14474
25005
1045
13875
20551
16039
13907
8424
18466
15258
9072
20291
2344
7245
2076
22121
8602
1665
23713
23431
2926
25818
19752
10218
12871
18774
14977
4382
3357
14469
10607
21306
13674
13403
21995
8076
1146
19912
24528
22898
3828
1662
24526
9793
3529
22758
14377
3924
2175
19113
3973
10883
24603
17987
17969
17948
24530
20355
15459
18193
23440
15085
24098
14473
16993
13373
7220
14761
1705
9428
17060
18464
21927
8797
24536
15549
15402
11119
3453
3198
11657
20706
7821
9276
24541
1473
19482
1921
885
11691
5922
21343
1670
25757
25707
24084
7918
7033
24343
21058
24959
5483
25606
10554
4316
24034
25663
2444
25368
18400
7056
7524
13638
17889
10656
16043
21997
4288
1540
11896
6037
14575
15965
3518
12619
8093
10031
25619
23232
18184
13851
18845
14905
17707
16325
10347
5138
14163
10892
15143
8018
10478
18737
24059
15624
12836
19143
11977
25880
17326
14573
22505
10325
14640
17422
23866
4061
1775
17541
1402
638
14415
4706
20478
15775
21429
4729
22671
17167
15812
8308
12934
5252
9888
21361
10625
2045
23356
16929
19938
25128
3653
14636
1850
24645
21120
20603
14909
14379
25781
10323
14879
10984
15031
12930
19054
16599
15284
872
475
24807
11462
21178
21307
16926
558
24075
15240
9218
6089
8179
14853
5256
18495
7416
22633
15542
25282
3691
4738
20998
22169
7615
8227
7992
10834
25700
13173
2998
2197
8165
25609
6992
23346
15308
11073
1329
24690
11448
2488
7454
19889
17132
17620
20639
16299
21680
6940
9184
11544
3884
12404
1965
25699
17750
18768
8264
20842
14091
20159
2909
5682
14076
14625
3993
7722
11816
20328
11173
12878
11048
9675
14500
1291
22270
20613
5940
16274
21437
14981
14873
21659
8272
7193
10631
10809
1579
8838
12180
18205
25422
1202
5869
9899
12663
14487
11277
14318
7363
12821
22314
7817
18384
895
4181
22244
6970
19189
10698
11272
11968
7047
20211
1236
7419
10517
14370
17523
2339
12309
18932
21388
454
26075
25437
21502
15833
17693
19726
3043
14382
3661
22256
7398
10309
15250
20708
5705
24322
12912
11202
7415
3445
11621
6947
16455
21884
13726
13136
25870
20121
19024
11823
6110
19848
24887
9859
22630
4097
24734
14745
24077
13815
18315
711
5556
5925
16202
19291
9678
1278
22709
3310
3512
18318
8802
8685
18775
11146
17596
22796
11239
3520
4212
23118
13556
25835
14381
19659
8709
9759
17862
15268
1982
5140
21260
3168
18987
22864
15472
24371
10769
22504
21279
4516
23907
9479
15850
19694
10627
19132
3660
3333
18319
15688
5244
1335
11184
11294
7947
15804
6754
7477
14520
683
20016
25230
7248
19903
21292
14425
3132
3864
19134
22973
8974
25426
13054
26199
18802
22939
4434
8125
24392
22913
5523
19533
3561
6668
18503
12232
519
17636
26126
7264
23104
22178
7344
18087
3304
16248
11950
7646
3519
18257
6729
9251
21064
12497
12012
4895
10987
6214
10830
3925
14857
14950
5750
22347
16794
8241
2991
4454
453
9200
18450
16454
22150
18626
14598
12078
402
18446
8211
22507
16516
22692
23605
11508
23122
23031
13341
15075
19851
13122
20226
10791
1032
14954
1324
4268
11780
9004
13130
15620
4185
19115
6695
6890
17946
11436
24655
16513
10921
18494
5188
5826
19167
18389
5726
16782
4017
14341
11534
9686
11541
8061
12531
753
2811
22087
6306
15147
8413
10808
12051
19820
19200
18917
13854
11783
5386
7967
22815
8350
1456
10878
7319
13949
14536
21466
16393
22905
24582
7091
8815
1995
20540
20858
20283
11956
365
2946
6679
24329
20541
21826
21017
14451
5666
8351
10222
3732
25784
17649
24485
23075
15601
8205
3788
3237
12143
15011
18942
24336
2978
23517
24089
7250
11267
22414
6419
25042
4063
2897
16607
22335
14750
15694
11993
23689
3108
11959
18378
17853
7433
18383
18833
14424
25897
20389
26066
512
19760
13903
3701
25155
11493
2725
5963
21597
17302
19676
26169
23597
24722
19065
12369
2898
25032
14821
23946
14001
23377
7304
6954
5994
20383
24045
3538
22189
10770
21688
17982
18519
3927
11171
954
6067
3321
10573
17228
3268
16724
18498
15359
19456
20645
26158
12214
10338
2514
7661
19223
24914
1601
23236
24509
20111
3543
25616
25752
9808
5645
4955
14939
5382
24980
18512
22418
21646
18880
10149
6626
11320
19405
16255
21786
6904
17965
19806
20890
22963
10653
7171
20670
21644
8847
8029
24717
4954
7952
9934
17489
17709
13901
10542
6444
11444
21005
1205
4134
16267
3595
12279
14868
21071
16939
8865
3378
17546
14568
23386
16375
22945
19398
3613
15244
11434
22699
18653
14312
2342
18412
20008
14600
17865
14658
15002
3167
25593
850
19855
22532
10778
2910
18408
2277
13410
16259
26037
11041
25905
7003
11887
2995
16064
15655
17712
6055
22679
19241
19922
3126
3041
26091
13234
4599
19719
6402
15263
1465
18095
20676
10400
9820
22842
8348
10996
19205
13486
26176
23869
19203
15150
19221
5539
22564
13948
9815
10913
20235
18339
1941
14799
10972
7519
23994
9667
16079
16679
8588
20942
24138
15981
5086
21004
14637
19586
23662
22706
7932
10669
19942
15702
17661
10378
3364
11380
1592
15837
5314
25187
14716
3722
12223
1494
8322
21265
3141
902
5663
14776
24579
4617
6124
17495
5938
7123
10894
18049
25361
11927
15545
18433
15236
6479
11053
4354
9713
12557
19354
18587
11167
19211
19343
26174
12026
1656
16889
10106
10790
2742
21479
19245
16843
8312
25991
16682
3290
10471
20606
3904
16164
15555
17096
18651
17579
16377
8464
5118
25581
2729
21555
21494
1391
18371
10602
26165
16505
19940
409
8100
23028
3077
11638
23654
15186
23361
4806
14100
14560
6747
8483
16383
10553
1772
18547
4671
8692
8998
11594
15466
6158
18204
15924
7117
11214
20218
18659
22334
11987
11181
9404
1305
25715
6907
14986
22382
22798
16770
398
4495
2510
19835
4673
18470
18634
11168
19636
3072
10425
23496
25173
9358
20544
21548
17535
7583
23767
6456
14943
14037
11201
10806
13595
19318
5659
6924
22530
22512
14588
26132
13212
6605
20656
11230
18900
21739
16668
11274
7039
1447
19156
5095
18192
9492
19583
10118
1002
11629
13975
16314
15437
9507
15423
17910
17479
24412
10933
11394
8398
12706
16268
5605
19740
11387
12302
12866
24342
13974
24820
26060
17362
16087
15134
7275
15558
8403
10060
3447
7166
21244
11056
7028
7252
18632
12225
21937
7042
21223
14796
7335
21109
24923
18321
15327
20941
12991
19243
6736
10571
10578
7432
1855
11741
10849
22022
1760
12064
10595
25612
3240
6592
7864
1699
23390
2716
25807
6226
4325
11774
9928
9720
14132
8972
23326
2905
11794
4206
14070
6151
649
24575
22084
26188
1873
19284
19881
19380
25418
511
18226
13189
20584
1956
17897
19628
14422
1953
7109
22313
12238
3984
9227
4274
14089
12061
13469
25166
5058
14209
5477
7198
20093
2031
21433
7866
22967
11080
15416
18781
14459
23053
25221
8259
20453
13988
22862
24611
18481
20461
24691
7115
11219
7102
20578
20987
6920
14884
1931
21650
22788
6395
14564
15636
19950
9006
14165
923
16431
6666
21869
7682
10410
12173
22524
20881
11103
22621
14818
15553
1063
15120
21423
17614
16005
10807
23475
20819
5763
19653
1340
23038
23547
14057
8262
16743
25868
5560
19073
19561
22373
6005
24937
17490
26141
15303
19421
20905
11012
8200
7300
23877
22093
7364
3160
3350
9570
3125
18827
16618
8477
6921
14302
4896
19573
15656
19947
19434
14378
18600
16617
20117
14116
8033
21835
11771
994
18564
21422
15478
16424
12475
15196
15984
14908
7959
14550
16630
7569
23572
19634
19741
22315
13467
24858
9587
2660
8433
21387
7354
24190
25095
8642
16385
8989
7086
19602
9719
18851