/*--------------------------------*- C++ -*----------------------------------*\
| =========                 |                                                 |
| \\      /  F ield         | OpenFOAM: The Open Source CFD Toolbox           |
|  \\    /   O peration     | Version:  2.4.0                                 |
|   \\  /    A nd           | Web:      www.OpenFOAM.org                      |
|    \\/     M anipulation  |                                                 |
\*---------------------------------------------------------------------------*/
FoamFile
{
    version     2.0;
    format      ascii;
    class       vectorField;
    location    "0.01/lagrangian/defaultCloud";
    object      U;
}
// * * * * * * * * * * * * * * * * * * * * * * * * * * * * * * * * * * * * * //

9((0.867332 0.00593784 -0.00949784) (0.848138 0.0102549 -0.00210014) (0.88846 0.00712954 0.0052249) (0.864576 0.00923839 0.00871252) (0.890708 0.00108228 -0.000443127) (0.907001 0.00900753 0.00130452) (0.879575 0.0267761 0.00444306) (0.860311 0.0189114 0.000737763) (0.866571 -0.00268989 -0.00102553))

// ************************************************************************* //
