/*--------------------------------*- C++ -*----------------------------------*\
| =========                 |                                                 |
| \\      /  F ield         | OpenFOAM: The Open Source CFD Toolbox           |
|  \\    /   O peration     | Version:  2.4.0                                 |
|   \\  /    A nd           | Web:      www.OpenFOAM.org                      |
|    \\/     M anipulation  |                                                 |
\*---------------------------------------------------------------------------*/
FoamFile
{
    version     2.0;
    format      ascii;
    class       volScalarField;
    location    "0.05";
    object      p;
}
// * * * * * * * * * * * * * * * * * * * * * * * * * * * * * * * * * * * * * //

dimensions      [1 -1 -2 0 0 0 0];

internalField   nonuniform List<scalar> 
200
(
2379.57
2342.01
952.542
407.506
-1828.78
-4023.44
-4982.74
-6839.43
-7468.09
-8664.56
5561.69
4566.52
4387.9
2075.11
-288.583
-1849.09
-4441.93
-5565.09
-7293.52
-8589.27
7659.04
8104.99
6185.02
4109.54
2218.93
-889.05
-2587.25
-5041.63
-6767.84
-8490.29
8306.19
7372.1
6014.36
4286.3
1597.46
-70.7442
-2701.13
-4776.59
-6454.84
-8669.7
1362.57
-84.2246
-843.384
-2755.54
-4905.48
-6046.18
-8709.66
-9883.99
-11605.9
-12517.9
4073.45
3673.29
1668.91
-318.105
-1825.66
-5073.65
-6735.54
-9381.09
-11042.1
-12441.7
7717.03
6179.52
4830.85
3268.34
-189.004
-2223.86
-5814.91
-8150.26
-10978.7
-12930.6
8040.59
7179.36
5810.47
3407.97
1651.45
-1339.85
-3869.52
-6568.69
-9519.88
-11593.7
871.709
195.889
-2193.37
-4078.47
-5745.44
-8693.51
-9883.01
-12343.2
-13253.6
-14336.6
5448.82
2990.26
1258.49
-861.541
-4270.37
-5976.02
-9281.41
-10671.5
-12719.7
-14424.3
8037.94
6971.09
4810.18
1320.93
-906.522
-5095.47
-7117.61
-10485.9
-12431.7
-14188.9
9277.45
7581.67
5409.62
3644.12
372.522
-1918.84
-5225.5
-8118.23
-10699.4
-13302.3
1855.24
-749.421
-2390.87
-5294.16
-8360.8
-10149.3
-12932
-13942.2
-15614
-16896.6
4334.88
2998.12
-257.331
-3645.08
-6095.24
-9725.99
-11203
-13595.3
-15062.5
-16087.3
8312.74
5410.55
2248.2
-668.659
-5179.73
-7473.36
-11008.9
-12631.4
-14582.9
-16599.6
8017.3
6409.36
4188.48
1017
-1600.25
-5261.83
-8257.67
-10930.4
-13550.3
-15123.9
2651.38
1323.31
-1906.11
-4923.63
-7437.44
-10767.9
-11774.4
-13651.1
-14410.4
-15955.4
5891.23
2818.32
-105.724
-3136.34
-7315
-9276.45
-11981
-12800.9
-14419.9
-16114.4
7637.83
5502.36
2241.42
-2004.12
-5016.21
-8738.43
-10784.4
-12685.3
-14564.3
-15779.5
8608.7
6387.49
3502.03
691.88
-2879.11
-5992.93
-8622.24
-11666.4
-13046.5
-15226.7
)
;

boundaryField
{
    inlet
    {
        type            zeroGradient;
    }
    outlet
    {
        type            fixedValue;
        value           nonuniform 0();
    }
    bottom
    {
        type            zeroGradient;
    }
    top
    {
        type            symmetryPlane;
    }
    side1
    {
        type            symmetryPlane;
    }
    side2
    {
        type            symmetryPlane;
    }
    procBoundary27to19
    {
        type            processor;
        value           nonuniform List<scalar> 
50
(
986.134
-746.806
-552.075
-2102.22
-2673.8
-4510.46
-6317.05
-6769.59
-8130.86
-8604.54
-1717.68
-2072.52
-3710.55
-4534.9
-6122.27
-8166.07
-8922.42
-10981.7
-11586.2
-12629
-2088.91
-3641.21
-4288.4
-6327.83
-8112.24
-9392.11
-11828.8
-12554.1
-14337.4
-14924.3
-2454.31
-2694.41
-5180.36
-6738.98
-9137.66
-11713.2
-13016.5
-15140.7
-15873.2
-17133.3
1831.56
-1234.83
-2675.25
-5740.15
-8367.24
-10198.2
-12562.4
-13150
-14811.3
-15797.2
)
;
    }
    procBoundary27to26
    {
        type            processor;
        value           nonuniform List<scalar> 
20
(
3998.66
5787.05
8447.73
8303.06
1858.8
5021.8
7621.54
8689.95
2393.53
5951.33
9916.42
10358.1
2097.4
6590.37
8723.85
9824.52
5288.15
6489.56
9844.84
9307.14
)
;
    }
    procBoundary27to28
    {
        type            processor;
        value           nonuniform List<scalar> 
20
(
-9921.75
-9769.5
-10400.7
-10076.7
-13051
-14096
-14630.8
-14113.4
-15798.4
-15006.7
-16132.5
-15136.2
-17272.4
-18249.6
-17452.9
-17119.1
-17834.6
-17354.3
-17685.2
-15956.5
)
;
    }
}


// ************************************************************************* //
