/*--------------------------------*- C++ -*----------------------------------*\
| =========                 |                                                 |
| \\      /  F ield         | OpenFOAM: The Open Source CFD Toolbox           |
|  \\    /   O peration     | Version:  2.4.0                                 |
|   \\  /    A nd           | Web:      www.OpenFOAM.org                      |
|    \\/     M anipulation  |                                                 |
\*---------------------------------------------------------------------------*/
FoamFile
{
    version     2.0;
    format      ascii;
    class       volVectorField;
    location    "0.05";
    object      Ua;
}
// * * * * * * * * * * * * * * * * * * * * * * * * * * * * * * * * * * * * * //

dimensions      [0 1 -1 0 0 0 0];

internalField   nonuniform List<vector> 
200
(
(34.2454 9.67815 4.37296)
(34.2454 9.67816 4.37296)
(34.2454 9.67815 4.37296)
(34.2452 9.67805 4.37298)
(34.0699 9.47864 4.43563)
(33.559 8.89746 4.61821)
(32.5883 7.80182 4.94842)
(13.7689 1.22754 -17.2459)
(5.15556 -1.2195 -28.4996)
(5.15224 -1.22029 -28.5043)
(34.2455 9.67818 4.37297)
(34.2455 9.67819 4.37297)
(34.2452 9.67784 4.37308)
(33.3388 8.64677 4.69702)
(9.79323 -18.1373 13.1121)
(9.60533 -18.3509 13.1791)
(9.51529 -18.2221 12.7605)
(5.27182 -1.69122 -27.3636)
(5.15162 -1.22058 -28.5048)
(5.15158 -1.22043 -28.5052)
(34.2455 9.67819 4.37298)
(34.2455 9.6782 4.37298)
(34.2448 9.67734 4.37325)
(32.4966 7.6888 4.998)
(9.69102 -18.2532 13.1481)
(9.45116 -17.9206 12.0533)
(5.19746 -1.40008 -28.0696)
(5.15158 -1.22042 -28.5052)
(5.15157 -1.22037 -28.5053)
(5.15157 -1.22037 -28.5053)
(34.2455 9.62728 4.37298)
(34.2455 9.63235 4.37298)
(34.2441 9.62571 4.37347)
(31.7101 6.75842 5.27908)
(9.65917 -18.1608 13.1586)
(9.30419 -17.2653 10.7645)
(5.17684 -1.30465 -28.2649)
(5.15157 -1.2076 -28.5053)
(5.15157 -1.20884 -28.5053)
(5.15158 -1.20757 -28.5053)
(34.2453 9.67814 4.37295)
(34.2454 9.67815 4.37296)
(34.2414 9.67364 4.37437)
(26.0121 0.312525 7.31548)
(9.54002 -18.4253 13.2026)
(9.52549 -18.4418 13.2077)
(9.49919 -18.3553 12.9902)
(5.38416 -2.13741 -26.2847)
(5.15168 -1.2208 -28.5043)
(5.1516 -1.22048 -28.5051)
(34.2389 9.67069 4.37532)
(34.2244 9.65424 4.3805)
(17.7725 -9.06056 10.2604)
(9.52286 -18.4448 13.2087)
(9.5189 -18.4493 13.2102)
(9.51889 -18.4493 13.2101)
(9.47783 -18.2873 12.8179)
(5.25935 -1.64555 -27.4759)
(5.15161 -1.22052 -28.505)
(5.15158 -1.22041 -28.5052)
(34.2294 9.6599 4.37872)
(34.193 9.61843 4.39175)
(14.4735 -12.8132 11.4393)
(9.52136 -18.4465 13.2092)
(9.51886 -18.4492 13.2098)
(9.41111 -18.0241 12.1807)
(5.19263 -1.38236 -28.1131)
(5.15158 -1.22041 -28.5052)
(5.15157 -1.22037 -28.5053)
(5.15157 -1.22037 -28.5053)
(34.2166 9.58952 4.38333)
(34.1493 9.51859 4.40738)
(13.0563 -14.3115 11.9458)
(9.52087 -18.3176 13.2092)
(9.51878 -18.3325 13.2091)
(9.28591 -17.4071 10.9849)
(5.17444 -1.29714 -28.2868)
(5.15157 -1.20887 -28.5053)
(5.15157 -1.21011 -28.5053)
(5.15157 -1.20884 -28.5053)
(34.1592 9.58023 4.40371)
(33.9721 9.36734 4.4706)
(10.4288 -17.4143 12.885)
(9.5192 -18.449 13.2101)
(9.5189 -18.4493 13.2102)
(9.51889 -18.4493 13.2101)
(9.49826 -18.3679 13.0131)
(5.36193 -2.05023 -26.4961)
(5.15165 -1.22068 -28.5046)
(5.15159 -1.22046 -28.5051)
(10.2079 -17.6656 12.9639)
(9.69491 -18.2491 13.1473)
(9.51897 -18.4493 13.2101)
(9.5189 -18.4493 13.2102)
(9.5189 -18.4493 13.2102)
(9.51889 -18.4493 13.2101)
(9.48236 -18.3052 12.8612)
(5.24764 -1.59937 -27.5877)
(5.1516 -1.22048 -28.5051)
(5.15158 -1.2204 -28.5053)
(9.86836 -18.0518 13.0852)
(9.60724 -18.3488 13.1786)
(9.51893 -18.4493 13.2101)
(9.51889 -18.4493 13.2101)
(9.51887 -18.4492 13.2099)
(9.42282 -18.0703 12.2925)
(5.18811 -1.36451 -28.1563)
(5.15157 -1.2204 -28.5053)
(5.15157 -1.22037 -28.5053)
(5.15157 -1.22037 -28.5053)
(9.75281 -18.0303 13.1266)
(9.57782 -18.2406 13.1891)
(9.51891 -18.32 13.2101)
(9.51887 -18.3329 13.21)
(9.51882 -18.3455 13.2094)
(9.30812 -17.5064 11.1969)
(5.17217 -1.28957 -28.3085)
(5.15157 -1.21014 -28.5053)
(5.15157 -1.21139 -28.5053)
(5.15157 -1.21012 -28.5053)
(33.9281 9.32092 4.48102)
(33.251 8.54708 4.72831)
(9.82978 -18.0957 13.099)
(9.51902 -18.4492 13.2101)
(9.5189 -18.4493 13.2102)
(9.51888 -18.4493 13.2101)
(9.49597 -18.3589 12.9913)
(5.38403 -2.13745 -26.2848)
(5.15167 -1.2208 -28.5043)
(5.15161 -1.22049 -28.5051)
(9.75286 -18.1831 13.1265)
(9.57784 -18.3823 13.1891)
(9.51892 -18.4493 13.2102)
(9.5189 -18.4493 13.2102)
(9.5189 -18.4493 13.2102)
(9.51889 -18.4493 13.2101)
(9.47783 -18.2873 12.8179)
(5.25934 -1.64555 -27.4759)
(5.15161 -1.22052 -28.505)
(5.15158 -1.22041 -28.5052)
(9.63648 -18.3156 13.1681)
(9.5484 -18.4157 13.1996)
(9.51889 -18.4493 13.2101)
(9.51888 -18.4493 13.2101)
(9.51886 -18.4492 13.2098)
(9.41112 -18.0242 12.1807)
(5.19263 -1.38236 -28.1131)
(5.15158 -1.22041 -28.5052)
(5.15157 -1.22037 -28.5053)
(5.15157 -1.22037 -28.5053)
(9.5993 -18.1967 13.1821)
(9.5385 -18.272 13.2031)
(9.51888 -18.3071 13.21)
(9.51885 -18.3199 13.2099)
(9.51879 -18.3325 13.2091)
(9.28592 -17.4071 10.9849)
(5.17444 -1.29714 -28.2868)
(5.15157 -1.20887 -28.5053)
(5.15157 -1.21011 -28.5053)
(5.15157 -1.20884 -28.5053)
(33.4849 8.83123 4.60881)
(31.9468 7.06352 5.18383)
(9.67521 -18.2715 13.1146)
(9.51896 -18.4492 13.1739)
(9.51889 -18.4493 13.1775)
(9.51887 -18.4493 13.1738)
(9.49369 -18.3499 12.9305)
(5.40593 -2.22387 -25.9972)
(5.1517 -1.22094 -28.4258)
(5.15164 -1.22053 -28.419)
(9.63634 -18.3157 13.1247)
(9.54837 -18.4157 13.1598)
(9.5189 -18.4493 13.1739)
(9.51889 -18.4493 13.1775)
(9.5189 -18.4493 13.1812)
(9.51888 -18.4493 13.1774)
(9.47331 -18.2695 12.7398)
(5.27099 -1.69153 -27.2896)
(5.15162 -1.22058 -28.4344)
(5.15159 -1.22043 -28.427)
(9.57973 -18.3861 13.1421)
(9.53359 -18.4324 13.1614)
(9.51888 -18.4493 13.1703)
(9.51887 -18.4493 13.1738)
(9.51884 -18.4491 13.177)
(9.39946 -17.9782 12.0365)
(5.19714 -1.4002 -27.993)
(5.15158 -1.22042 -28.4348)
(5.15157 -1.22037 -28.4428)
(5.15157 -1.22037 -28.435)
(9.56928 -18.2456 13.1455)
(9.53065 -18.274 13.1596)
(9.51888 -18.2942 13.1665)
(9.51884 -18.307 13.1699)
(9.51875 -18.3195 13.1725)
(9.26393 -17.3087 10.7427)
(5.17671 -1.3047 -28.1798)
(5.15157 -1.2076 -28.427)
(5.15157 -1.20884 -28.4349)
(5.15157 -1.20756 -28.4271)
)
;

boundaryField
{
    inlet
    {
        type            calculated;
        value           nonuniform 0();
    }
    outlet
    {
        type            calculated;
        value           nonuniform 0();
    }
    bottom
    {
        type            calculated;
        value           uniform (0 0 0);
    }
    top
    {
        type            symmetryPlane;
    }
    side1
    {
        type            symmetryPlane;
    }
    side2
    {
        type            symmetryPlane;
    }
    procBoundary27to19
    {
        type            processor;
        value           nonuniform List<vector> 
50
(
(29.2999 8.28051 3.74143)
(28.4761 8.0477 3.63626)
(29.2997 8.28045 3.74143)
(29.9177 8.45505 3.82037)
(30.3241 8.49473 3.91495)
(30.4838 8.31765 4.06143)
(30.3519 7.84963 4.28416)
(20.0881 3.76648 -8.5264)
(5.16543 -1.21624 -28.4859)
(5.15411 -1.21988 -28.5023)
(29.9174 8.45502 3.82026)
(29.2994 8.28036 3.74139)
(29.915 8.45223 3.82121)
(26.2278 3.19034 5.74475)
(9.5642 -18.3913 13.1904)
(9.53297 -18.4315 13.2041)
(9.50872 -18.3741 13.0467)
(5.52294 -2.68276 -24.9659)
(5.15175 -1.22121 -28.5033)
(5.15182 -1.22064 -28.505)
(30.3539 8.53334 3.90153)
(29.776 8.26852 3.88542)
(11.0012 -16.5294 12.5479)
(9.51949 -18.4484 13.2099)
(9.51885 -18.4493 13.2102)
(9.51883 -18.4492 13.2101)
(9.50356 -18.3889 13.064)
(5.49119 -2.56031 -25.261)
(5.1517 -1.221 -28.5038)
(5.15173 -1.22057 -28.505)
(24.664 5.11897 5.86452)
(29.8637 7.90851 4.11881)
(10.047 -17.7751 12.9798)
(9.51915 -18.449 13.2101)
(9.51884 -18.4492 13.2102)
(9.51886 -18.4493 13.2101)
(9.50208 -18.383 13.0495)
(5.52231 -2.68284 -24.9645)
(5.15178 -1.22122 -28.5034)
(5.15171 -1.22061 -28.505)
(15.0374 -0.465294 8.92288)
(29.4938 7.09469 4.47667)
(9.79788 -18.1218 13.0512)
(9.51889 -18.4488 13.1704)
(9.51887 -18.4493 13.1739)
(9.51891 -18.4494 13.1703)
(9.50071 -18.3773 12.9925)
(5.55713 -2.80575 -24.5885)
(5.15177 -1.22146 -28.4169)
(5.15503 -1.22145 -28.4113)
)
;
    }
    procBoundary27to26
    {
        type            processor;
        value           nonuniform List<vector> 
20
(
(34.2453 9.67815 4.37295)
(34.2455 9.67819 4.37297)
(34.2458 9.67826 4.37298)
(34.2461 9.62236 4.373)
(34.2454 9.67816 4.37295)
(34.2425 9.67459 4.37413)
(34.2383 9.66957 4.37576)
(34.2328 9.60196 4.3779)
(34.2032 9.6302 4.38785)
(11.1722 -16.5686 12.6193)
(10.3745 -17.4765 12.9045)
(10.1147 -17.665 13.0039)
(18.5581 4.2815 -8.99806)
(9.88112 -17.4686 12.2131)
(9.71384 -17.9682 12.6662)
(9.68923 -18.024 12.8211)
(7.18155 0.41996 -18.6709)
(9.38073 -17.4395 11.3661)
(9.47767 -17.9914 12.1662)
(9.5543 -18.0737 12.4392)
)
;
    }
    procBoundary27to28
    {
        type            processor;
        value           nonuniform List<vector> 
20
(
(5.15191 -1.2204 -28.5052)
(5.15166 -1.22041 -28.5054)
(5.15161 -1.22038 -28.5054)
(5.15155 -1.20629 -28.5056)
(5.15167 -1.22044 -28.5054)
(5.15161 -1.2204 -28.5054)
(5.15157 -1.22037 -28.5053)
(5.15162 -1.20758 -28.5054)
(5.15162 -1.22042 -28.5053)
(5.15158 -1.22039 -28.5053)
(5.15157 -1.22037 -28.5053)
(5.15157 -1.20884 -28.5053)
(5.15157 -1.22042 -28.5055)
(5.15162 -1.2204 -28.5054)
(5.15157 -1.22037 -28.5053)
(5.15159 -1.20757 -28.5053)
(5.15599 -1.22147 -28.4118)
(5.15168 -1.22042 -28.4195)
(5.15159 -1.22037 -28.4272)
(5.1516 -1.2063 -28.4193)
)
;
    }
}


// ************************************************************************* //
