/*--------------------------------*- C++ -*----------------------------------*\
| =========                 |                                                 |
| \\      /  F ield         | OpenFOAM: The Open Source CFD Toolbox           |
|  \\    /   O peration     | Version:  2.4.0                                 |
|   \\  /    A nd           | Web:      www.OpenFOAM.org                      |
|    \\/     M anipulation  |                                                 |
\*---------------------------------------------------------------------------*/
FoamFile
{
    version     2.0;
    format      ascii;
    class       volVectorField;
    location    "0.05";
    object      Ub;
}
// * * * * * * * * * * * * * * * * * * * * * * * * * * * * * * * * * * * * * //

dimensions      [0 1 -1 0 0 0 0];

internalField   nonuniform List<vector> 
200
(
(-60.3107 -198.093 -37.3937)
(-65.055 -22.4136 -97.9024)
(-31.319 -235.762 -30.0112)
(-36.8535 37.8034 -147.637)
(-1.37286 -283.751 40.4771)
(-52.959 61.1526 -97.0503)
(1.73559 -215.616 24.0075)
(-93.5461 21.4732 -4.13874)
(-20.6299 -135.352 9.89495)
(-146.357 37.0773 46.6253)
(-63.8651 1.3289 -89.6491)
(-38.6377 -209.97 -43.9021)
(-36.1346 55.8415 -150.371)
(-11.1339 -273.637 26.2236)
(-49.1628 88.9204 -109.267)
(-3.75775 -226.217 18.0805)
(-87.7034 42.9356 -16.2418)
(-17.2627 -144.061 -5.50427)
(-139.129 42.8261 41.5964)
(-49.8855 -115.832 18.7743)
(-40.6379 -169.998 -53.2384)
(-36.9651 80.8728 -146.224)
(-21.6979 -246.199 8.05132)
(-48.8214 125.73 -118.68)
(-15.0006 -225.472 10.0709)
(-87.6391 74.4003 -28.5997)
(-22.5766 -146.098 -20.3881)
(-137.151 53.8196 34.4056)
(-48.4743 -119.074 0.0722998)
(-182.235 83.5066 36.9907)
(-32.2633 98.8251 -131.101)
(-28.6572 -213.166 -13.5785)
(-48.832 157.762 -122.535)
(-32.3973 -221.206 -1.35109)
(-96.1187 114.877 -41.0245)
(-41.6763 -144.162 -35.152)
(-149.758 72.7033 23.9402)
(-64.6523 -110.93 -23.7473)
(-186.699 85.6742 29.2899)
(-91.6998 -115.878 -7.41577)
(-9.07536 -45.6694 -74.6197)
(-10.1446 -225.297 -49.0698)
(-15.1815 26.7994 -158.542)
(-22.1149 -314.701 46.1737)
(-63.9723 79.2894 -93.6079)
(-32.2513 -255.222 48.5299)
(-124.468 37.8553 32.5392)
(-54.1907 -141.14 47.9523)
(-163.244 26.4875 59.6734)
(-82.0883 -77.9334 59.9393)
(-4.69418 -185.982 -55.9691)
(-15.8605 35.4428 -153.179)
(-29.975 -294.191 26.7692)
(-64.1415 103.253 -112.962)
(-44.6087 -266.125 34.4556)
(-129.776 57.6883 15.6814)
(-61.9674 -160.312 18.0795)
(-177.201 38.2296 66.7878)
(-86.3175 -83.5006 51.1379)
(-199.06 64.6707 54.004)
(-15.7875 47.8602 -128.085)
(-33.7461 -251.689 3.20111)
(-63.8086 134.807 -126.342)
(-59.3406 -263.568 20.4817)
(-137.256 90.8465 -5.34718)
(-78.4167 -168.403 -14.2702)
(-196.814 50.7538 66.5156)
(-100.558 -103.941 18.7859)
(-219.86 61.7264 61.3014)
(-110.762 -77.5551 38.7741)
(-22.5216 -187.789 -20.5903)
(-56.404 158.844 -128.095)
(-74.6483 -250.803 3.61755)
(-147.893 137.354 -29.3744)
(-108.293 -163.217 -44.2748)
(-226.748 79.0067 49.9815)
(-137.411 -100.279 -41.0682)
(-263.229 57.9615 52.8467)
(-156.108 -68.0819 -18.4897)
(-258.704 71.6313 28.1496)
(-5.67809 -210.147 -52.6811)
(-13.885 5.1518 -160.563)
(-34.238 -320.935 41.3037)
(-62.6761 91.2072 -116.573)
(-46.6531 -296.901 46.119)
(-125.872 63.7307 33.8384)
(-63.6062 -176.316 45.9185)
(-158.343 29.5435 68.663)
(-89.9598 -79.4236 69.4538)
(-180.36 30.2256 45.9976)
(-17.8507 12.633 -145.111)
(-40.6254 -289.932 22.5652)
(-65.427 110.436 -132.929)
(-61.2099 -302.742 35.1762)
(-135.801 85.883 16.7392)
(-78.8995 -188.814 14.8098)
(-179.918 41.9805 69.2082)
(-104.941 -88.3055 47.2528)
(-204.153 46.6553 56.2057)
(-121.584 -29.5514 59.4279)
(-42.7611 -237.981 0.990874)
(-67.5089 136.097 -140.512)
(-77.5755 -294.479 23.5619)
(-146.836 120.815 -5.97166)
(-100.224 -196.895 -19.8417)
(-206.726 61.0889 69.8535)
(-127.098 -100.453 5.94781)
(-235.858 47.7339 61.8279)
(-140.979 -53.0547 37.6659)
(-236.048 64.6178 28.3684)
(-60.9223 154.32 -134.642)
(-93.6965 -271.761 7.47539)
(-160.514 167.102 -31.1392)
(-134.683 -193.47 -50.64)
(-244.537 103.042 61.5022)
(-163.845 -95.0222 -60.1708)
(-283.765 60.6551 54.0137)
(-186.896 -45.7812 -43.9739)
(-284.29 56.4685 19.9992)
(-192.315 -20.2376 -27.743)
(-22.4907 -11.2227 -144.162)
(-44.1391 -307.591 44.4938)
(-66.0312 99.1536 -136.912)
(-57.9552 -328.407 46.3919)
(-124.595 102.686 32.9072)
(-71.6164 -212.739 22.6243)
(-147.642 59.1191 81.6493)
(-88.5583 -108.335 54.0375)
(-160.473 36.4806 65.4653)
(-109.91 -40.9907 58.0823)
(-55.1895 -272.54 30.9545)
(-75.4802 114.353 -145.402)
(-78.2527 -328.998 42.0405)
(-141.042 123.363 16.8442)
(-93.478 -225.59 -1.74888)
(-173.656 72.7936 85.8906)
(-113.305 -106.653 31.9471)
(-189.422 46.3685 72.0879)
(-127.526 -37.3327 57.6187)
(-195.03 60.1545 32.7859)
(-84.6014 135.459 -144.794)
(-99.8749 -312.847 34.6169)
(-158.745 155.635 -4.53777)
(-122.197 -236.471 -27.1981)
(-207.197 93.3123 88.1165)
(-143.534 -111.266 -11.3605)
(-227.213 52.3397 81.1508)
(-156.998 -48.2343 29.8309)
(-231.986 53.0768 42.5804)
(-161.611 -11.908 35.4065)
(-120.735 -281.645 20.4164)
(-177.515 197.567 -26.5028)
(-163.55 -232.825 -45.7667)
(-255.096 136.077 81.9079)
(-190.556 -111.068 -69.8941)
(-284.849 78.3129 87.8099)
(-198.802 -37.601 -27.3506)
(-282.142 54.2607 49.7312)
(-202.903 -14.9096 -10.1698)
(-263.395 50.3697 16.4854)
(-47.0705 -276.765 50.5587)
(-86.8932 89.138 -144.707)
(-81.8523 -334.592 52.4742)
(-141.665 126.575 12.6036)
(-92.5271 -240.528 -11.2826)
(-146.429 98.5117 83.5462)
(-94.5864 -128.279 2.12357)
(-133.244 70.2847 85.1064)
(-81.6661 -65.3669 33.1584)
(-117.722 64.871 53.293)
(-102.287 102.165 -146.453)
(-107.393 -332.392 52.7516)
(-165.837 148.262 1.19617)
(-125.537 -257.887 -26.159)
(-181.463 109.153 86.9416)
(-133.468 -124.986 -25.2292)
(-170.144 83.0432 86.2255)
(-120.081 -55.2381 21.5754)
(-152.615 75.1697 57.5349)
(-105.6 -18.4619 31.7543)
(-131.299 -311.581 47.5423)
(-189.398 180.537 -13.0292)
(-163.31 -269.034 -37.4888)
(-223.415 130.871 89.3364)
(-179.005 -143.761 -68.2318)
(-231.104 84.6557 85.0028)
(-170.381 -56.913 -10.9144)
(-210.892 73.9569 54.8691)
(-153.792 -24.1002 16.9657)
(-182.745 73.8755 27.8875)
(-210.332 218.139 -24.6012)
(-205.96 -265.882 -42.9838)
(-273.025 181.11 83.5779)
(-235.944 -169.369 -102.688)
(-303.439 120.226 103.549)
(-236.128 -78.0964 -75.0679)
(-297.15 81.5931 64.2)
(-217.736 -35.5773 -27.784)
(-265.9 66.3959 34.9832)
(-197.249 -20.9475 -8.94733)
)
;

boundaryField
{
    inlet
    {
        type            fixedValue;
        value           nonuniform 0();
    }
    outlet
    {
        type            zeroGradient;
    }
    bottom
    {
        type            fixedValue;
        value           uniform (0 0 0);
    }
    top
    {
        type            symmetryPlane;
    }
    side1
    {
        type            symmetryPlane;
    }
    side2
    {
        type            symmetryPlane;
    }
    procBoundary27to19
    {
        type            processor;
        value           nonuniform List<vector> 
50
(
(-107.932 -34.6728 -33.5016)
(-57.1448 -210.411 -28.5379)
(-67.4949 -36.0303 -99.5922)
(-22.8108 -248.015 -14.8003)
(-40.2941 26.1308 -140.068)
(6.80302 -279.974 51.1932)
(-59.6501 40.9693 -81.9544)
(3.40453 -196.877 29.0315)
(-99.9179 7.05901 7.49263)
(-25.622 -123.001 24.1593)
(-4.93258 -200.116 -66.7106)
(-10.8598 -56.3795 -93.8647)
(-9.68876 -249.733 -37.2183)
(-15.2091 21.5919 -153.103)
(-12.1751 -319.191 60.7602)
(-64.0966 62.4225 -70.1505)
(-21.5287 -237.207 63.8102)
(-118.144 26.6413 40.4924)
(-49.5113 -120.599 68.579)
(-150.135 13.7307 53.2716)
(-7.26796 -81.3119 -78.7896)
(-8.37772 -242.469 -43.5861)
(-11.1741 2.81998 -164.463)
(-24.6333 -333.774 54.5324)
(-59.5837 75.9098 -94.6687)
(-32.2039 -282.682 58.4743)
(-113.884 50.3399 42.4106)
(-48.8347 -165.709 69.1135)
(-139.427 19.8668 68.8943)
(-76.1807 -77.0659 78.1811)
(-2.43002 -220.664 -45.3415)
(-13.8965 -15.4395 -154.869)
(-31.1731 -325.666 53.4251)
(-57.4845 87.5415 -121.368)
(-38.3636 -318.04 49.7521)
(-108.194 88.1782 41.0874)
(-51.5828 -204.745 40.2699)
(-126.368 50.0276 77.9539)
(-66.3088 -111.835 64.7912)
(-135.576 24.3658 63.6335)
(-15.7074 -27.4384 -85.3451)
(-29.0042 -296.242 55.1528)
(-71.328 77.7861 -135.75)
(-55.8004 -323.652 49.0727)
(-117.962 111.197 18.6315)
(-63.6722 -228.682 1.58903)
(-118.533 88.2006 78.6305)
(-60.5877 -140.631 14.9752)
(-105.328 60.2188 82.4069)
(-50.176 -79.3205 37.3842)
)
;
    }
    procBoundary27to26
    {
        type            processor;
        value           nonuniform List<vector> 
20
(
(-95.4846 -8.42723 -22.2272)
(-57.1049 -177.827 -39.9251)
(-59.1651 38.3646 -76.1165)
(-26.0154 -133.99 -54.6943)
(7.38626 -187.42 -44.4383)
(-10.768 -18.8046 -29.7635)
(11.3834 -136.19 -39.3495)
(-1.10274 50.7771 -41.2854)
(-13.1695 -65.1405 -52.4718)
(0.870654 -169.299 -58.5547)
(-24.0159 30.5667 -116.408)
(-34.2133 -174.131 -19.4274)
(-6.29148 -187.513 -48.7966)
(-33.9229 0.32942 -125.539)
(-63.7903 -219.77 15.9135)
(-85.3754 151.238 -131.579)
(-29.2148 -16.7107 -83.0834)
(-64.3667 -242.111 41.0141)
(-114.792 119.756 -139.023)
(-151.559 -278.029 33.4216)
)
;
    }
    procBoundary27to28
    {
        type            processor;
        value           nonuniform List<vector> 
20
(
(-58.9604 -105.964 29.7334)
(-185.479 78.7219 44.2765)
(-76.5748 -120.488 15.3127)
(-202.682 100.782 12.3394)
(-183.687 50.9415 46.767)
(-102.834 -57.8296 47.0838)
(-215.958 89.1326 34.9683)
(-156.914 -41.9417 -10.9862)
(-120.392 -35.5346 39.6988)
(-207.833 61.5841 13.5218)
(-148.631 -13.6924 27.1487)
(-256.905 58.9618 -7.77598)
(-169.697 47.4585 15.5794)
(-145.206 1.89356 34.3527)
(-215.95 65.4762 5.32439)
(-195.039 -0.799843 -11.8083)
(-79.9146 -26.8392 23.9877)
(-132.915 83.434 26.3621)
(-139.46 -4.19989 13.9292)
(-231.053 60.1867 17.4769)
)
;
    }
}


// ************************************************************************* //
