/*--------------------------------*- C++ -*----------------------------------*\
| =========                 |                                                 |
| \\      /  F ield         | OpenFOAM: The Open Source CFD Toolbox           |
|  \\    /   O peration     | Version:  2.4.0                                 |
|   \\  /    A nd           | Web:      www.OpenFOAM.org                      |
|    \\/     M anipulation  |                                                 |
\*---------------------------------------------------------------------------*/
FoamFile
{
    version     2.0;
    format      ascii;
    class       volScalarField;
    location    "0.05";
    object      alpha;
}
// * * * * * * * * * * * * * * * * * * * * * * * * * * * * * * * * * * * * * //

dimensions      [0 0 0 0 0 0 0];

internalField   nonuniform List<scalar> 
200
(
4.22503e-30
3.29622e-32
3.20181e-34
9.43648e-33
1.17705e-30
1.39505e-28
1.55617e-26
1.61386e-24
1.53025e-22
1.29554e-20
3.75421e-32
3.06224e-34
3.1992e-36
9.49561e-35
1.12718e-32
1.26865e-30
1.341e-28
1.31521e-26
1.17774e-24
9.41658e-23
5.79364e-31
6.08989e-33
7.52696e-35
1.64229e-36
7.50931e-35
8.08096e-33
8.15367e-31
7.61869e-29
6.48367e-27
4.90222e-25
5.4638e-29
1.22338e-30
2.19586e-32
3.33126e-34
4.82604e-36
4.0608e-35
3.91558e-33
3.49351e-31
2.83282e-29
2.03369e-27
1.18113e-27
8.84193e-30
9.00669e-32
3.60911e-30
4.75269e-28
5.96487e-26
7.07036e-24
7.82207e-22
7.94737e-20
7.24665e-18
1.11042e-29
8.63016e-32
9.1988e-34
3.46126e-32
4.32686e-30
5.14242e-28
5.75745e-26
6.00129e-24
5.7325e-22
4.90827e-20
2.23167e-28
2.0584e-30
2.22981e-32
4.9343e-34
2.75227e-32
3.11943e-30
3.32367e-28
3.28873e-26
2.97246e-24
2.39325e-22
1.66682e-26
3.54533e-28
6.05524e-30
8.77405e-32
1.25696e-33
1.4975e-32
1.52128e-30
1.43287e-28
1.22946e-26
9.3532e-25
1.73733e-25
1.24587e-27
1.53179e-29
9.73371e-28
1.35728e-25
1.80991e-23
2.28837e-21
2.71249e-19
2.96791e-17
2.93173e-15
2.01329e-27
1.47231e-29
1.69784e-31
8.87507e-30
1.17151e-27
1.47467e-25
1.75469e-23
1.95125e-21
1.99676e-19
1.83979e-17
5.95976e-26
4.65143e-28
4.13893e-30
9.77164e-32
7.09747e-30
8.49497e-28
9.5859e-26
1.00772e-23
9.70807e-22
8.35644e-20
2.72108e-24
5.47814e-26
8.87163e-28
1.22378e-29
1.83129e-31
3.88559e-30
4.16935e-28
4.15723e-26
3.78575e-24
3.06132e-22
2.45216e-27
2.34502e-29
9.06179e-28
1.38983e-25
2.05923e-23
2.92901e-21
3.9678e-19
5.06494e-17
6.00368e-15
6.46955e-13
1.39001e-25
9.06233e-28
1.40081e-29
1.20138e-27
1.67973e-25
2.24726e-23
2.853e-21
3.39963e-19
3.74576e-17
3.73525e-15
8.23868e-24
5.05519e-26
3.02164e-28
9.03745e-30
9.66441e-28
1.22528e-25
1.46927e-23
1.64713e-21
1.69835e-19
1.5701e-17
1.55123e-25
1.25136e-27
1.16652e-29
1.5679e-31
4.41672e-30
5.32352e-28
6.05114e-26
6.40739e-24
6.21344e-22
5.35932e-20
1.37048e-29
1.46083e-31
6.49898e-30
9.43127e-28
1.31816e-25
1.76273e-23
2.23676e-21
2.6637e-19
2.93242e-17
2.91976e-15
9.77033e-28
6.74589e-30
1.06653e-31
8.51271e-30
1.13005e-27
1.4313e-25
1.71483e-23
1.92145e-21
1.98229e-19
1.83913e-17
5.4494e-26
3.55339e-28
2.24935e-30
6.8016e-32
6.86076e-30
8.27141e-28
9.4043e-26
9.9649e-24
9.67723e-22
8.37272e-20
1.02802e-27
7.9031e-30
6.61135e-32
8.89284e-34
3.30285e-32
3.80036e-30
4.11177e-28
4.13228e-26
3.792e-24
3.0766e-22
)
;

boundaryField
{
    inlet
    {
        type            zeroGradient;
    }
    outlet
    {
        type            zeroGradient;
    }
    bottom
    {
        type            fixedValue;
        value           uniform 0;
    }
    top
    {
        type            symmetryPlane;
    }
    side1
    {
        type            symmetryPlane;
    }
    side2
    {
        type            symmetryPlane;
    }
    procBoundary12to4
    {
        type            processor;
        value           nonuniform List<scalar> 
50
(
4.72316e-28
3.56503e-30
2.92488e-32
4.71125e-31
6.20167e-29
7.78244e-27
9.22363e-25
1.0203e-22
1.03651e-20
9.45e-19
1.35738e-25
9.73377e-28
8.03135e-30
1.90199e-28
2.65162e-26
3.53583e-24
4.47044e-22
5.29886e-20
5.79772e-18
5.72687e-16
2.05943e-23
1.38999e-25
1.26017e-27
5.43088e-26
8.04563e-24
1.14437e-21
1.55021e-19
1.97881e-17
2.34552e-15
2.52747e-13
1.35751e-25
1.27556e-27
5.05573e-26
8.23857e-24
1.30201e-21
1.9842e-19
2.89461e-17
4.00282e-15
5.17591e-13
6.13511e-11
4.76569e-28
5.86762e-30
3.55334e-28
5.44899e-26
8.07169e-24
1.14785e-21
1.55461e-19
1.98404e-17
2.35126e-15
2.53317e-13
)
;
    }
    procBoundary12to11
    {
        type            processor;
        value           nonuniform List<scalar> 
20
(
5.28226e-28
4.48931e-30
6.52932e-29
1.72025e-27
1.52708e-25
1.38725e-27
2.76124e-26
5.55566e-25
2.317e-23
2.66365e-25
8.22333e-24
9.64944e-23
3.26454e-25
2.05954e-23
1.30202e-21
2.11426e-23
1.75732e-27
1.36223e-25
8.07225e-24
1.37883e-25
)
;
    }
    procBoundary12to13
    {
        type            processor;
        value           nonuniform List<scalar> 
20
(
9.45061e-19
6.47906e-21
3.17075e-23
1.24493e-25
5.72718e-16
3.624e-18
1.65019e-20
6.06375e-23
2.52758e-13
1.4661e-15
6.17337e-18
2.11122e-20
6.13534e-11
3.23524e-13
1.25034e-15
3.95327e-18
2.53328e-13
1.46885e-15
6.18996e-18
2.11941e-20
)
;
    }
    procBoundary12to20
    {
        type            processor;
        value           nonuniform List<scalar> 
50
(
2.35924e-26
5.04496e-28
8.62022e-30
1.25492e-31
1.61004e-33
1.88088e-35
1.53023e-35
1.282e-33
9.84518e-32
6.69543e-30
7.65329e-24
1.54468e-25
2.50196e-27
3.46332e-29
4.23947e-31
4.75715e-33
5.66819e-33
5.02371e-31
4.07284e-29
2.93024e-27
1.3336e-21
2.53011e-23
3.87017e-25
5.07617e-27
5.90898e-29
6.3938e-31
1.4783e-30
1.38956e-28
1.1929e-26
9.11144e-25
7.50622e-24
1.51426e-25
2.46561e-27
3.43476e-29
4.39924e-31
1.89342e-30
2.03644e-28
2.03549e-26
1.8562e-24
1.5105e-22
2.26094e-26
4.83924e-28
8.36347e-30
1.23391e-31
1.73473e-33
1.40753e-32
1.44756e-30
1.37704e-28
1.19132e-26
9.19339e-25
)
;
    }
}


// ************************************************************************* //
