/*--------------------------------*- C++ -*----------------------------------*\
| =========                 |                                                 |
| \\      /  F ield         | OpenFOAM: The Open Source CFD Toolbox           |
|  \\    /   O peration     | Version:  2.4.0                                 |
|   \\  /    A nd           | Web:      www.OpenFOAM.org                      |
|    \\/     M anipulation  |                                                 |
\*---------------------------------------------------------------------------*/
FoamFile
{
    version     2.0;
    format      ascii;
    class       surfaceScalarField;
    location    "0.05";
    object      phia;
}
// * * * * * * * * * * * * * * * * * * * * * * * * * * * * * * * * * * * * * //

dimensions      [0 3 -1 0 0 0 0];

internalField   nonuniform List<scalar> 
490
(
-7.08882e-05
-8.49141e-06
-6.17463e-06
-7.08551e-05
-8.48741e-06
-6.17187e-06
-7.07714e-05
-8.47889e-06
-6.16601e-06
-7.04379e-05
-8.45575e-06
-6.15014e-06
-4.45686e-05
-8.35267e-06
-6.0795e-06
-1.7278e-05
1.33631e-06
2.29598e-06
-1.55831e-05
4.50903e-06
2.98417e-06
-1.55818e-05
1.24194e-05
2.98463e-06
-1.55818e-05
1.24408e-05
2.98464e-06
1.24456e-05
2.98465e-06
-7.09373e-05
-8.49872e-06
-6.17971e-06
-7.09374e-05
-8.49872e-06
-6.17971e-06
-7.09374e-05
-8.49872e-06
-6.17971e-06
-7.09374e-05
-8.49873e-06
-6.17972e-06
-7.09313e-05
-8.49873e-06
-6.17972e-06
-6.4235e-05
-8.49642e-06
-6.17813e-06
-3.66429e-05
-5.96458e-06
-4.26572e-06
-1.56847e-05
2.00776e-06
2.95474e-06
-1.56158e-05
2.21145e-06
2.97585e-06
2.5619e-06
2.98059e-06
-7.09372e-05
-8.49868e-06
-6.1797e-06
-7.09372e-05
-8.49868e-06
-6.1797e-06
-7.09373e-05
-8.49869e-06
-6.1797e-06
-7.09373e-05
-8.4987e-06
-6.17971e-06
-7.09373e-05
-8.49871e-06
-6.17971e-06
-7.09371e-05
-8.4987e-06
-6.17971e-06
-7.07719e-05
-8.49865e-06
-6.17967e-06
-7.0125e-05
-8.43625e-06
-6.1341e-06
-6.87296e-05
-8.25393e-06
-6.0004e-06
-7.90827e-06
-5.74499e-06
-7.09367e-05
-6.17966e-06
-7.09368e-05
-6.17966e-06
-7.09369e-05
-6.17967e-06
-7.0937e-05
-6.17968e-06
-7.0937e-05
-6.17968e-06
-7.09369e-05
-6.17968e-06
-7.09368e-05
-6.17967e-06
-7.09366e-05
-6.17967e-06
-7.09364e-05
-6.17967e-06
-6.17966e-06
-7.09086e-05
-8.49442e-06
-6.177e-06
-7.08896e-05
-8.49212e-06
-6.17557e-06
-7.0842e-05
-8.48724e-06
-6.17253e-06
-7.0653e-05
-8.4741e-06
-6.16437e-06
-4.55052e-05
-8.41572e-06
-6.12818e-06
-1.80483e-05
1.04393e-06
1.82762e-06
-1.55835e-05
3.81576e-06
2.98393e-06
-1.55819e-05
1.24112e-05
2.98462e-06
-1.55818e-05
1.24382e-05
2.98463e-06
1.24442e-05
2.98463e-06
-7.09374e-05
-8.49872e-06
-6.17971e-06
-7.09374e-05
-8.49872e-06
-6.17971e-06
-7.09374e-05
-8.49873e-06
-6.17972e-06
-7.09375e-05
-8.49873e-06
-6.17972e-06
-7.0934e-05
-8.49873e-06
-6.17972e-06
-6.60691e-05
-8.49743e-06
-6.17891e-06
-3.84958e-05
-6.6577e-06
-4.93252e-06
-1.57128e-05
1.97895e-06
2.94008e-06
-1.56257e-05
2.12918e-06
2.97129e-06
2.37343e-06
2.97836e-06
-7.09372e-05
-8.49868e-06
-6.1797e-06
-7.09373e-05
-8.49869e-06
-6.1797e-06
-7.09373e-05
-8.4987e-06
-6.17971e-06
-7.09374e-05
-8.49871e-06
-6.17971e-06
-7.09373e-05
-8.49871e-06
-6.17971e-06
-7.09372e-05
-8.49871e-06
-6.17971e-06
-7.08266e-05
-8.49867e-06
-6.17969e-06
-7.03903e-05
-8.4569e-06
-6.15226e-06
-6.9435e-05
-8.3336e-06
-6.07109e-06
-8.09541e-06
-5.91339e-06
-7.09368e-05
-6.17966e-06
-7.09369e-05
-6.17967e-06
-7.0937e-05
-6.17968e-06
-7.09371e-05
-6.17968e-06
-7.09371e-05
-6.17969e-06
-7.0937e-05
-6.17968e-06
-7.09369e-05
-6.17968e-06
-7.09368e-05
-6.17967e-06
-7.09366e-05
-6.17966e-06
-6.17965e-06
-7.09249e-05
-8.49684e-06
-6.17889e-06
-7.09168e-05
-8.49586e-06
-6.17846e-06
-7.08968e-05
-8.4938e-06
-6.17756e-06
-7.08179e-05
-8.48828e-06
-6.17515e-06
-4.76916e-05
-8.46394e-06
-6.1645e-06
-2.01084e-05
2.63926e-07
-2.34606e-06
-1.55845e-05
2.98422e-06
-8.49033e-07
-1.55819e-05
1.23858e-05
2.96938e-06
-1.55819e-05
1.24302e-05
2.98004e-06
1.24403e-05
2.98245e-06
-7.09374e-05
-8.49872e-06
-6.17971e-06
-7.09374e-05
-8.49873e-06
-6.17972e-06
-7.09375e-05
-8.49873e-06
-6.17972e-06
-7.09375e-05
-8.49874e-06
-6.17972e-06
-7.0936e-05
-8.49874e-06
-6.17972e-06
-6.82674e-05
-8.49819e-06
-6.17948e-06
-4.07591e-05
-7.48884e-06
-5.73791e-06
-1.58006e-05
1.93266e-06
-1.61141e-06
-1.56565e-05
2.03934e-06
-1.55063e-06
2.17171e-06
-1.46576e-06
-7.09373e-05
-8.49869e-06
-6.1797e-06
-7.09373e-05
-8.4987e-06
-6.17971e-06
-7.09374e-05
-8.49871e-06
-6.17971e-06
-7.09374e-05
-8.49871e-06
-6.17971e-06
-7.09374e-05
-8.49872e-06
-6.17972e-06
-7.09373e-05
-8.49871e-06
-6.17971e-06
-7.08819e-05
-8.49869e-06
-6.1797e-06
-7.06621e-05
-8.47776e-06
-6.17055e-06
-7.01744e-05
-8.41551e-06
-6.14331e-06
-8.29322e-06
-6.08981e-06
-7.09369e-05
-6.17967e-06
-7.0937e-05
-6.17968e-06
-7.09371e-05
-6.17968e-06
-7.09371e-05
-6.17969e-06
-7.09371e-05
-6.1797e-06
-7.09371e-05
-6.17969e-06
-7.0937e-05
-6.17968e-06
-7.09369e-05
-6.17968e-06
-7.09368e-05
-6.17967e-06
-6.17965e-06
-7.09375e-05
-8.49874e-06
-6.16195e-06
-7.09375e-05
-8.49874e-06
-6.16322e-06
-7.09375e-05
-8.49874e-06
-6.16448e-06
-7.09375e-05
-8.49875e-06
-6.16575e-06
-7.09349e-05
-8.49875e-06
-6.16702e-06
-6.64109e-05
-8.49775e-06
-6.16505e-06
-3.88278e-05
-6.78674e-06
-5.00981e-06
-1.57016e-05
1.9724e-06
2.92863e-06
-1.56227e-05
2.09124e-06
2.96435e-06
2.28067e-06
2.97216e-06
-7.09374e-05
-8.49873e-06
-6.16321e-06
-7.09375e-05
-8.49873e-06
-6.16448e-06
-7.09375e-05
-8.49874e-06
-6.16575e-06
-7.09375e-05
-8.49874e-06
-6.16702e-06
-7.09375e-05
-8.49874e-06
-6.16829e-06
-7.09374e-05
-8.49874e-06
-6.16702e-06
-7.0853e-05
-8.49872e-06
-6.16573e-06
-7.0519e-05
-8.46681e-06
-6.14356e-06
-6.97832e-05
-8.37232e-06
-6.08024e-06
-8.18841e-06
-5.85929e-06
-7.09373e-05
-8.4987e-06
-6.16446e-06
-7.09374e-05
-8.49871e-06
-6.16574e-06
-7.09374e-05
-8.49871e-06
-6.16701e-06
-7.09374e-05
-8.49872e-06
-6.16828e-06
-7.09374e-05
-8.49873e-06
-6.16955e-06
-7.09374e-05
-8.49872e-06
-6.16828e-06
-7.09373e-05
-8.49871e-06
-6.16701e-06
-7.09373e-05
-8.49871e-06
-6.16573e-06
-7.09372e-05
-8.4987e-06
-6.16445e-06
-8.49868e-06
-6.0155e-06
-7.0937e-05
-6.1657e-06
-7.09371e-05
-6.16697e-06
-7.09371e-05
-6.16825e-06
-7.09372e-05
-6.16952e-06
-7.09372e-05
-6.1708e-06
-7.09371e-05
-6.16952e-06
-7.09371e-05
-6.16825e-06
-7.0937e-05
-6.16697e-06
-7.09369e-05
-6.16568e-06
-5.87698e-06
-7.09374e-05
-8.49874e-06
-7.09375e-05
-8.49874e-06
-7.09375e-05
-8.49874e-06
-7.09375e-05
-8.49874e-06
-7.09359e-05
-8.49875e-06
-6.84743e-05
-8.49815e-06
-4.10181e-05
-7.56721e-06
-1.58673e-05
1.90803e-06
-1.56778e-05
2.0141e-06
2.15635e-06
-7.09374e-05
-8.49872e-06
-7.09374e-05
-8.49873e-06
-7.09374e-05
-8.49873e-06
-7.09375e-05
-8.49874e-06
-7.09375e-05
-8.49874e-06
-7.09374e-05
-8.49874e-06
-7.08951e-05
-8.49872e-06
-7.07272e-05
-8.48276e-06
-7.00689e-05
-8.43519e-06
-8.25433e-06
-7.09373e-05
-8.49869e-06
-7.09373e-05
-8.4987e-06
-7.09373e-05
-8.49871e-06
-7.09374e-05
-8.49871e-06
-7.09374e-05
-8.49872e-06
-7.09373e-05
-8.49871e-06
-7.09373e-05
-8.49871e-06
-7.09372e-05
-8.4987e-06
-7.05317e-05
-8.49868e-06
-8.35197e-06
-7.09369e-05
-7.0937e-05
-7.09371e-05
-7.09371e-05
-7.09371e-05
-7.09371e-05
-7.0937e-05
-7.09368e-05
-7.01967e-05
)
;

boundaryField
{
    inlet
    {
        type            calculated;
        value           nonuniform 0();
    }
    outlet
    {
        type            calculated;
        value           nonuniform 0();
    }
    bottom
    {
        type            calculated;
        value           uniform 0;
    }
    top
    {
        type            symmetryPlane;
        value           uniform 0;
    }
    side1
    {
        type            symmetryPlane;
        value           nonuniform 0();
    }
    side2
    {
        type            symmetryPlane;
        value           nonuniform 0();
    }
    procBoundary12to4
    {
        type            processor;
        value           nonuniform List<scalar> 
50
(
-1.62269e-06
-1.77786e-06
-1.88971e-06
-1.97586e-06
-2.11074e-06
-1.18081e-05
-1.2449e-05
-1.24494e-05
-1.24495e-05
-1.24495e-05
-1.44851e-06
-1.67167e-06
-1.82933e-06
-1.93637e-06
-2.04235e-06
-1.15167e-05
-1.24488e-05
-1.24494e-05
-1.24494e-05
-1.24494e-05
-9.66224e-07
-1.3755e-06
-1.66994e-06
-1.85936e-06
-1.97819e-06
-1.07374e-05
-1.24484e-05
-1.24494e-05
-1.24494e-05
-1.24494e-05
8.49526e-06
8.49346e-06
8.48968e-06
8.47958e-06
8.43516e-06
-9.66418e-07
-3.68674e-06
-1.24145e-05
-1.24389e-05
-1.24444e-05
8.49683e-06
8.49577e-06
8.49352e-06
8.48747e-06
8.46056e-06
-1.33677e-07
-2.90552e-06
-1.23661e-05
-1.24246e-05
-1.24378e-05
)
;
    }
    procBoundary12to11
    {
        type            processor;
        value           nonuniform List<scalar> 
20
(
7.09051e-05
7.09373e-05
7.09371e-05
7.09366e-05
7.09183e-05
7.09373e-05
7.09371e-05
7.09367e-05
7.0929e-05
7.09373e-05
7.09372e-05
7.09368e-05
7.09374e-05
7.09374e-05
7.09372e-05
7.09369e-05
7.0937e-05
7.0937e-05
7.09369e-05
7.09366e-05
)
;
    }
    procBoundary12to13
    {
        type            processor;
        value           nonuniform List<scalar> 
20
(
-1.55815e-05
-1.55985e-05
-6.6467e-05
-7.0859e-05
-1.55815e-05
-1.56036e-05
-6.78013e-05
-7.08366e-05
-1.55816e-05
-1.56195e-05
-6.9255e-05
-7.07964e-05
-1.56022e-05
-6.84285e-05
-7.07966e-05
-7.06791e-05
-1.53536e-05
-3.56314e-05
-3.58144e-05
-3.53932e-05
)
;
    }
    procBoundary12to20
    {
        type            processor;
        value           nonuniform List<scalar> 
50
(
-8.16811e-06
-8.14058e-06
-8.10805e-06
-8.06901e-06
-8.02135e-06
-8.06903e-06
-8.10787e-06
-8.13969e-06
-8.16621e-06
-8.17959e-06
-8.14054e-06
-8.10799e-06
-8.06894e-06
-8.02122e-06
-7.96161e-06
-8.02122e-06
-8.06897e-06
-8.10781e-06
-8.13995e-06
-8.16025e-06
-8.10798e-06
-8.06893e-06
-8.02119e-06
-7.96153e-06
-7.88487e-06
-7.96153e-06
-8.0212e-06
-8.06894e-06
-8.10801e-06
-8.13317e-06
-8.06891e-06
-8.02117e-06
-7.9615e-06
-7.88478e-06
-7.78254e-06
-7.88478e-06
-7.9615e-06
-8.02117e-06
-8.06892e-06
-8.09444e-06
-8.10809e-06
-8.06903e-06
-8.02129e-06
-7.96164e-06
-7.88499e-06
-7.96164e-06
-8.02129e-06
-8.06901e-06
-8.06776e-06
-3.93296e-06
)
;
    }
}


// ************************************************************************* //
