/*--------------------------------*- C++ -*----------------------------------*\
| =========                 |                                                 |
| \\      /  F ield         | OpenFOAM: The Open Source CFD Toolbox           |
|  \\    /   O peration     | Version:  2.4.0                                 |
|   \\  /    A nd           | Web:      www.OpenFOAM.org                      |
|    \\/     M anipulation  |                                                 |
\*---------------------------------------------------------------------------*/
FoamFile
{
    version     2.0;
    format      ascii;
    class       volVectorField;
    location    "0.05";
    object      Ua;
}
// * * * * * * * * * * * * * * * * * * * * * * * * * * * * * * * * * * * * * //

dimensions      [0 1 -1 0 0 0 0];

internalField   nonuniform List<vector> 
200
(
(16.494 16.829 -6.88554)
(16.8999 17.243 -6.88558)
(8.36673 12.5649 -6.38703)
(-21.8006 -4.47183 -4.66681)
(-21.74 -4.46208 -4.6518)
(-21.6638 -4.44645 -4.6355)
(-21.5781 -4.42885 -4.61716)
(-21.4809 -4.40891 -4.59638)
(-21.3698 -4.38611 -4.57262)
(-21.2415 -4.35978 -4.5452)
(11.4504 9.86787 -1.84686)
(11.9821 10.417 -2.54958)
(4.19918 7.06913 -3.81111)
(-21.6934 -4.45073 -4.40669)
(-21.5339 -4.4196 -4.37996)
(-21.3406 -4.37993 -4.35081)
(-21.1118 -4.33297 -4.31878)
(-20.8333 -4.27583 -4.28372)
(-20.4817 -4.20369 -4.24568)
(-20.0166 -4.10829 -4.20538)
(-2.03649 -9.27137 5.83132)
(0.531778 -6.87959 -5.03038)
(3.10203 -4.57217 -15.3459)
(-5.79825 -3.67436 -14.6663)
(-21.3417 -4.38059 -4.1286)
(-20.98 -4.30575 -4.08809)
(-20.5631 -4.22021 -4.04804)
(-20.0814 -4.12139 -4.00492)
(-19.5173 -4.00568 -3.9588)
(-18.8664 -3.87217 -3.90924)
(5.49596 -1.2999 -28.4907)
(5.7993 -1.37292 -28.5028)
(6.04211 -1.43082 -28.5072)
(6.28391 -1.48833 -28.5091)
(4.27725 -1.77378 -26.5063)
(-20.5945 -4.23042 -3.8846)
(-20.0727 -4.11946 -3.80673)
(-19.4449 -3.99065 -3.7577)
(-18.7221 -3.8424 -3.70534)
(-17.917 -3.67725 -3.6484)
(15.9399 16.2641 -6.88522)
(16.1669 16.4959 -6.88523)
(5.19785 10.4925 -6.23754)
(-21.735 -4.45941 -4.65206)
(-21.6635 -4.44639 -4.63548)
(-21.5778 -4.4288 -4.61714)
(-21.4806 -4.40885 -4.59635)
(-21.3696 -4.38606 -4.5726)
(-21.2414 -4.35976 -4.54518)
(-21.0918 -4.32904 -4.5132)
(9.48287 7.33929 -0.137646)
(9.97378 7.89163 -0.916223)
(1.13137 4.57336 -2.72401)
(-21.4956 -4.41089 -4.38068)
(-21.3143 -4.37455 -4.35147)
(-21.0995 -4.33045 -4.31908)
(-20.8469 -4.27862 -4.28324)
(-20.5434 -4.21634 -4.24357)
(-20.1674 -4.13921 -4.19989)
(-19.6843 -4.0401 -4.15247)
(-2.49994 -9.64811 8.12432)
(-0.322373 -7.58675 -1.24866)
(2.2232 -5.25183 -11.8015)
(-7.72586 -3.95878 -12.2565)
(-20.9864 -4.30752 -4.08968)
(-20.5982 -4.22742 -4.04649)
(-20.1554 -4.13659 -4.00182)
(-19.6486 -4.03261 -3.95317)
(-19.0637 -3.91261 -3.90028)
(-18.4048 -3.77746 -3.84198)
(5.44746 -1.29348 -28.4983)
(5.71143 -1.35402 -28.5054)
(5.92491 -1.40393 -28.5082)
(6.13167 -1.45275 -28.5092)
(3.37522 -1.80187 -25.8033)
(-20.0981 -4.12715 -3.82475)
(-19.5361 -4.00938 -3.75278)
(-18.8811 -3.875 -3.69776)
(-18.1364 -3.72224 -3.63815)
(-17.3321 -3.55726 -3.57175)
(15.4741 15.7893 -6.88458)
(15.473 15.7888 -6.88455)
(-0.847619 6.90724 -5.90532)
(-21.6612 -4.44517 -4.63562)
(-21.5777 -4.42877 -4.61715)
(-21.4805 -4.40883 -4.59636)
(-21.3695 -4.38604 -4.57261)
(-21.2413 -4.35974 -4.5452)
(-21.0918 -4.32906 -4.51322)
(-20.9151 -4.29277 -4.47542)
(6.10093 2.77522 3.42693)
(6.57242 3.37339 2.57652)
(-3.82592 0.70314 -0.793628)
(-21.2799 -4.36727 -4.35201)
(-21.0744 -4.32532 -4.31982)
(-20.8348 -4.27614 -4.28363)
(-20.5548 -4.21868 -4.24321)
(-20.2218 -4.15036 -4.19795)
(-19.8166 -4.06722 -4.14729)
(-19.3098 -3.96326 -4.09088)
(-3.10376 -10.2173 10.9918)
(-1.61171 -8.76662 4.48599)
(0.62392 -6.65406 -5.04375)
(-10.9161 -4.46706 -8.2865)
(-20.6049 -4.22908 -4.04698)
(-20.1873 -4.14313 -4.00041)
(-19.7156 -4.04635 -3.95024)
(-19.1803 -3.93652 -3.89493)
(-18.571 -3.81153 -3.8337)
(-17.9008 -3.67404 -3.76439)
(5.40244 -1.28444 -28.492)
(5.62129 -1.33323 -28.5031)
(5.80474 -1.3757 -28.5069)
(5.97803 -1.41657 -28.5082)
(1.26498 -1.95373 -23.9204)
(-19.5712 -4.01776 -3.76017)
(-18.9675 -3.89272 -3.69295)
(-18.2829 -3.75228 -3.63072)
(-17.5147 -3.59469 -3.56224)
(-16.7122 -3.43005 -3.48388)
(5.67459 2.20053 4.06177)
(-0.664507 1.06301 1.5174)
(-21.6594 -4.44527 -4.63445)
(-21.5776 -4.42875 -4.61715)
(-21.4804 -4.40881 -4.59637)
(-21.3694 -4.38602 -4.57261)
(-21.2413 -4.35973 -4.54521)
(-21.0918 -4.32905 -4.51323)
(-20.9151 -4.29279 -4.47544)
(-20.703 -4.24926 -4.43009)
(-3.94111 -11.087 14.8405)
(-3.94198 -11.0864 14.8391)
(-14.1639 -7.11394 3.50298)
(-21.0433 -4.31925 -4.32016)
(-20.8106 -4.2712 -4.28439)
(-20.5425 -4.21617 -4.24363)
(-20.2305 -4.15216 -4.19765)
(-19.8628 -4.0767 -4.1455)
(-19.422 -3.98625 -4.08606)
(-18.8844 -3.87596 -4.01803)
(-3.94204 -11.0881 14.8414)
(-3.94193 -11.088 14.8409)
(-3.94459 -11.0865 14.8364)
(-17.3454 -5.56689 -0.358924)
(-20.1933 -4.14448 -3.99979)
(-19.743 -4.05199 -3.94893)
(-19.2385 -3.94847 -3.89215)
(-18.6705 -3.83194 -3.82867)
(-18.0326 -3.70105 -3.757)
(-17.346 -3.5602 -3.67353)
(-2.9503 -10.0734 10.3349)
(-1.24766 -8.41006 2.8826)
(1.11923 -6.17442 -7.20118)
(-1.94718 -4.22818 -13.2456)
(-19.5932 -4.02231 -3.75312)
(-19.0096 -3.90136 -3.68995)
(-18.3621 -3.76852 -3.62602)
(-17.6453 -3.62147 -3.55503)
(-16.8519 -3.45871 -3.47547)
(-16.0517 -3.29453 -3.3817)
(2.43843 -2.29316 7.60596)
(-4.70999 -2.59225 3.63119)
(-22.5614 -4.63075 -4.60411)
(-22.4398 -4.60558 -4.59101)
(-22.296 -4.57608 -4.57474)
(-22.1283 -4.54167 -4.55624)
(-21.9303 -4.50104 -4.53512)
(-21.693 -4.45236 -4.51087)
(-21.4046 -4.39319 -4.48288)
(-21.0531 -4.32107 -4.4503)
(-3.9416 -11.0877 14.7314)
(-3.94273 -11.0873 14.7241)
(-14.6035 -7.33998 3.7183)
(-22.1158 -4.53927 -4.30304)
(-21.7957 -4.47322 -4.27422)
(-21.435 -4.39921 -4.2414)
(-21.0247 -4.31505 -4.20476)
(-20.5518 -4.21802 -4.16384)
(-19.9996 -4.10474 -4.11824)
(-19.3645 -3.97447 -4.0673)
(-3.94205 -11.0881 14.7379)
(-3.942 -11.0881 14.7316)
(-3.94517 -11.0867 14.7215)
(-18.0836 -5.80713 -0.216221)
(-21.2121 -4.35346 -4.00307)
(-20.6737 -4.24287 -3.96154)
(-20.0799 -4.12105 -3.91548)
(-19.4174 -3.98514 -3.86459)
(-18.6764 -3.83315 -3.80815)
(-17.9179 -3.67755 -3.7431)
(-3.4591 -10.6063 12.5935)
(-2.4819 -9.6732 8.41329)
(-0.708172 -8.02668 1.00242)
(-5.47857 -5.5367 -6.67358)
(-20.6356 -4.23587 -3.7651)
(-19.9616 -4.09665 -3.71515)
(-19.2322 -3.947 -3.6626)
(-18.4325 -3.78296 -3.60467)
(-17.5455 -3.60101 -3.54055)
(-16.6881 -3.42513 -3.46524)
)
;

boundaryField
{
    inlet
    {
        type            calculated;
        value           nonuniform 0();
    }
    outlet
    {
        type            calculated;
        value           nonuniform 0();
    }
    bottom
    {
        type            calculated;
        value           uniform (0 0 0);
    }
    top
    {
        type            symmetryPlane;
    }
    side1
    {
        type            symmetryPlane;
    }
    side2
    {
        type            symmetryPlane;
    }
    procBoundary12to4
    {
        type            processor;
        value           nonuniform List<vector> 
50
(
(15.6103 15.9284 -6.88556)
(15.7052 16.0253 -6.88563)
(11.2472 13.679 -6.65605)
(-23.0165 -4.71912 -4.92913)
(-23.0314 -4.72714 -4.92839)
(-23.0314 -4.72714 -4.92839)
(-23.0314 -4.72714 -4.9284)
(-23.0313 -4.72714 -4.9284)
(-23.0313 -4.72713 -4.92841)
(-23.0313 -4.72713 -4.92842)
(15.4738 15.7893 -6.88541)
(15.4738 15.7895 -6.88545)
(9.18122 12.4367 -6.56565)
(-23.0222 -4.72229 -4.92885)
(-23.0313 -4.72713 -4.92839)
(-23.0313 -4.72713 -4.9284)
(-23.0313 -4.72712 -4.9284)
(-23.0313 -4.72712 -4.92841)
(-23.0313 -4.72712 -4.92842)
(-23.0312 -4.72712 -4.92842)
(15.4733 15.7888 -6.8853)
(15.4727 15.7885 -6.88527)
(4.65624 10.0253 -6.33555)
(-23.0272 -4.72495 -4.9286)
(-23.0312 -4.72712 -4.9284)
(-23.0312 -4.72711 -4.9284)
(-23.0312 -4.72711 -4.92841)
(-23.0312 -4.72711 -4.92842)
(-23.0312 -4.72711 -4.92842)
(-23.0312 -4.72711 -4.92843)
(15.4718 15.7871 -6.8841)
(6.35345 10.9289 -6.42094)
(-23.0261 -4.72438 -4.92865)
(-23.0312 -4.72711 -4.9284)
(-23.0312 -4.72711 -4.9284)
(-23.0312 -4.72711 -4.92841)
(-23.0312 -4.7271 -4.92842)
(-23.0312 -4.7271 -4.92842)
(-23.0312 -4.7271 -4.92843)
(-23.0312 -4.7271 -4.92843)
(15.4699 15.7849 -6.84868)
(0.714874 7.9242 -6.09699)
(-23.0299 -4.72591 -4.8923)
(-23.0326 -4.7274 -4.89416)
(-23.0325 -4.72738 -4.89617)
(-23.0324 -4.72735 -4.89818)
(-23.0322 -4.72732 -4.90018)
(-23.032 -4.72728 -4.90218)
(-23.0318 -4.72723 -4.90418)
(-23.0315 -4.72716 -4.90617)
)
;
    }
    procBoundary12to11
    {
        type            processor;
        value           nonuniform List<vector> 
20
(
(15.7028 16.0226 -6.88518)
(10.6683 9.02351 -1.327)
(-3.4491 -10.5954 12.4441)
(5.2197 -1.22964 -28.4355)
(15.4734 15.7887 -6.88485)
(8.8362 6.58571 0.48552)
(-3.57668 -10.6946 13.1242)
(5.18599 -1.23995 -28.4666)
(15.4722 15.7873 -6.88417)
(5.56712 2.07221 4.16178)
(-3.74363 -10.8741 13.9071)
(5.17384 -1.2435 -28.443)
(5.14015 1.48446 4.67805)
(-3.94119 -11.0869 14.8405)
(-3.94206 -11.0881 14.8415)
(-3.70364 -10.8329 13.7176)
(1.98047 -2.88956 8.14809)
(-3.94156 -11.0874 14.7374)
(-3.94206 -11.0881 14.744)
(-3.82994 -10.9695 14.2174)
)
;
    }
    procBoundary12to13
    {
        type            processor;
        value           nonuniform List<vector> 
20
(
(-21.0905 -4.32878 -4.51312)
(-19.4488 -3.99183 -4.16174)
(-18.146 -3.7244 -3.85438)
(-17.0329 -3.49591 -3.58502)
(-20.9137 -4.2925 -4.47531)
(-19.1496 -3.93041 -4.09775)
(-17.7211 -3.63721 -3.77407)
(-16.5065 -3.38789 -3.49448)
(-20.7019 -4.24903 -4.43)
(-18.7964 -3.85793 -4.02221)
(-17.2405 -3.53857 -3.68005)
(-15.929 -3.26938 -3.38925)
(-20.4431 -4.1959 -4.37461)
(-18.3727 -3.77096 -3.93156)
(-16.6886 -3.42531 -3.56826)
(-15.287 -3.13761 -3.26502)
(-20.7026 -4.24917 -4.40988)
(-18.8085 -3.8604 -4.00166)
(-17.2416 -3.5388 -3.6603)
(-15.9158 -3.26668 -3.37098)
)
;
    }
    procBoundary12to20
    {
        type            processor;
        value           nonuniform List<vector> 
50
(
(5.29947 -1.2529 -28.5001)
(5.54831 -1.31339 -28.5055)
(5.76224 -1.36454 -28.5076)
(5.94307 -1.40754 -28.5088)
(6.11548 -1.44845 -28.5096)
(6.05086 -1.51358 -28.2938)
(-19.9331 -4.12087 -3.8944)
(-19.6195 -4.01675 -3.51088)
(-18.9087 -3.86646 -3.44073)
(-18.0666 -3.68579 -3.357)
(5.26965 -1.24865 -28.5064)
(5.48946 -1.30052 -28.5077)
(5.6745 -1.34425 -28.5084)
(5.82919 -1.38083 -28.509)
(5.97319 -1.41491 -28.5095)
(5.7927 -1.48121 -28.2062)
(-19.3651 -3.99745 -3.73517)
(-18.8898 -3.87654 -3.46155)
(-18.1393 -3.72259 -3.39139)
(-17.2578 -3.54174 -3.31206)
(5.24302 -1.24229 -28.5063)
(5.42897 -1.28617 -28.5075)
(5.58368 -1.32274 -28.5081)
(5.71248 -1.3532 -28.5087)
(5.82976 -1.38096 -28.5091)
(5.36691 -1.46624 -27.9461)
(-18.7542 -3.8598 -3.5618)
(-18.1267 -3.72001 -3.38853)
(-17.3337 -3.55732 -3.30917)
(-16.4096 -3.36774 -3.21875)
(5.36411 -1.27301 -28.4995)
(5.5785 -1.32228 -28.5054)
(5.7391 -1.35982 -28.5075)
(5.86759 -1.39009 -28.5085)
(5.02888 -1.51404 -27.5752)
(-18.7657 -3.85785 -3.51764)
(-18.0942 -3.71337 -3.38548)
(-17.3235 -3.55524 -3.30643)
(-16.4828 -3.38275 -3.21578)
(-15.5091 -3.183 -3.11158)
(5.4924 -1.30639 -28.3642)
(5.72668 -1.35839 -28.37)
(5.89077 -1.39615 -28.367)
(6.01827 -1.426 -28.3611)
(4.14851 -1.65964 -26.528)
(-19.9466 -4.09704 -3.52423)
(-19.1608 -3.93215 -3.43372)
(-18.3259 -3.76087 -3.36859)
(-17.4308 -3.57724 -3.29338)
(-16.3489 -3.35532 -3.20688)
)
;
    }
}


// ************************************************************************* //
