/*--------------------------------*- C++ -*----------------------------------*\
| =========                 |                                                 |
| \\      /  F ield         | OpenFOAM: The Open Source CFD Toolbox           |
|  \\    /   O peration     | Version:  2.4.0                                 |
|   \\  /    A nd           | Web:      www.OpenFOAM.org                      |
|    \\/     M anipulation  |                                                 |
\*---------------------------------------------------------------------------*/
FoamFile
{
    version     2.0;
    format      ascii;
    class       volVectorField;
    location    "0.05";
    object      Ub;
}
// * * * * * * * * * * * * * * * * * * * * * * * * * * * * * * * * * * * * * //

dimensions      [0 1 -1 0 0 0 0];

internalField   nonuniform List<vector> 
200
(
(193.671 -3.22457 -842.741)
(159.835 1.51979 24.3971)
(284.53 -129.98 -53.0476)
(170.061 -29.9342 -33.9065)
(197.673 -172.426 15.8015)
(121.658 -61.7554 -11.9654)
(177.168 -177.022 36.6765)
(80.4054 -68.8366 -3.41901)
(153.275 -170.321 45.29)
(51.5172 -70.936 20.1666)
(67.2547 169.227 44.0541)
(197.913 73.2325 1.96861)
(114.378 77.8981 -32.4207)
(164.146 -92.223 17.5221)
(94.1231 1.36032 -37.5411)
(151.208 -143.171 30.1435)
(59.7627 -43.1752 -7.68802)
(127.428 -153.437 38.773)
(23.3886 -58.0439 20.0467)
(83.4492 -161.502 27.2156)
(84.5241 7.30556 53.7013)
(36.0554 102.449 -25.4115)
(118.934 -67.2474 23.6994)
(43.9193 42.5338 -35.4033)
(112.979 -102.126 32.2753)
(17.9601 1.24142 -4.95728)
(81.8596 -120.752 36.8767)
(-15.1659 -29.9855 26.8844)
(29.3432 -139.967 14.3772)
(-33.2826 -62.769 28.6358)
(-29.6812 83.9211 -18.0048)
(65.6714 -86.0106 55.1017)
(-24.2564 55.1285 -4.08556)
(54.4842 -82.3261 52.036)
(-46.504 25.8593 25.3143)
(14.6451 -93.1545 40.7505)
(-70.3254 -11.5058 39.1462)
(-28.4337 -125.161 -2.47212)
(-72.5049 -48.12 18.8004)
(-50.2497 -143.793 -53.0319)
(48.5418 18.4994 112.066)
(329.219 92.0145 -1605.25)
(185.31 -2.28619 25.4946)
(360.629 -101.702 -62.7863)
(219.589 -33.6111 -20.9884)
(187.008 -157.496 -31.1196)
(165.892 -79.4883 28.9505)
(176.729 -168.73 15.1792)
(140.959 -74.8884 34.6545)
(182.594 -179.27 48.5251)
(171.113 12.8066 -855.407)
(49.678 92.0729 178.089)
(300.008 299.226 -2.33962)
(192.875 78.5322 -1.04283)
(178.906 -65.196 -8.35815)
(150.305 -7.79424 -22.3143)
(153.765 -145.147 2.40669)
(119.949 -58.4517 29.7828)
(159.869 -163.025 36.8048)
(102.386 -63.6858 46.507)
(5.40016 104.664 114.369)
(104.285 104.385 58.9137)
(73.7637 85.6442 29.46)
(135.32 -49.78 14.9889)
(102.032 30.9214 -21.1897)
(130.181 -103.557 18.4025)
(81.6207 -6.27633 5.83605)
(120.949 -130.518 36.7084)
(59.2913 -37.9025 41.3251)
(101.97 -146.099 32.0652)
(10.7659 -111.235 119.477)
(-31.9027 61.8838 42.9288)
(56.7264 -85.0205 68.0754)
(4.98577 48.2291 25.5001)
(67.017 -89.6409 64.2031)
(0.289356 23.0028 37.1924)
(57.4648 -99.7449 48.4869)
(-2.22557 -9.23034 34.6807)
(31.5968 -117.471 -4.92504)
(-3.0656 -49.9493 26.3928)
(397.079 116.661 -1099.75)
(38.8271 21.5574 87.3985)
(379.376 206.916 -2284.92)
(110.8 -0.266208 129.134)
(546.612 -47.2525 109.975)
(262.304 -36.8833 133.245)
(250.693 -95.431 8.62919)
(265.376 -34.7375 108.84)
(235.32 -96.5136 -16.464)
(250.103 -55.6838 47.7067)
(46.3135 -79.8682 70.9669)
(278.9 20.2392 -1219.07)
(122.573 55.4568 166.359)
(428.731 225.801 57.0599)
(236.563 65.0406 152.241)
(189.346 0.462351 1.15266)
(204.166 15.8875 13.7164)
(182.344 -93.819 -44.2056)
(210.099 -45.1855 55.0804)
(222.522 -126.753 -12.8912)
(130.893 -87.1035 -539.082)
(13.9831 8.84701 194.148)
(203.167 269.89 117.537)
(121.995 81.8514 116.656)
(151.508 -23.204 33.2866)
(157.701 27.7192 10.0327)
(159.691 -86.3369 2.76304)
(151.491 -6.43799 19.0001)
(163.685 -119.634 6.62822)
(147.204 -44.0539 72.8265)
(-21.1343 6.32305 132.079)
(34.6057 -20.6357 114.983)
(-0.645585 37.1035 72.8026)
(89.3873 -84.9055 80.787)
(53.8151 44.7787 58.2756)
(94.0007 -95.5424 70.662)
(54.8026 18.3151 49.7176)
(91.88 -106.712 40.9659)
(58.0185 -20.3763 51.6518)
(82.3801 -126.58 -4.4162)
(121.02 62.8479 33.606)
(230.495 105.433 -638.067)
(-18.6873 8.31183 38.8465)
(241.436 176.606 -1928.4)
(46.4091 -36.9771 114.717)
(176.465 -60.0102 57.7811)
(203.56 35.7392 230.103)
(192.719 -51.4993 -72.8327)
(247.969 38.918 106.983)
(266.881 -54.795 -88.9273)
(174.436 -208.16 -391.195)
(1.43505 -146.149 -7.00471)
(210.796 -48.4984 -1122.82)
(-29.6394 -125.038 -4.34053)
(197.046 0.769533 307.351)
(123.036 -27.8034 147.532)
(159.128 -44.4345 -59.1209)
(171.871 2.71381 34.3017)
(183.27 -83.188 -130.532)
(222.099 -36.4515 45.747)
(10.5344 -68.1404 21.5814)
(71.9629 -66.6874 -84.3365)
(-20.8965 -41.3315 45.7737)
(63.0907 -143.538 209.141)
(62.0236 -52.1975 84.7719)
(109.421 -114.865 14.3992)
(110.926 -23.489 39.7447)
(142.196 -113.081 -41.9841)
(161.83 -30.7025 39.934)
(181.356 -138.164 -69.3764)
(25.5301 -244.743 68.9184)
(-31.0894 -19.2243 71.1742)
(46.3907 -193.652 97.2924)
(3.27994 -18.3815 77.1335)
(53.2858 -162.867 74.5856)
(21.4432 -21.0968 63.712)
(71.0814 -149.123 34.7164)
(56.6547 -24.7162 49.2908)
(90.2362 -142.17 -18.8647)
(81.2433 -48.7248 57.8276)
(172.866 -22.8949 -202.166)
(86.3154 54.0966 76.8332)
(20.1677 54.3812 -211.159)
(58.2877 52.7212 135.171)
(-29.6522 10.8186 -20.4944)
(98.2674 86.1798 265.689)
(91.854 32.296 -130.498)
(189.088 132.119 341.846)
(147.741 2.28181 -294.431)
(176.696 136.104 163.86)
(27.1601 -76.9761 -0.873352)
(38.5147 -210.228 -35.6222)
(3.41311 -96.6048 45.1666)
(-12.9486 -148.737 96.3421)
(14.4489 -48.5485 185.686)
(72.7735 -0.193591 -99.7953)
(136.891 71.6512 231.451)
(129.718 23.1065 -144.471)
(159.181 71.3022 136.855)
(156.773 -42.5116 -157.982)
(47.5596 -263.935 2.2888)
(5.11695 -34.1342 32.4375)
(26.8242 -224.187 62.0885)
(-0.103104 -53.6572 48.3615)
(42.0359 -154.371 -17.8777)
(58.3262 -10.3291 58.78)
(81.8395 -54.1212 -60.2419)
(113.004 8.84393 37.4671)
(102.672 -48.3732 -113.845)
(135.312 -11.1113 112.993)
(-13.9567 2.2654 43.7745)
(39.0625 -218.535 30.1208)
(-9.56184 -16.0578 63.8564)
(46.2008 -164.253 28.8001)
(13.1305 -14.5006 53.5151)
(56.4858 -133.766 0.658112)
(43.5098 2.76473 41.4254)
(73.8015 -101.93 -39.2944)
(75.2815 9.92685 65.9699)
(67.1595 -68.9313 -97.053)
)
;

boundaryField
{
    inlet
    {
        type            fixedValue;
        value           nonuniform 0();
    }
    outlet
    {
        type            zeroGradient;
    }
    bottom
    {
        type            fixedValue;
        value           uniform (0 0 0);
    }
    top
    {
        type            symmetryPlane;
    }
    side1
    {
        type            symmetryPlane;
    }
    side2
    {
        type            symmetryPlane;
    }
    procBoundary12to4
    {
        type            processor;
        value           nonuniform List<vector> 
50
(
(92.8005 -94.0386 53.5768)
(197.612 -248.822 -54.7961)
(139.839 -95.3723 1.46608)
(168.584 -213.769 3.27439)
(130.842 -84.8901 14.155)
(176.67 -193.422 33.6411)
(106.7 -71.9812 4.10471)
(173.441 -179.394 48.2414)
(85.2462 -71.7003 5.12708)
(155.868 -168.502 55.3283)
(198.551 36.6029 -841.923)
(97.7117 -50.5094 55.8057)
(228.582 -232.912 -48.3439)
(175.176 -83.094 -2.17902)
(157.633 -170.496 -12.8927)
(171.701 -86.8912 53.6056)
(167.722 -150.924 28.723)
(152.094 -69.2925 45.3676)
(184.035 -171.856 43.9426)
(159.639 -90.4841 55.4898)
(147.249 132.665 116.873)
(260.128 176.977 -974.397)
(116.142 26.9666 141.81)
(254.333 -158.213 91.5658)
(200.722 -48.3375 168.194)
(183.621 -119.632 95.4674)
(266.132 7.26415 233.473)
(212.778 -75.092 14.5895)
(234.33 -39.5327 49.5739)
(238.847 -130.081 6.77185)
(283.184 109.458 -326.103)
(137.603 163.989 65.5389)
(190.796 197.684 -788.089)
(110.933 86.9307 135.901)
(124.964 -34.6782 70.7161)
(221.813 87.0422 222.415)
(178.82 -3.7712 -22.8346)
(265.962 105.941 266.675)
(228.207 -52.0609 -126.379)
(210.626 50.8456 84.1149)
(171.269 110.67 31.2468)
(160.85 153.347 -151.447)
(134.017 166.267 79.2948)
(67.9289 153.502 -14.2992)
(134.416 169.367 164.855)
(99.4469 57.3808 -64.6021)
(198.698 118.268 262.501)
(143.417 16.3646 -152.076)
(200.168 123.021 293.578)
(178.786 9.22859 -75.9808)
)
;
    }
    procBoundary12to11
    {
        type            processor;
        value           nonuniform List<vector> 
20
(
(-9.89045 17.6171 115.392)
(67.1447 8.1269 -650.263)
(-33.2195 157.312 16.1756)
(40.6486 -106.541 80.6583)
(294.247 15.5901 -837.073)
(17.0912 -13.1636 130.838)
(17.6634 -127.937 -530.883)
(-50.5504 54.0086 70.5922)
(118.104 58.7574 100.34)
(216.424 -191.232 -565.934)
(33.3525 -66.7096 115.348)
(6.72913 -220.261 80.8565)
(265.873 -57.8746 -495.39)
(71.3804 -104.711 -18.8309)
(87.2784 -316.874 -60.7892)
(-19.8478 -13.2484 37.4913)
(83.4042 -75.9678 29.662)
(77.4346 -287.594 -49.8229)
(39.4711 -25.6985 -19.6645)
(48.7309 -266.714 8.07335)
)
;
    }
    procBoundary12to13
    {
        type            processor;
        value           nonuniform List<vector> 
20
(
(114.427 -172.624 34.1469)
(4.44429 -71.8163 34.7855)
(-11.7643 -167.606 -39.6624)
(-68.9333 -81.7183 15.6864)
(137.093 -88.1721 63.0406)
(152.944 -170.565 54.4784)
(46.2941 -67.3591 50.2029)
(2.32621 -129.395 -85.1561)
(251.105 -156.551 -13.7564)
(218.751 -57.7707 58.5041)
(172.182 -152.221 22.6915)
(48.5612 -56.7814 54.246)
(247.331 48.1505 29.3174)
(276.675 -112.917 -79.0913)
(199.976 -51.9989 97.4448)
(95.1696 -156.303 -91.7924)
(192.464 91.6434 83.0207)
(197.886 -17.0411 -84.5924)
(89.5158 -79.8598 -82.1322)
(83.8389 -2.86148 175.476)
)
;
    }
    procBoundary12to20
    {
        type            processor;
        value           nonuniform List<vector> 
50
(
(26.8278 -113.578 58.6576)
(-76.9233 26.6696 33.5103)
(1.08269 -77.7398 57.7508)
(-105.174 23.2136 50.1706)
(-35.6515 -88.4451 34.6545)
(-112.021 0.342406 39.0225)
(-64.5369 -110.562 -10.3599)
(-103.53 -28.3182 9.55896)
(-75.3957 -117.356 -69.7806)
(-88.5763 -54.4031 1.01593)
(-81.0529 34.3014 54.598)
(1.31362 -89.0707 97.8443)
(-77.653 21.5436 66.7918)
(-3.3788 -75.3814 77.5603)
(-75.2821 16.3638 50.2489)
(-15.2201 -90.4696 22.7822)
(-53.7188 -7.57438 15.3699)
(-29.035 -98.4242 -57.3429)
(-40.014 -36.0883 3.44111)
(-42.5695 -96.2547 -135.384)
(-3.84026 -162.364 120.823)
(-81.7329 18.4704 88.167)
(3.54715 -85.1402 114.127)
(-60.6257 19.5176 87.5843)
(-0.590765 -85.1697 77.2693)
(-46.9607 5.24419 52.3016)
(-9.85229 -97.7413 -11.8686)
(-29.2738 -23.8591 15.8422)
(-28.5963 -97.9273 -124.182)
(-59.675 -43.0232 -14.6072)
(-63.5953 16.7763 80.5243)
(11.9307 -147.67 99.6873)
(-54.9514 -2.32588 88.9913)
(3.78457 -117.725 87.2435)
(-44.2574 -17.2011 63.9354)
(-1.52512 -120.914 12.1167)
(-28.0115 -30.9789 33.5838)
(-13.3533 -121.454 -61.5564)
(-30.8016 -36.893 36.2263)
(-44.6411 -120.006 -147.105)
(22.076 -196.299 26.5625)
(-35.8506 8.70822 75.5766)
(31.6436 -147.243 44.1162)
(-14.4784 -9.908 64.6427)
(38.4478 -119.101 19.4782)
(3.35702 -10.0269 38.1094)
(28.358 -102.223 -35.9635)
(3.48872 0.318653 53.7856)
(7.15372 -82.0666 -79.8938)
(-14.0743 12.5908 94.2032)
)
;
    }
}


// ************************************************************************* //
