/*--------------------------------*- C++ -*----------------------------------*\
| =========                 |                                                 |
| \\      /  F ield         | OpenFOAM: The Open Source CFD Toolbox           |
|  \\    /   O peration     | Version:  2.4.0                                 |
|   \\  /    A nd           | Web:      www.OpenFOAM.org                      |
|    \\/     M anipulation  |                                                 |
\*---------------------------------------------------------------------------*/
FoamFile
{
    version     2.0;
    format      ascii;
    class       volVectorField;
    location    "0.05";
    object      Uc;
}
// * * * * * * * * * * * * * * * * * * * * * * * * * * * * * * * * * * * * * //

dimensions      [0 1 -1 0 0 0 0];

internalField   nonuniform List<vector> 
200
(
(6.96876e-29 7.11031e-29 -2.90916e-29)
(5.57057e-31 5.68367e-31 -2.26964e-31)
(2.67887e-33 4.02305e-33 -2.04501e-33)
(-2.05721e-31 -4.21983e-32 -4.40383e-32)
(-2.55891e-29 -5.2521e-30 -5.47541e-30)
(-3.0222e-27 -6.20301e-28 -6.46676e-28)
(-3.35792e-25 -6.89206e-26 -7.1851e-26)
(-3.46672e-23 -7.11538e-24 -7.41792e-24)
(-3.27012e-21 -6.71186e-22 -6.99727e-22)
(-2.75193e-19 -5.64829e-20 -5.88851e-20)
(4.29872e-31 3.70461e-31 -6.9335e-32)
(3.66923e-33 3.18994e-33 -7.80744e-34)
(1.3434e-35 2.26156e-35 -1.21925e-35)
(-2.05992e-33 -4.22624e-34 -4.18442e-34)
(-2.42727e-31 -4.9817e-32 -4.93703e-32)
(-2.70739e-29 -5.55662e-30 -5.51966e-30)
(-2.83108e-27 -5.81049e-28 -5.79147e-28)
(-2.74003e-25 -5.62363e-26 -5.634e-26)
(-2.41222e-23 -4.95087e-24 -5.00032e-24)
(-1.88488e-21 -3.8686e-22 -3.96004e-22)
(-1.17987e-30 -5.3715e-30 3.37845e-30)
(3.23847e-33 -4.1896e-32 -3.06345e-32)
(2.33489e-34 -3.44145e-34 -1.15508e-33)
(-9.52242e-36 -6.03437e-36 -2.40863e-35)
(-1.60262e-33 -3.28952e-34 -3.10029e-34)
(-1.69538e-31 -3.47946e-32 -3.30357e-32)
(-1.67664e-29 -3.44102e-30 -3.30064e-30)
(-1.52994e-27 -3.13996e-28 -3.05123e-28)
(-1.26544e-25 -2.59715e-26 -2.56675e-26)
(-9.24874e-24 -1.89823e-24 -1.9164e-24)
(3.00288e-28 -7.1024e-29 -1.55667e-27)
(7.09476e-30 -1.67961e-30 -3.48698e-29)
(1.32677e-31 -3.14189e-32 -6.2598e-31)
(2.09334e-33 -4.95802e-34 -9.49711e-33)
(2.06422e-35 -8.56032e-36 -1.2792e-34)
(-8.36301e-34 -1.71789e-34 -1.57746e-34)
(-7.85963e-32 -1.61301e-32 -1.49056e-32)
(-6.79309e-30 -1.39414e-30 -1.31276e-30)
(-5.30363e-28 -1.08848e-28 -1.04965e-28)
(-3.64376e-26 -7.47839e-27 -7.41973e-27)
(1.88271e-26 1.92101e-26 -8.13234e-27)
(1.42947e-28 1.45856e-28 -6.08787e-29)
(4.68154e-31 9.45024e-31 -5.61796e-31)
(-7.84439e-29 -1.60945e-29 -1.67898e-29)
(-1.0296e-26 -2.11323e-27 -2.2031e-27)
(-1.28709e-24 -2.64172e-25 -2.75406e-25)
(-1.51876e-22 -3.11722e-23 -3.24979e-23)
(-1.67154e-20 -3.43081e-21 -3.57672e-21)
(-1.68813e-18 -3.46486e-19 -3.61223e-19)
(-1.52845e-16 -3.13711e-17 -3.27056e-17)
(1.053e-28 8.14972e-29 -1.52846e-30)
(8.60753e-31 6.8106e-31 -7.90714e-32)
(1.04072e-33 4.20694e-33 -2.50577e-33)
(-7.44018e-31 -1.52672e-31 -1.51627e-31)
(-9.22242e-29 -1.89281e-29 -1.88282e-29)
(-1.08502e-26 -2.2269e-27 -2.22106e-27)
(-1.20025e-24 -2.4634e-25 -2.46605e-25)
(-1.23287e-22 -2.53035e-23 -2.54669e-23)
(-1.1561e-20 -2.3728e-21 -2.40759e-21)
(-9.66157e-19 -1.98299e-19 -2.03814e-19)
(-5.57904e-28 -2.15314e-27 1.81308e-27)
(-6.63573e-31 -1.56166e-29 -2.57025e-30)
(4.95733e-32 -1.17106e-31 -2.63152e-31)
(-3.81217e-33 -1.95338e-33 -6.04772e-33)
(-5.77604e-31 -1.18555e-31 -1.12559e-31)
(-6.42545e-29 -1.31871e-29 -1.26227e-29)
(-6.69899e-27 -1.37486e-27 -1.33007e-27)
(-6.4619e-25 -1.32622e-25 -1.30009e-25)
(-5.6666e-23 -1.16301e-23 -1.15934e-23)
(-4.40473e-21 -9.0404e-22 -9.19481e-22)
(9.07994e-26 -2.15599e-26 -4.75016e-25)
(2.02489e-27 -4.80044e-28 -1.01061e-26)
(3.58768e-29 -8.50111e-30 -1.72624e-28)
(5.37995e-31 -1.27465e-31 -2.50141e-30)
(4.24253e-33 -2.26489e-33 -3.24338e-32)
(-3.00968e-31 -6.1804e-32 -5.72756e-32)
(-2.972e-29 -6.0994e-30 -5.70904e-30)
(-2.70542e-27 -5.55239e-28 -5.29842e-28)
(-2.2298e-25 -4.57634e-26 -4.47296e-26)
(-1.62111e-23 -3.32718e-24 -3.34073e-24)
(2.68836e-24 2.74311e-24 -1.19608e-24)
(1.92775e-26 1.96708e-26 -8.57728e-27)
(-1.29837e-29 1.05805e-28 -9.04571e-29)
(-2.10844e-26 -4.3268e-27 -4.51218e-27)
(-2.92869e-24 -6.01107e-25 -6.26675e-25)
(-3.88779e-22 -7.97961e-23 -8.31902e-23)
(-4.89012e-20 -1.00369e-20 -1.04638e-20)
(-5.76168e-18 -1.18257e-18 -1.23288e-18)
(-6.25988e-16 -1.28483e-16 -1.33948e-16)
(-6.13172e-14 -1.25852e-14 -1.31207e-14)
(1.2283e-26 5.58733e-27 6.8994e-27)
(9.67663e-29 4.96667e-29 3.79344e-29)
(-6.49581e-31 1.19382e-31 -1.34745e-31)
(-1.8886e-28 -3.87598e-29 -3.86244e-29)
(-2.46889e-26 -5.06716e-27 -5.06073e-27)
(-3.07244e-24 -6.30589e-25 -6.31694e-25)
(-3.60673e-22 -7.4025e-23 -7.44552e-23)
(-3.94577e-20 -8.09838e-21 -8.19123e-21)
(-3.95689e-18 -8.12126e-19 -8.28115e-19)
(-3.55259e-16 -7.29154e-17 -7.52635e-17)
(-1.84977e-25 -6.08926e-25 6.55085e-25)
(-7.49677e-28 -4.07773e-27 2.08663e-27)
(2.58236e-30 -2.75407e-29 -2.08757e-29)
(-1.06668e-30 -4.36505e-31 -8.09727e-31)
(-1.46243e-28 -3.00158e-29 -2.87234e-29)
(-1.71491e-26 -3.51958e-27 -3.39834e-27)
(-1.88992e-24 -3.87879e-25 -3.78666e-25)
(-1.93283e-22 -3.9669e-23 -3.92499e-23)
(-1.80289e-20 -3.70026e-21 -3.72178e-21)
(-1.49587e-18 -3.07019e-19 -3.14569e-19)
(1.47005e-23 -3.49507e-24 -7.75292e-23)
(3.07942e-25 -7.30361e-26 -1.56144e-24)
(5.14975e-27 -1.22047e-27 -2.52903e-26)
(7.31577e-29 -1.73356e-29 -3.48876e-28)
(2.31653e-31 -3.57784e-31 -4.38052e-30)
(-7.60457e-29 -1.56114e-29 -1.46105e-29)
(-7.90819e-27 -1.62301e-27 -1.53972e-27)
(-7.60062e-25 -1.55991e-25 -1.50938e-25)
(-6.63064e-23 -1.36086e-23 -1.34857e-23)
(-5.11612e-21 -1.05005e-21 -1.06653e-21)
(1.3915e-26 5.39605e-27 9.9601e-27)
(-1.55828e-29 2.49278e-29 3.55833e-29)
(-1.96273e-26 -4.02821e-27 -4.19964e-27)
(-2.99891e-24 -6.1552e-25 -6.41704e-25)
(-4.42331e-22 -9.07875e-23 -9.46497e-23)
(-6.25911e-20 -1.28467e-20 -1.33932e-20)
(-8.42811e-18 -1.72985e-18 -1.80345e-18)
(-1.06829e-15 -2.19264e-16 -2.28592e-16)
(-1.25568e-13 -2.57725e-14 -2.68691e-14)
(-1.33939e-11 -2.74908e-12 -2.86607e-12)
(-5.4782e-25 -1.5411e-24 2.06285e-24)
(-3.57236e-27 -1.00469e-26 1.34477e-26)
(-1.98409e-28 -9.96529e-29 4.90701e-29)
(-2.5281e-26 -5.18906e-27 -5.19015e-27)
(-3.49564e-24 -7.17449e-25 -7.19664e-25)
(-4.61642e-22 -9.47481e-23 -9.53653e-23)
(-5.77178e-20 -1.18461e-20 -1.19759e-20)
(-6.75261e-18 -1.38593e-18 -1.40932e-18)
(-7.27501e-16 -1.49316e-16 -1.53054e-16)
(-7.05379e-14 -1.44777e-14 -1.50084e-14)
(-3.24772e-23 -9.13513e-23 1.22273e-22)
(-1.99272e-25 -5.60519e-25 7.50237e-25)
(-1.19191e-27 -3.34995e-27 4.48301e-27)
(-1.56759e-28 -5.03105e-29 -3.24376e-30)
(-1.95157e-26 -4.0054e-27 -3.86557e-27)
(-2.41907e-24 -4.96481e-25 -4.83854e-25)
(-2.82666e-22 -5.80138e-23 -5.71863e-23)
(-3.07529e-20 -6.31172e-21 -6.30633e-21)
(-3.06256e-18 -6.28569e-19 -6.38071e-19)
(-2.7235e-16 -5.58987e-17 -5.76781e-17)
(-4.57661e-25 -1.56262e-24 1.60319e-24)
(-1.56126e-27 -1.0524e-26 3.60716e-27)
(1.3056e-29 -7.20256e-29 -8.40031e-29)
(-3.05299e-31 -6.62937e-31 -2.07678e-30)
(-8.65376e-29 -1.77654e-29 -1.65765e-29)
(-1.01198e-26 -2.0769e-27 -1.96435e-27)
(-1.11112e-24 -2.28039e-25 -2.19415e-25)
(-1.13061e-22 -2.32042e-23 -2.27785e-23)
(-1.04709e-20 -2.14905e-21 -2.15946e-21)
(-8.60262e-19 -1.76564e-19 -1.81236e-19)
(3.34183e-29 -3.14274e-29 1.04238e-28)
(-6.8805e-31 -3.78684e-31 5.30456e-31)
(-1.46626e-28 -3.00951e-29 -2.9922e-29)
(-2.11635e-26 -4.34364e-27 -4.32991e-27)
(-2.93896e-24 -6.03199e-25 -6.03023e-25)
(-3.90063e-22 -8.00575e-23 -8.03143e-23)
(-4.90528e-20 -1.00677e-20 -1.01439e-20)
(-5.77837e-18 -1.18597e-18 -1.20156e-18)
(-6.27674e-16 -1.28827e-16 -1.31457e-16)
(-6.147e-14 -1.26165e-14 -1.29938e-14)
(-3.85107e-27 -1.0833e-26 1.43931e-26)
(-2.65972e-29 -7.47935e-29 9.93271e-29)
(-1.55751e-30 -7.82831e-31 3.96568e-31)
(-1.88266e-28 -3.86414e-29 -3.66305e-29)
(-2.46301e-26 -5.05495e-27 -4.83007e-27)
(-3.06799e-24 -6.29661e-25 -6.07073e-25)
(-3.60538e-22 -7.39956e-23 -7.21042e-23)
(-3.94892e-20 -8.10472e-21 -8.00062e-21)
(-3.96449e-18 -8.13678e-19 -8.16354e-19)
(-3.56138e-16 -7.30957e-17 -7.4803e-17)
(-2.14818e-25 -6.04236e-25 8.03125e-25)
(-1.40075e-27 -3.94003e-27 5.23471e-27)
(-8.87407e-30 -2.4938e-29 3.31137e-29)
(-1.22997e-30 -3.94978e-31 -1.47065e-32)
(-1.45531e-28 -2.9868e-29 -2.74641e-29)
(-1.71001e-26 -3.50945e-27 -3.27676e-27)
(-1.88837e-24 -3.87556e-25 -3.68223e-25)
(-1.93492e-22 -3.97115e-23 -3.85103e-23)
(-1.80736e-20 -3.70942e-21 -3.68524e-21)
(-1.50021e-18 -3.07911e-19 -3.13399e-19)
(-3.55604e-27 -1.09035e-26 1.29464e-26)
(-1.96147e-29 -7.64483e-29 6.64911e-29)
(-4.68197e-32 -5.30672e-31 6.62733e-32)
(-4.872e-33 -4.9237e-33 -5.93471e-33)
(-6.81564e-31 -1.39905e-31 -1.24356e-31)
(-7.58614e-29 -1.55687e-29 -1.41189e-29)
(-7.90783e-27 -1.62292e-27 -1.50598e-27)
(-7.61683e-25 -1.56323e-25 -1.48955e-25)
(-6.65324e-23 -1.3655e-23 -1.34258e-23)
(-5.13426e-21 -1.05377e-21 -1.06611e-21)
)
;

boundaryField
{
    inlet
    {
        type            calculated;
        value           nonuniform 0();
    }
    outlet
    {
        type            calculated;
        value           nonuniform 0();
    }
    bottom
    {
        type            calculated;
        value           uniform (0 0 0);
    }
    top
    {
        type            symmetryPlane;
    }
    side1
    {
        type            symmetryPlane;
    }
    side2
    {
        type            symmetryPlane;
    }
    procBoundary12to4
    {
        type            processor;
        value           nonuniform List<vector> 
50
(
(7.37301e-27 7.52327e-27 -3.25216e-27)
(5.59895e-29 5.71307e-29 -2.45475e-29)
(3.28968e-31 4.00094e-31 -1.94681e-31)
(-1.08436e-29 -2.22329e-30 -2.32224e-30)
(-1.42833e-27 -2.93162e-28 -3.05642e-28)
(-1.7924e-25 -3.67887e-26 -3.83549e-26)
(-2.12433e-23 -4.36014e-24 -4.54577e-24)
(-2.34989e-21 -4.8231e-22 -5.02845e-22)
(-2.38723e-19 -4.89974e-20 -5.10837e-20)
(-2.17646e-17 -4.46714e-18 -4.65735e-18)
(2.10038e-24 2.14321e-24 -9.3461e-25)
(1.50618e-26 1.53691e-26 -6.70214e-27)
(7.37376e-29 9.98834e-29 -5.2731e-29)
(-4.37879e-27 -8.98172e-28 -9.3746e-28)
(-6.10703e-25 -1.25346e-25 -1.30682e-25)
(-8.14348e-23 -1.67143e-23 -1.7426e-23)
(-1.0296e-20 -2.11323e-21 -2.20321e-21)
(-1.2204e-18 -2.50484e-19 -2.6115e-19)
(-1.33529e-16 -2.74065e-17 -2.85736e-17)
(-1.31897e-14 -2.70716e-15 -2.82244e-15)
(3.18662e-22 3.25159e-22 -1.41798e-22)
(2.15069e-24 2.19458e-24 -9.57045e-25)
(5.86765e-27 1.26335e-26 -7.98385e-27)
(-1.25058e-24 -2.56607e-25 -2.67667e-25)
(-1.85301e-22 -3.80326e-23 -3.96521e-23)
(-2.63564e-20 -5.40959e-21 -5.63994e-21)
(-3.57031e-18 -7.328e-19 -7.64005e-19)
(-4.55745e-16 -9.35408e-17 -9.75242e-17)
(-5.40202e-14 -1.10875e-14 -1.15597e-14)
(-5.82106e-12 -1.19476e-12 -1.24564e-12)
(2.10031e-24 2.14311e-24 -9.34524e-25)
(8.10423e-27 1.39405e-26 -8.19032e-27)
(-1.16414e-24 -2.38852e-25 -2.49179e-25)
(-1.89744e-22 -3.89446e-23 -4.06029e-23)
(-2.99869e-20 -6.15475e-21 -6.41684e-21)
(-4.56985e-18 -9.37952e-19 -9.77894e-19)
(-6.66662e-16 -1.36831e-16 -1.42658e-16)
(-9.21896e-14 -1.89217e-14 -1.97276e-14)
(-1.19207e-11 -2.44671e-12 -2.55091e-12)
(-1.41299e-09 -2.90013e-10 -3.02365e-10)
(7.37247e-27 7.52261e-27 -3.26387e-27)
(4.19461e-30 4.64962e-29 -3.57748e-29)
(-8.18332e-27 -1.67928e-27 -1.7384e-27)
(-1.25505e-24 -2.57596e-25 -2.66682e-25)
(-1.85911e-22 -3.81579e-23 -3.95204e-23)
(-2.64378e-20 -5.4263e-21 -5.62238e-21)
(-3.58061e-18 -7.34912e-19 -7.61786e-19)
(-4.56966e-16 -9.37913e-17 -9.72614e-17)
(-5.41537e-14 -1.11149e-14 -1.1531e-14)
(-5.83425e-12 -1.19747e-12 -1.24281e-12)
)
;
    }
    procBoundary12to11
    {
        type            processor;
        value           nonuniform List<vector> 
20
(
(8.29463e-27 8.46355e-27 -3.63693e-27)
(4.78931e-29 4.05093e-29 -5.95732e-30)
(-2.25203e-28 -6.91809e-28 8.12516e-28)
(8.9792e-27 -2.11529e-27 -4.89162e-26)
(2.36292e-24 2.41107e-24 -1.05137e-24)
(1.2258e-26 9.13602e-27 6.73537e-28)
(-9.87608e-26 -2.95303e-25 3.62391e-25)
(2.88116e-24 -6.88875e-25 -1.58151e-23)
(3.58491e-22 3.65792e-22 -1.59506e-22)
(1.48288e-24 5.51965e-25 1.10855e-24)
(-3.07851e-23 -8.94214e-23 1.14362e-22)
(4.99247e-22 -1.19991e-22 -2.74459e-21)
(1.67802e-24 4.84607e-25 1.52717e-24)
(-8.11704e-23 -2.28339e-22 3.05647e-22)
(-5.13266e-21 -1.4437e-20 1.9324e-20)
(-7.83047e-23 -2.29036e-22 2.90026e-22)
(3.48032e-27 -5.07789e-27 1.43188e-26)
(-5.36929e-25 -1.51035e-24 2.00756e-24)
(-3.18213e-23 -8.95059e-23 1.19017e-22)
(-5.28084e-25 -1.51251e-24 1.96034e-24)
)
;
    }
    procBoundary12to13
    {
        type            processor;
        value           nonuniform List<vector> 
20
(
(-1.99318e-17 -4.09096e-18 -4.26517e-18)
(-1.2601e-19 -2.58633e-20 -2.69642e-20)
(-5.75364e-22 -1.18091e-22 -1.22213e-22)
(-2.12047e-24 -4.35215e-25 -4.46308e-25)
(-1.19777e-14 -2.4584e-15 -2.56309e-15)
(-6.9398e-17 -1.42438e-17 -1.48502e-17)
(-2.92433e-19 -6.0021e-20 -6.22795e-20)
(-1.00091e-21 -2.05433e-22 -2.11896e-22)
(-5.23258e-12 -1.07398e-12 -1.11972e-12)
(-2.75575e-14 -5.65613e-15 -5.89697e-15)
(-1.06432e-16 -2.18449e-17 -2.27183e-17)
(-3.36297e-19 -6.90239e-20 -7.15547e-20)
(-1.25425e-09 -2.57433e-10 -2.68397e-10)
(-5.94402e-12 -1.22e-12 -1.27195e-12)
(-2.08664e-14 -4.28279e-15 -4.46153e-15)
(-6.04335e-17 -1.24038e-17 -1.29075e-17)
(-5.24456e-12 -1.07644e-12 -1.11715e-12)
(-2.76269e-14 -5.67037e-15 -5.87785e-15)
(-1.06725e-16 -2.1905e-17 -2.26571e-17)
(-3.37322e-19 -6.92344e-20 -7.14449e-20)
)
;
    }
    procBoundary12to20
    {
        type            processor;
        value           nonuniform List<vector> 
50
(
(1.25027e-25 -2.95589e-26 -6.72386e-25)
(2.7991e-27 -6.62601e-28 -1.43809e-26)
(4.96718e-29 -1.17627e-29 -2.45742e-28)
(7.45805e-31 -1.76635e-31 -3.57761e-30)
(9.84618e-33 -2.33207e-33 -4.59017e-32)
(1.13809e-34 -2.84686e-35 -5.32171e-34)
(-3.05023e-34 -6.30589e-35 -5.95934e-35)
(-2.51523e-32 -5.14947e-33 -4.50095e-33)
(-1.8616e-30 -3.8066e-31 -3.38746e-31)
(-1.20964e-28 -2.46779e-29 -2.24766e-29)
(4.03302e-23 -9.55632e-24 -2.18168e-22)
(8.47947e-25 -2.00889e-25 -4.40353e-24)
(1.41974e-26 -3.36326e-27 -7.13269e-26)
(2.01884e-28 -4.78226e-29 -9.87358e-28)
(2.53232e-30 -5.99846e-31 -1.20865e-29)
(2.75567e-32 -7.04632e-33 -1.34181e-31)
(-1.09765e-31 -2.26583e-32 -2.11717e-32)
(-9.48967e-30 -1.94746e-30 -1.73899e-30)
(-7.38786e-28 -1.51615e-28 -1.38126e-28)
(-5.05693e-26 -1.03781e-26 -9.70512e-27)
(6.99208e-21 -1.65672e-21 -3.8016e-20)
(1.37359e-22 -3.25416e-23 -7.2127e-22)
(2.16098e-24 -5.11922e-25 -1.10331e-23)
(2.89975e-26 -6.86906e-27 -1.44715e-25)
(3.44479e-28 -8.16008e-29 -1.6846e-27)
(3.4315e-30 -9.37483e-31 -1.78682e-29)
(-2.77244e-29 -5.70596e-30 -5.26543e-30)
(-2.51881e-27 -5.16917e-28 -4.70856e-28)
(-2.06773e-25 -4.24351e-26 -3.9475e-26)
(-1.49515e-23 -3.06849e-24 -2.93274e-24)
(4.02642e-23 -9.5555e-24 -2.13924e-22)
(8.44732e-25 -2.00228e-25 -4.31647e-24)
(1.41504e-26 -3.3528e-27 -7.02885e-26)
(2.01538e-28 -4.77462e-29 -9.792e-28)
(2.21232e-30 -6.66063e-31 -1.2131e-29)
(-3.55313e-29 -7.30453e-30 -6.66036e-30)
(-3.68477e-27 -7.56204e-28 -6.89432e-28)
(-3.52618e-25 -7.23666e-26 -6.73021e-26)
(-3.05954e-23 -6.27908e-24 -5.96915e-24)
(-2.34265e-21 -4.80793e-22 -4.70004e-22)
(1.2418e-25 -2.95366e-26 -6.41297e-25)
(2.77128e-27 -6.57358e-28 -1.37289e-26)
(4.92672e-29 -1.16766e-29 -2.37246e-28)
(7.426e-31 -1.75956e-31 -3.49951e-30)
(7.19654e-33 -2.87902e-33 -4.60188e-32)
(-2.80753e-31 -5.76669e-32 -4.96044e-32)
(-2.77364e-29 -5.69201e-30 -4.97051e-30)
(-2.52356e-27 -5.17888e-28 -4.63869e-28)
(-2.07656e-25 -4.26162e-26 -3.92346e-26)
(-1.50302e-23 -3.08467e-24 -2.94821e-24)
)
;
    }
}


// ************************************************************************* //
