/*--------------------------------*- C++ -*----------------------------------*\
| =========                 |                                                 |
| \\      /  F ield         | OpenFOAM: The Open Source CFD Toolbox           |
|  \\    /   O peration     | Version:  2.4.0                                 |
|   \\  /    A nd           | Web:      www.OpenFOAM.org                      |
|    \\/     M anipulation  |                                                 |
\*---------------------------------------------------------------------------*/
FoamFile
{
    version     2.0;
    format      ascii;
    class       volVectorField;
    location    "0.01";
    object      Ub;
}
// * * * * * * * * * * * * * * * * * * * * * * * * * * * * * * * * * * * * * //

dimensions      [0 1 -1 0 0 0 0];

internalField   nonuniform List<vector> 
40
(
(-1.61202e+10 -2.40616e+12 9.73759e+11)
(-2.47151e+11 -2.91925e+12 1.09666e+12)
(-5.51697e+11 -2.51439e+12 1.13863e+12)
(-7.88186e+11 -2.24058e+12 8.75301e+11)
(-9.53937e+11 -1.91324e+12 6.35051e+11)
(2.50865e+10 -2.2533e+12 1.22379e+12)
(-3.4344e+10 -2.23216e+12 1.18806e+12)
(-2.36037e+11 -1.61212e+12 8.51182e+11)
(-3.22739e+11 -1.31596e+12 6.08519e+11)
(-4.08893e+11 -1.37863e+12 6.17175e+11)
(-1.09984e+11 -1.77659e+12 7.54112e+11)
(-2.39591e+11 -1.77038e+12 8.21105e+11)
(-2.97143e+11 -1.14091e+12 5.0726e+11)
(-3.09155e+11 -1.10188e+12 4.70231e+11)
(-3.39824e+11 -7.67434e+11 3.69039e+11)
(-7.3335e+10 -1.22901e+12 4.12621e+11)
(-1.55664e+11 -1.34775e+12 4.01634e+11)
(-2.24885e+11 -9.62429e+11 3.8384e+11)
(-2.74648e+11 -7.51909e+11 3.61508e+11)
(-2.6285e+11 -4.57482e+11 2.03736e+11)
(-4.29773e+11 -4.27456e+12 4.92415e+11)
(-7.43348e+11 -4.16556e+12 4.85596e+11)
(-4.96787e+11 -1.83615e+12 2.84675e+11)
(-5.5022e+11 -1.01609e+12 2.29209e+11)
(-5.9866e+11 -1.36874e+12 1.83645e+11)
(-8.34882e+10 -2.69112e+12 4.81054e+11)
(-2.41596e+11 -3.72575e+12 5.87146e+11)
(-4.14383e+11 -1.22904e+12 2.72836e+11)
(-4.58194e+11 -8.03414e+11 1.60738e+11)
(-4.7465e+11 -9.89561e+11 2.11808e+11)
(9.40993e+10 -2.22829e+12 3.08342e+11)
(-1.27729e+11 -2.15349e+12 2.99064e+11)
(-3.23058e+11 -1.03471e+12 1.7387e+11)
(-1.79179e+11 -7.80827e+11 1.29103e+11)
(-1.53885e+11 -6.11616e+11 9.06964e+10)
(-5.67601e+10 -1.93462e+12 1.17275e+11)
(-1.54877e+11 -1.40883e+12 1.37542e+11)
(-2.46219e+11 -9.88368e+11 1.16437e+11)
(-1.49731e+11 -7.63089e+11 1.03912e+11)
(-1.66279e+11 -4.15296e+11 7.22453e+10)
)
;

boundaryField
{
    inlet
    {
        type            fixedValue;
        value           uniform (6 0 0);
    }
    outlet
    {
        type            zeroGradient;
    }
    bottom
    {
        type            fixedValue;
        value           nonuniform 0();
    }
    top
    {
        type            symmetryPlane;
    }
    side1
    {
        type            symmetryPlane;
    }
    side2
    {
        type            symmetryPlane;
    }
    procBoundary80to16
    {
        type            processor;
        value           nonuniform List<vector> 
20
(
(-1.36308e+11 -6.73657e+11 1.55651e+12)
(-1.71165e+11 -4.21524e+11 1.59932e+12)
(-1.32445e+10 -1.10549e+12 2.38859e+12)
(-9.99472e+10 -7.72867e+11 1.91966e+12)
(-1.94299e+11 -2.90815e+11 1.4563e+12)
(-6.24391e+10 -4.54152e+11 1.49793e+12)
(-1.03344e+11 -2.56737e+11 1.39304e+12)
(-1.43558e+11 -2.59147e+11 1.37871e+12)
(-1.83521e+11 -2.10585e+11 1.18758e+12)
(-1.49071e+11 1.44576e+10 1.08564e+12)
(-1.96357e+10 -1.60337e+11 9.51948e+11)
(-6.3831e+10 -1.51033e+11 8.8112e+11)
(-1.49861e+11 -1.86637e+11 7.95781e+11)
(-1.84632e+11 -5.89229e+10 8.70148e+11)
(-1.38323e+11 2.70969e+10 7.16077e+11)
(8.74033e+09 -3.16977e+11 5.72495e+11)
(-7.44454e+09 -1.6967e+11 5.79541e+11)
(-6.39839e+10 -1.0634e+11 4.89075e+11)
(-1.07523e+11 -5.61703e+10 4.97374e+11)
(-9.08319e+10 2.80417e+10 4.64618e+11)
)
;
    }
    procBoundary80to64
    {
        type            processor;
        value           nonuniform List<vector> 10((-3.48432e+11 -3.15679e+12 2.97962e+11) (-8.02018e+11 -4.04968e+12 9.1379e+11) (-1.35805e+12 -4.30465e+12 1.11142e+12) (-1.58673e+12 -3.00425e+12 9.0527e+11) (-1.6044e+12 -2.66999e+12 8.95552e+11) (-7.66403e+11 -6.89539e+12 3.32905e+11) (-1.33953e+12 -4.12929e+12 2.22547e+11) (-1.04074e+12 -2.07054e+12 3.0101e+11) (-1.18718e+12 -1.66066e+12 2.74274e+11) (-1.57401e+12 -2.52214e+12 3.73816e+11));
    }
    procBoundary80to81
    {
        type            processor;
        value           nonuniform List<vector> 8((-8.41281e+11 -1.23207e+12 5.64226e+11) (-5.29925e+11 -9.73829e+11 5.51788e+11) (-3.915e+11 -7.00258e+11 3.55785e+11) (-3.26814e+11 -9.60166e+11 3.13557e+11) (-6.69751e+11 -1.4677e+12 1.48683e+11) (-5.42247e+11 -9.81152e+11 1.84438e+11) (-2.33436e+11 -5.22979e+11 1.04286e+11) (-1.58089e+11 -3.58132e+11 7.96085e+10));
    }
    procBoundary80to96
    {
        type            processor;
        value           nonuniform List<vector> 10((2.6864e+09 -1.11452e+12 3.53546e+11) (-7.03304e+10 -1.03843e+12 3.56881e+11) (-1.49781e+11 -7.22171e+11 3.02619e+11) (-2.05038e+11 -6.07326e+11 2.83753e+11) (-1.99912e+11 -4.95144e+11 2.27305e+11) (-9.31829e+10 -1.59022e+12 1.5298e+11) (-1.76131e+11 -1.14476e+12 1.00122e+11) (-1.72301e+11 -7.44314e+11 1.15556e+11) (-2.43964e+11 -5.93256e+11 1.07533e+11) (-2.35039e+11 -3.4706e+11 6.94368e+10));
    }
}


// ************************************************************************* //
