/*--------------------------------*- C++ -*----------------------------------*\
| =========                 |                                                 |
| \\      /  F ield         | OpenFOAM: The Open Source CFD Toolbox           |
|  \\    /   O peration     | Version:  2.4.0                                 |
|   \\  /    A nd           | Web:      www.OpenFOAM.org                      |
|    \\/     M anipulation  |                                                 |
\*---------------------------------------------------------------------------*/
FoamFile
{
    version     2.0;
    format      ascii;
    class       volScalarField;
    location    "0.01";
    object      nut;
}
// * * * * * * * * * * * * * * * * * * * * * * * * * * * * * * * * * * * * * //

dimensions      [0 2 -1 0 0 0 0];

internalField   nonuniform List<scalar> 
51
(
30674.6
15462.8
55183.6
64334.4
62886.5
43513.3
95019.5
88271.5
57105.5
65803.6
74783.4
33034.6
38128.5
33065.6
26664.8
16093.7
38562.6
22380.1
13141.9
9856.17
11254.9
97418.6
92936.8
73253.1
48412.1
29461.5
60945.3
70199.2
91357.5
121703
123000
38046.1
31594.9
18216.1
11022.4
15008.2
85336.1
47235.5
53956.8
51672.7
31819.4
142602
91036.9
59670.4
49914.6
54478.7
119695
188369
238548
180640
159489
)
;

boundaryField
{
    inlet
    {
        type            calculated;
        value           nonuniform 0();
    }
    outlet
    {
        type            calculated;
        value           nonuniform 0();
    }
    bottom
    {
        type            calculated;
        value           nonuniform 0();
    }
    top
    {
        type            symmetryPlane;
    }
    side1
    {
        type            symmetryPlane;
    }
    side2
    {
        type            symmetryPlane;
    }
    procBoundary74to10
    {
        type            processor;
        value           nonuniform List<scalar> 
27
(
31334.3
8994.65
58004.4
35541.9
49567.1
46075.3
68590.7
68690.2
82723.5
79902.3
52854.1
59649.2
54727.5
30775.5
16211.8
16211.8
8578.2
8578.2
50153.9
29737.4
29737.4
39968.3
39968.3
39968.3
55910.6
55910.6
55910.6
)
;
    }
    procBoundary74to73
    {
        type            processor;
        value           nonuniform List<scalar> 9(93667.9 33153.5 67055.9 103361 75917 36354 112005 195654 156516);
    }
    procBoundary74to75
    {
        type            processor;
        value           nonuniform List<scalar> 
11
(
14512.2
19879.7
53877.6
7010.22
11409.8
17976.4
90196.9
13388.3
17109
60375.2
150345
)
;
    }
    procBoundary74to90
    {
        type            processor;
        value           nonuniform List<scalar> 
15
(
49257.4
53597.7
55617.7
72591.9
75327.4
63830.7
92182.2
51743.9
53844.6
85041.2
210841
107334
178721
171758
102144
)
;
    }
}


// ************************************************************************* //
