/*--------------------------------*- C++ -*----------------------------------*\
| =========                 |                                                 |
| \\      /  F ield         | OpenFOAM: The Open Source CFD Toolbox           |
|  \\    /   O peration     | Version:  2.4.0                                 |
|   \\  /    A nd           | Web:      www.OpenFOAM.org                      |
|    \\/     M anipulation  |                                                 |
\*---------------------------------------------------------------------------*/
FoamFile
{
    version     2.0;
    format      ascii;
    class       volSymmTensorField;
    location    "0.16";
    object      B;
}
// * * * * * * * * * * * * * * * * * * * * * * * * * * * * * * * * * * * * * //

dimensions      [0 2 -2 0 0 0 0];

internalField   nonuniform List<symmTensor> 
200
(
(1.2887e+29 3.15576e+28 -1.98924e+27 1.67182e+29 -3.20223e+27 1.26897e+29)
(1.80456e+28 7.62956e+27 -1.06169e+28 3.62145e+28 -3.74199e+27 2.78639e+28)
(1.35003e+29 1.44612e+28 -1.5149e+28 1.75038e+29 -4.40779e+27 1.41092e+29)
(1.81504e+28 1.61831e+28 -1.91966e+28 -3.10395e+27 -4.57205e+27 2.49526e+28)
(2.27054e+28 1.11495e+28 -3.07468e+28 2.4497e+28 4.34884e+27 2.58079e+28)
(1.64183e+29 -7.87229e+27 -3.21182e+28 2.29975e+29 5.31141e+26 1.93276e+29)
(1.42684e+29 1.17808e+28 -4.79078e+28 2.27115e+29 1.23952e+27 1.87241e+29)
(8.81791e+28 5.42196e+27 -4.26911e+28 1.56277e+29 1.13879e+27 1.24965e+29)
(1.61533e+29 6.11623e+27 -6.40274e+28 1.96081e+29 1.2874e+28 1.84016e+29)
(1.49159e+29 1.7154e+28 -8.09312e+28 1.84635e+29 3.00343e+28 1.87401e+29)
(2.4275e+28 6.49774e+27 -3.4955e+27 3.14633e+28 -1.76376e+27 2.51326e+28)
(8.01388e+28 4.53764e+28 -1.91011e+28 1.42701e+29 -1.41615e+27 1.10602e+29)
(1.31753e+29 -2.61218e+28 -2.91891e+28 1.50572e+29 5.20104e+27 1.29658e+29)
(9.50886e+29 -3.19467e+28 -1.40067e+28 9.13981e+29 -1.98248e+28 8.69899e+29)
(3.99922e+29 9.53605e+28 -8.18174e+27 5.18236e+29 -1.44678e+28 4.79196e+29)
(1.65054e+29 5.15598e+28 -4.72458e+28 2.96908e+29 1.07052e+28 2.51108e+29)
(3.49381e+29 2.80952e+28 -5.56984e+28 3.7103e+29 -6.87088e+27 3.07567e+29)
(1.36381e+29 1.24626e+28 -5.28189e+28 2.06076e+29 9.68521e+27 1.69255e+29)
(1.13091e+29 1.4146e+28 -5.19676e+28 2.38481e+29 1.53019e+28 1.834e+29)
(3.60868e+29 3.5533e+28 -8.19824e+28 4.37882e+29 1.27808e+28 3.95458e+29)
(5.93431e+28 2.66189e+28 -1.03515e+28 1.0221e+29 -2.60158e+27 5.59447e+28)
(7.42293e+28 2.47032e+28 -1.10211e+28 7.82282e+28 6.2337e+27 5.77434e+28)
(4.83904e+28 3.83338e+28 -1.56268e+28 4.78192e+28 -1.68905e+26 5.2164e+28)
(8.61624e+29 5.75467e+28 -4.4306e+28 9.81683e+29 9.17024e+27 8.71141e+29)
(1.49208e+29 -4.62703e+27 -7.56831e+27 1.86682e+29 5.75404e+27 1.53958e+29)
(1.52892e+29 7.95901e+28 -4.99699e+28 1.74623e+29 -1.88881e+26 1.38966e+29)
(1.74188e+29 4.90359e+28 -2.45212e+28 1.88398e+29 1.78734e+28 1.50411e+29)
(3.48968e+29 7.43288e+28 -1.36192e+28 3.50925e+29 1.00203e+29 3.56549e+29)
(4.21577e+29 6.24198e+28 -4.35834e+28 5.94456e+29 -5.24985e+26 5.05887e+29)
(-9.25559e+27 5.28872e+28 -7.7598e+28 1.957e+29 4.17427e+28 1.37558e+29)
(3.54482e+28 2.101e+28 -9.12402e+27 6.18759e+28 1.24666e+28 3.48431e+28)
(-9.7503e+27 9.09434e+26 -9.95826e+27 -3.66137e+27 -1.54576e+27 -1.50903e+27)
(7.10844e+29 5.4443e+28 -6.30331e+28 7.30662e+29 -2.36408e+28 6.70363e+29)
(1.81691e+28 9.16243e+27 -2.46857e+27 1.78721e+28 3.11422e+27 1.06227e+28)
(2.11252e+29 1.38746e+29 -6.65248e+28 5.32462e+28 8.74049e+28 6.37802e+27)
(3.65841e+29 6.39497e+28 -1.88558e+28 3.09701e+29 3.67647e+28 2.4999e+29)
(1.13086e+30 1.87341e+28 1.48171e+29 1.08189e+30 9.00102e+28 1.08809e+30)
(5.53922e+29 1.08182e+29 -4.76752e+28 7.21241e+29 1.51098e+28 7.89568e+29)
(3.41415e+29 1.51695e+29 -3.41445e+29 4.3762e+29 1.06593e+29 4.31727e+29)
(1.44426e+30 2.34683e+29 -7.20192e+28 1.41246e+30 1.96539e+28 1.33586e+30)
(2.09369e+29 2.98589e+27 -2.06608e+28 2.27236e+29 -1.06103e+28 2.4283e+29)
(3.82822e+28 2.33083e+27 1.05247e+28 6.43325e+28 -6.37445e+27 6.08085e+28)
(5.44866e+28 6.2767e+27 -3.51487e+27 6.4619e+28 -6.44992e+27 7.44518e+28)
(9.35924e+28 8.79142e+27 1.2509e+28 1.29555e+29 -1.10516e+28 1.40313e+29)
(1.15916e+29 3.18867e+27 -6.89732e+26 1.44321e+29 -9.317e+27 1.49518e+29)
(1.17395e+29 -2.69031e+27 8.91193e+27 1.56249e+29 -3.59972e+27 1.40282e+29)
(1.87637e+28 4.00043e+27 7.22345e+27 1.3395e+28 -8.29514e+27 2.31556e+28)
(-7.55484e+27 6.3639e+27 1.30209e+28 6.39661e+27 -4.56717e+26 7.15586e+27)
(1.14422e+29 6.95197e+27 1.6934e+28 1.24808e+29 -9.0894e+27 1.23125e+29)
(1.03732e+29 4.04362e+28 1.36713e+28 1.48782e+29 -2.27242e+28 1.41757e+29)
(2.02174e+29 1.99331e+28 2.12723e+28 2.15856e+29 -1.79066e+27 2.07767e+29)
(3.18147e+28 4.78305e+27 -3.71802e+27 4.19188e+28 -4.54674e+27 4.40794e+28)
(5.72597e+28 8.55694e+27 1.22884e+28 8.08702e+28 -2.27648e+28 6.46297e+28)
(3.09803e+29 1.66208e+28 -5.904e+27 3.67671e+29 -3.83635e+27 3.77917e+29)
(2.63706e+29 2.39714e+28 -1.54344e+28 3.36334e+29 -4.14944e+27 3.57909e+29)
(2.67571e+29 -8.38639e+27 -8.84508e+27 2.73136e+29 -1.01755e+28 2.45251e+29)
(9.4203e+28 -3.15718e+27 1.9751e+28 1.32551e+29 -8.61421e+27 1.15935e+29)
(1.10762e+29 1.85798e+28 1.53736e+28 1.88401e+29 -1.10774e+28 1.74091e+29)
(7.7004e+28 1.79319e+28 -3.99579e+27 7.03135e+28 -1.2165e+27 7.30759e+28)
(8.67521e+28 1.00789e+27 1.56065e+28 7.09562e+28 -2.02505e+28 6.9699e+28)
(1.63454e+28 9.1641e+27 5.87781e+27 4.5233e+28 -1.28998e+27 3.13571e+28)
(1.3016e+28 1.62485e+28 4.89609e+27 2.38451e+28 -1.07056e+28 1.31291e+28)
(1.39058e+29 3.54944e+28 -6.069e+27 1.87358e+29 -5.57672e+27 1.33025e+29)
(-5.12618e+27 1.84323e+28 -1.82024e+27 1.92334e+28 -1.02623e+28 1.70474e+28)
(1.27344e+29 3.60871e+28 -6.13284e+27 2.15607e+29 -3.4183e+28 1.84091e+29)
(9.85221e+27 1.06191e+28 1.66307e+27 2.54293e+28 -8.29138e+25 1.98623e+28)
(7.87498e+28 9.48458e+27 -1.66299e+28 2.10372e+29 -1.83967e+28 1.66667e+29)
(1.64085e+29 1.08138e+28 2.55671e+28 2.56457e+29 -3.12494e+28 2.06973e+29)
(2.22034e+28 1.50897e+28 -1.3799e+28 6.72455e+28 -1.17267e+28 5.35341e+28)
(4.15054e+29 5.71304e+28 -5.02213e+26 5.26921e+29 -5.3536e+28 5.43237e+29)
(3.12611e+28 1.18244e+28 1.02717e+28 9.31795e+27 1.21349e+27 1.01535e+28)
(1.06229e+29 3.40103e+28 -1.10093e+28 1.60418e+29 -1.24383e+28 1.09522e+29)
(-7.41977e+27 9.46681e+26 1.67517e+27 4.62244e+27 -8.07505e+26 3.0187e+27)
(2.50412e+29 3.22061e+28 -4.1359e+28 2.45188e+29 -2.60099e+28 2.62804e+29)
(4.25558e+28 3.11675e+27 -2.10423e+25 4.77413e+28 -9.25817e+26 4.59388e+28)
(-2.66793e+27 4.28881e+27 6.78724e+26 1.76461e+28 -2.89852e+28 5.72177e+28)
(1.40932e+29 2.52591e+28 -2.30553e+27 1.57952e+29 -9.48161e+27 1.3685e+29)
(3.4673e+28 3.02344e+28 -6.85786e+27 3.31173e+28 -1.66576e+28 -1.37796e+28)
(1.54202e+30 3.2099e+28 -5.19309e+27 1.64765e+30 -1.08172e+29 1.73214e+30)
(1.20323e+28 3.11475e+28 -3.38048e+28 5.49542e+28 -1.09003e+28 4.80137e+28)
(2.21857e+29 -8.25235e+27 2.91644e+28 3.05036e+29 -3.36737e+28 2.95579e+29)
(2.37465e+29 -1.36677e+28 -1.80453e+28 3.634e+29 -6.68347e+28 4.29276e+29)
(9.30086e+29 2.79373e+27 1.15019e+29 7.22887e+29 -1.45305e+28 9.29795e+29)
(3.53429e+29 -2.84471e+28 4.38242e+28 2.60669e+29 -1.64914e+28 3.46255e+29)
(-1.17293e+29 1.62893e+28 2.88941e+28 -7.72406e+28 3.31851e+28 -5.62896e+28)
(4.446e+29 -5.27696e+26 -1.693e+28 4.71637e+29 -3.13058e+28 5.04229e+29)
(1.04303e+29 -3.97386e+28 2.54563e+28 1.22846e+29 -7.04274e+27 8.71488e+28)
(5.70236e+29 -4.94706e+28 7.59038e+28 5.78826e+29 -3.07507e+28 6.54086e+29)
(2.37646e+29 -4.90613e+28 5.30567e+28 2.51764e+29 -2.33671e+28 2.29002e+29)
(4.34519e+29 -4.22306e+28 6.95658e+28 4.81004e+29 -7.38928e+28 5.54783e+29)
(1.27575e+29 -3.04376e+27 -5.64207e+27 1.7112e+29 -2.89992e+28 1.88196e+29)
(2.57098e+29 -2.65467e+28 3.2442e+26 2.93042e+29 -3.93554e+28 2.77714e+29)
(3.7658e+29 -1.26416e+28 3.85979e+28 4.69678e+29 -4.68756e+28 5.00493e+29)
(8.44044e+29 -1.67186e+28 1.33657e+29 9.57595e+29 -4.07466e+28 9.70992e+29)
(9.98344e+29 4.68544e+28 -6.08076e+28 1.01948e+30 -4.89834e+28 9.994e+29)
(5.98236e+27 9.99814e+27 -5.61736e+28 7.33649e+28 -3.1582e+28 5.31575e+28)
(3.70715e+29 -3.48506e+28 4.17556e+28 3.55245e+29 -2.85972e+28 4.25483e+29)
(7.70827e+28 -1.35136e+28 4.08557e+28 6.99765e+28 -9.83655e+27 4.02561e+28)
(4.38152e+29 -3.86946e+28 4.67906e+28 5.218e+29 -4.30414e+28 5.39611e+29)
(3.73115e+28 1.27913e+28 2.9382e+28 -5.05846e+27 -5.56603e+27 1.4875e+28)
(3.36621e+28 -7.74642e+27 7.21561e+27 6.97612e+28 -1.60125e+28 5.26473e+28)
(2.69153e+29 7.04442e+27 -1.14382e+28 2.83995e+29 -2.09525e+28 2.91323e+29)
(2.33567e+29 7.08291e+27 -5.74477e+26 3.20582e+29 -2.47945e+28 3.0039e+29)
(5.42522e+29 2.73617e+28 3.03243e+27 6.48188e+29 -4.30568e+28 6.22132e+29)
(4.57132e+29 7.98838e+27 -2.14901e+27 5.46029e+29 -7.37301e+28 5.27673e+29)
(5.54085e+28 -6.41948e+27 4.15914e+27 8.10593e+28 -4.15487e+28 1.05327e+29)
(1.62166e+29 -8.32651e+27 1.48366e+29 1.91796e+29 -1.14024e+29 -9.24951e+27)
(-5.88467e+27 4.67814e+28 6.79592e+28 -2.93795e+28 -1.08008e+29 1.56183e+29)
(1.16662e+30 -7.48961e+28 1.69943e+29 6.45553e+29 1.11642e+29 8.67544e+29)
(5.77953e+29 -1.95141e+29 -4.79998e+28 8.72615e+29 -1.12561e+29 7.98673e+29)
(2.62444e+28 1.24946e+27 1.31578e+27 4.14224e+28 -4.9291e+27 3.56184e+28)
(1.65779e+28 9.00718e+26 6.06559e+27 5.56244e+28 -1.55879e+28 3.90672e+28)
(2.1103e+28 1.42282e+27 -4.88359e+27 4.38096e+28 -8.5928e+27 3.49306e+28)
(6.71344e+27 1.15695e+28 -1.09895e+27 2.97227e+28 -7.0752e+27 2.42917e+28)
(3.42247e+28 2.29501e+28 -2.20931e+28 7.66135e+28 -6.19654e+28 1.31792e+29)
(1.34201e+28 2.01716e+28 3.59864e+27 3.33192e+28 -1.76349e+28 3.99585e+28)
(-2.15913e+28 -7.88602e+28 -2.10523e+28 6.62833e+28 -8.53585e+28 1.19902e+29)
(3.16465e+30 -3.68043e+29 4.04426e+29 2.9346e+30 -7.55075e+28 2.82721e+30)
(6.71928e+29 1.88816e+29 -1.2702e+28 7.90618e+29 -6.13395e+28 7.2415e+29)
(1.94093e+30 7.63418e+28 -9.94725e+28 2.12649e+30 -4.19794e+28 2.06593e+30)
(1.27931e+29 -3.80847e+28 2.98091e+28 2.85776e+29 -1.4127e+29 3.79172e+29)
(5.86736e+30 1.88076e+29 4.23563e+29 5.07472e+30 1.10476e+29 5.94025e+30)
(4.12972e+29 -3.80121e+28 -4.55995e+28 3.24952e+29 8.88992e+27 3.00195e+29)
(1.23092e+30 -3.57162e+29 -2.26101e+29 1.13877e+30 4.36114e+28 7.55707e+29)
(8.75232e+29 2.97613e+28 9.16941e+28 7.15133e+29 -6.21832e+28 8.72461e+29)
(2.58715e+29 -2.13817e+29 2.08257e+29 4.37657e+29 -3.10717e+27 -1.52512e+28)
(6.46563e+29 -4.25234e+28 7.97844e+28 5.19465e+29 -6.2503e+28 7.48348e+29)
(2.24727e+29 -1.48564e+29 1.62687e+29 3.74763e+29 -6.61334e+28 1.5877e+29)
(5.72033e+29 -1.46285e+29 9.35507e+28 5.61426e+29 -5.2063e+28 7.27342e+29)
(3.75675e+29 -9.58893e+28 1.18569e+29 4.37882e+29 -7.52367e+28 3.41998e+29)
(2.94568e+29 -6.30977e+28 3.38007e+28 4.5704e+29 -8.13556e+28 4.15149e+29)
(1.03936e+30 -2.44558e+28 6.41673e+28 1.1928e+30 -1.1904e+29 1.41125e+30)
(1.64489e+30 8.0916e+28 2.30554e+29 1.2538e+30 5.45508e+28 1.71709e+30)
(3.17829e+29 3.21427e+27 -2.91121e+28 3.02445e+29 -2.14822e+28 2.3749e+29)
(7.41895e+29 -1.56222e+29 -8.6367e+28 6.65697e+29 7.19814e+28 2.42617e+29)
(8.21553e+29 -2.94488e+28 8.47999e+28 7.50766e+29 -4.55071e+28 8.77665e+29)
(5.95187e+29 -1.89436e+29 1.69779e+29 5.45999e+29 -6.07403e+27 2.95174e+29)
(6.21488e+29 -5.36631e+28 8.97373e+28 5.15681e+29 -6.36261e+28 6.73981e+29)
(2.96287e+29 -1.59654e+29 9.45456e+28 4.18849e+29 -1.99302e+28 2.43313e+29)
(5.58011e+29 -9.0842e+28 7.4076e+28 5.7477e+29 -6.18037e+28 6.81891e+29)
(3.65629e+29 -4.4935e+28 2.95499e+28 4.61623e+29 -4.15365e+28 4.59465e+29)
(3.67295e+29 -9.75668e+27 5.07773e+28 4.88304e+29 -2.51849e+28 4.56432e+29)
(6.09423e+29 4.27936e+28 -1.50082e+28 7.03991e+29 -7.44725e+28 7.20059e+29)
(1.07139e+29 3.73153e+28 5.86381e+28 1.64987e+29 -5.34477e+28 2.81953e+29)
(5.29322e+29 -1.14955e+28 2.60265e+28 5.17408e+29 -3.48684e+28 5.42229e+29)
(4.2227e+29 -6.75886e+28 -3.00351e+28 3.5882e+29 2.39602e+28 6.06595e+28)
(4.81917e+29 -4.30193e+28 4.36678e+28 4.34053e+29 -4.59399e+28 5.20368e+29)
(4.67209e+29 -1.40724e+29 1.26941e+29 4.5333e+29 5.73266e+27 2.67405e+29)
(3.85554e+29 -4.30666e+28 5.68123e+28 3.70118e+29 -9.39899e+28 4.61442e+29)
(3.36237e+29 -8.67145e+28 -8.36302e+27 4.28899e+29 2.59849e+28 2.14304e+29)
(9.04784e+28 -7.16388e+27 1.45088e+28 1.30263e+29 -6.32411e+27 1.21849e+29)
(2.52398e+29 -1.98785e+27 -5.78382e+27 3.1496e+29 -3.68113e+28 2.85354e+29)
(2.02192e+29 5.34335e+27 2.80656e+27 2.87407e+29 -2.34594e+28 2.69641e+29)
(1.23656e+29 1.10296e+28 1.60944e+28 1.57002e+29 -3.26731e+28 1.63957e+29)
(1.06457e+29 1.45181e+28 2.43379e+28 1.45418e+29 -3.65871e+28 1.68168e+29)
(1.93746e+29 -1.30643e+28 1.21696e+28 2.03151e+29 -3.56027e+28 2.24391e+29)
(5.64927e+28 -2.64449e+28 -8.09583e+27 4.72425e+28 6.49061e+27 -4.00598e+28)
(2.19484e+29 -3.83164e+28 1.62609e+28 2.23483e+29 -4.04764e+28 2.90067e+29)
(2.01702e+29 -1.45861e+28 9.88631e+27 2.09219e+29 1.76278e+28 1.16524e+29)
(4.613e+29 -7.54383e+28 4.71633e+28 4.0891e+29 -1.22458e+29 5.4862e+29)
(3.8169e+31 5.97089e+29 4.48849e+29 3.65581e+31 -1.27118e+29 3.68127e+31)
(2.93193e+30 -1.2116e+28 4.01938e+28 2.83553e+30 2.76434e+29 2.56758e+30)
(1.47344e+31 -2.35215e+30 -2.8839e+30 1.77718e+31 1.28296e+29 1.64348e+31)
(4.01772e+30 1.00344e+29 3.97636e+29 3.87847e+30 -1.09372e+29 4.1704e+30)
(-4.08847e+29 -3.12827e+29 5.42324e+29 1.36539e+30 -4.27863e+29 1.0541e+29)
(6.21676e+29 -1.96752e+29 1.31249e+29 7.01497e+29 -1.97207e+29 8.35562e+29)
(3.17879e+29 -1.81409e+29 8.166e+28 7.19551e+29 7.26829e+28 3.62957e+29)
(3.99986e+29 -9.12379e+28 7.6697e+28 2.65645e+29 -1.34693e+29 3.58496e+29)
(2.65814e+29 -1.34724e+29 9.73105e+28 4.01614e+29 1.82405e+28 1.86694e+29)
(6.57688e+29 -1.33034e+29 2.34041e+28 6.03521e+29 -6.56119e+28 5.56529e+29)
(1.18905e+30 -4.13599e+28 1.77046e+29 1.29492e+30 -7.2796e+28 1.19276e+30)
(9.45184e+30 7.58053e+28 1.5756e+29 8.3533e+30 -1.68141e+29 8.69557e+30)
(1.88727e+30 4.67651e+28 -9.31543e+28 1.787e+30 8.41368e+28 1.62235e+30)
(1.16742e+31 -9.63846e+29 -1.62561e+30 1.22995e+31 4.59332e+29 1.17865e+31)
(2.71943e+30 5.53432e+28 1.27894e+29 2.74046e+30 -5.37159e+28 3.01036e+30)
(-2.41338e+28 -2.5139e+29 2.07957e+30 1.93616e+30 -7.88287e+29 1.18173e+30)
(8.38486e+29 -2.66857e+29 1.40554e+29 7.71741e+29 -1.54137e+29 9.56711e+29)
(5.01161e+29 -3.69215e+29 1.42749e+29 9.26856e+29 1.12389e+28 4.68766e+29)
(2.80609e+29 -9.70682e+28 7.96914e+28 2.204e+29 -1.06481e+29 2.58539e+29)
(2.65233e+29 -1.32174e+29 6.32764e+28 4.13179e+29 6.34677e+27 2.19868e+29)
(5.44556e+29 1.41165e+27 2.26054e+28 6.79054e+29 -9.15736e+27 5.80117e+29)
(1.1721e+30 1.33355e+28 1.2621e+28 1.23346e+30 -8.96167e+28 1.11904e+30)
(1.69736e+30 -6.90087e+28 5.24877e+28 1.30123e+30 -6.30823e+28 1.43069e+30)
(3.57532e+29 -2.86237e+28 2.25427e+28 3.3297e+29 -6.786e+26 2.66762e+29)
(9.56212e+30 -3.05754e+29 -8.06688e+29 9.46248e+30 3.74338e+29 9.27091e+30)
(1.61157e+30 1.21545e+28 5.0522e+28 1.63641e+30 -3.04651e+28 1.82049e+30)
(4.54244e+29 -3.35659e+29 1.7765e+30 1.61324e+30 1.70257e+27 1.26255e+30)
(5.22533e+29 -1.57532e+29 8.52759e+28 4.5234e+29 -8.14455e+28 5.78547e+29)
(4.15407e+29 -2.34981e+29 1.08776e+29 6.08603e+29 -8.63145e+27 3.00844e+29)
(1.32727e+29 -3.71985e+28 5.64013e+28 1.51208e+29 -5.85392e+28 1.66391e+29)
(8.17912e+28 -1.78057e+27 -7.53619e+27 1.19868e+29 -1.49667e+28 1.0292e+29)
(6.391e+28 -2.19102e+27 6.03408e+27 9.37161e+28 -7.95453e+27 7.92092e+28)
(5.50878e+28 -9.74629e+27 1.10536e+28 5.72114e+28 -2.19291e+28 5.4807e+28)
(2.20524e+29 -4.52132e+28 2.24319e+28 1.6907e+29 -4.30308e+28 1.90158e+29)
(8.066e+28 -2.99292e+28 1.80176e+28 1.10871e+29 -1.99767e+28 7.62334e+28)
(2.56976e+30 -1.4046e+29 -2.56867e+29 2.49945e+30 3.01717e+29 2.43361e+30)
(2.21686e+29 -3.9917e+27 3.75145e+28 2.09438e+29 -2.65375e+28 3.29875e+29)
(1.03149e+29 -1.11692e+29 1.63099e+29 5.06784e+28 7.34285e+28 3.26512e+28)
(2.45447e+29 -1.35992e+28 3.50403e+28 1.59983e+29 -2.96342e+28 2.71909e+29)
(2.89693e+29 -5.06099e+28 3.04276e+28 3.89363e+29 9.5876e+27 2.86353e+29)
)
;

boundaryField
{
    inlet
    {
        type            calculated;
        value           nonuniform 0();
    }
    outlet
    {
        type            calculated;
        value           nonuniform 0();
    }
    bottom
    {
        type            calculated;
        value           nonuniform List<symmTensor> 
40
(
(-4.89867e+12 1.48635e+13 -1.12616e+13 1.31462e+13 -5.73259e+12 -1.29754e+13)
(-4.65673e+12 8.14627e+12 -1.63017e+13 4.35536e+12 -5.57474e+12 -4.063e+12)
(-3.77948e+12 8.95431e+12 -8.05552e+12 1.06406e+13 -2.89973e+12 -1.04811e+13)
(-3.12696e+12 7.67123e+12 -1.03093e+13 6.52243e+12 8.811e+12 -5.16634e+12)
(-8.78753e+12 5.56119e+12 -2.16169e+13 4.4558e+12 -7.25398e+12 -3.58058e+12)
(-1.49159e+13 1.74745e+13 -1.54958e+13 9.17663e+12 -1.89403e+12 -8.47766e+12)
(3.04719e+12 8.99763e+12 -1.26721e+13 4.50373e+12 5.27449e+12 -2.49628e+12)
(-6.52232e+12 4.99046e+11 -8.92909e+12 -3.18105e+12 1.31939e+12 -2.87246e+12)
(-5.55381e+12 7.52351e+12 -2.07159e+13 1.52742e+13 -3.71166e+12 -7.36009e+12)
(-3.44978e+12 -1.31296e+13 -3.29084e+13 6.00899e+12 1.18768e+13 -2.85801e+12)
(-4.59668e+12 1.68707e+13 -9.77973e+12 -4.84809e+12 2.21127e+12 -4.6636e+12)
(8.44118e+12 1.95389e+13 -3.21096e+13 1.55538e+13 -8.20234e+12 -1.10931e+13)
(-4.54926e+12 9.05981e+12 -2.57878e+13 -1.64481e+13 -2.17238e+10 2.81368e+12)
(2.86961e+13 -1.37318e+13 -1.51052e+13 1.28331e+13 -2.83318e+13 -1.9575e+13)
(-9.00514e+12 2.13991e+13 -2.6829e+13 3.56397e+13 1.39213e+13 -7.49625e+12)
(-2.0552e+12 1.13452e+13 -7.15478e+11 -2.42293e+12 1.726e+13 -4.40754e+13)
(-3.31424e+12 4.35876e+12 -2.4873e+13 -2.61383e+12 5.32686e+12 -3.49422e+12)
(-3.43023e+13 3.91982e+13 -4.31283e+12 1.43311e+13 -1.52707e+13 4.71379e+12)
(-1.24662e+13 -4.19807e+12 -1.24034e+13 2.15336e+13 1.93038e+13 -2.7056e+13)
(1.00879e+13 1.47166e+13 -1.79453e+13 -6.67153e+12 1.60764e+13 -9.67512e+12)
(-1.47911e+13 -3.80155e+12 -2.93703e+13 1.69799e+13 -7.21982e+11 5.92337e+12)
(-4.17237e+13 2.17786e+13 -4.11413e+13 1.39705e+13 1.41918e+13 -4.02111e+12)
(-3.60485e+11 1.70267e+13 -2.49188e+13 4.28856e+12 8.23611e+12 -4.98479e+12)
(1.70969e+13 1.57445e+13 4.22853e+12 3.27522e+12 2.15977e+13 -4.66561e+13)
(-1.72412e+13 4.44528e+12 -3.59074e+13 1.46174e+13 4.17982e+12 -3.40617e+12)
(6.74472e+12 8.55611e+12 -3.89763e+13 1.33377e+13 1.04361e+13 7.92662e+11)
(1.92057e+12 1.63671e+13 -1.27707e+13 6.66354e+12 1.8677e+13 -2.51946e+13)
(7.23793e+12 6.44586e+12 4.9522e+13 -9.60985e+12 4.45259e+13 -1.16594e+13)
(-1.29095e+13 1.92199e+12 -3.69907e+13 1.12302e+13 5.67874e+12 4.55816e+12)
(-1.027e+13 3.96183e+12 -3.30498e+13 1.18859e+13 1.47273e+13 -9.93249e+12)
(-4.87132e+12 2.23009e+13 -1.41454e+13 -4.28412e+12 4.25598e+13 -2.82828e+12)
(-2.59454e+13 2.37363e+13 1.22711e+12 1.07661e+13 6.28815e+12 9.27176e+13)
(-6.25633e+12 2.01984e+12 -4.42044e+13 5.1529e+12 7.5175e+12 4.5703e+12)
(-1.87375e+13 3.93252e+12 -3.59132e+13 1.61203e+13 1.10928e+13 6.56153e+12)
(-1.5833e+13 1.51284e+13 -1.66457e+13 2.60671e+13 1.87882e+13 5.99397e+11)
(-2.0261e+13 2.03953e+13 -5.90387e+13 -7.32623e+12 4.34563e+13 -3.24566e+13)
(-7.44755e+12 4.50769e+12 -4.59674e+13 1.87467e+12 1.5273e+13 2.62154e+12)
(-8.98356e+12 1.06448e+13 -5.00807e+13 1.40876e+13 6.67032e+12 7.86065e+12)
(-3.35621e+13 1.12287e+13 -3.19671e+13 9.953e+12 2.93204e+13 -2.74804e+12)
(1.75569e+13 4.05084e+13 -8.14847e+12 1.20692e+13 1.17246e+13 1.22901e+12)
)
;
    }
    top
    {
        type            symmetryPlane;
    }
    side1
    {
        type            symmetryPlane;
    }
    side2
    {
        type            symmetryPlane;
    }
    procBoundary11to3
    {
        type            processor;
        value           nonuniform List<symmTensor> 
50
(
(-1.92637e+27 -9.91121e+26 -4.04247e+28 -5.65418e+27 -2.42088e+28 5.93378e+27)
(-1.03767e+28 2.0546e+28 -5.96065e+27 1.92365e+28 -3.24541e+27 -5.39666e+27)
(-8.9921e+27 2.39633e+27 -1.58207e+28 3.36339e+27 -4.34487e+27 -5.26097e+26)
(-4.88489e+27 8.22996e+26 -2.58744e+28 2.15086e+28 -4.18508e+27 -3.21045e+27)
(-1.35148e+28 1.8269e+27 -2.4111e+28 1.27256e+28 -8.06121e+27 2.24167e+27)
(-1.97826e+28 9.82993e+27 -4.59914e+28 3.0772e+28 -3.60313e+27 -4.44516e+27)
(-2.35126e+28 8.54985e+27 -3.36457e+28 1.53021e+28 -1.0708e+28 -4.66013e+27)
(-2.91708e+28 1.87829e+28 -7.29776e+28 5.92412e+28 1.06177e+28 -5.84997e+27)
(-4.85905e+28 4.19056e+26 -6.1363e+28 2.44498e+28 -8.15638e+27 6.37685e+26)
(-2.83616e+28 1.44082e+28 -7.99577e+28 7.58866e+28 1.30638e+28 -6.6049e+26)
(-2.07903e+28 8.2519e+27 1.57191e+28 1.23043e+28 -3.28995e+27 1.22583e+28)
(-2.43306e+28 2.53436e+27 -1.96204e+28 -2.49452e+27 -1.62759e+28 2.85785e+28)
(-2.16984e+28 1.16663e+27 1.73013e+28 6.86308e+26 6.01152e+27 2.5645e+28)
(-1.5576e+28 3.82467e+27 5.08971e+27 1.35326e+27 -1.28749e+28 2.37057e+28)
(-2.47008e+28 -1.09057e+28 2.19552e+28 4.50967e+27 -6.04922e+26 2.0862e+28)
(-8.32345e+27 4.84601e+26 -5.23429e+27 5.48582e+27 -1.01791e+28 9.33807e+27)
(-7.90275e+27 4.1206e+27 1.08528e+28 2.84083e+27 -5.11474e+27 -5.37518e+26)
(-8.18235e+27 1.79689e+27 1.40608e+28 1.04744e+27 -7.22261e+27 1.16754e+28)
(-2.67694e+28 2.18655e+26 2.80708e+28 1.89296e+28 -9.74349e+27 1.8373e+27)
(-2.80963e+28 6.44787e+26 1.21385e+28 9.46082e+27 -1.07321e+28 1.67009e+28)
(-1.08964e+29 1.21378e+27 -1.89315e+28 2.33944e+27 -7.16174e+28 7.35249e+28)
(2.41806e+28 6.74671e+28 1.22875e+29 -1.16003e+29 7.34343e+27 1.33425e+29)
(-2.19807e+28 -4.55761e+28 -3.03685e+28 7.34749e+27 -5.56129e+28 2.78843e+28)
(8.12347e+27 -2.35626e+28 4.09068e+28 -1.19664e+29 -9.39851e+27 -4.41549e+27)
(3.06128e+28 -1.19847e+28 1.3095e+28 -2.16404e+28 -4.54775e+27 8.85719e+28)
(-2.20191e+28 -5.56309e+28 1.71798e+28 2.18729e+28 1.58291e+28 -4.74962e+28)
(3.64793e+28 -3.34554e+28 8.21218e+28 2.63455e+28 -4.48271e+28 1.15408e+29)
(-1.36493e+28 -6.55792e+28 9.35008e+28 8.00603e+27 -5.05771e+28 -4.36475e+28)
(-2.90123e+28 -5.4803e+28 1.09559e+29 3.8608e+27 -5.34681e+28 1.15479e+29)
(-5.95849e+28 -7.71275e+28 9.67355e+28 2.78772e+28 -4.26031e+28 -3.55219e+27)
(3.87162e+29 3.11733e+29 4.0892e+29 -3.15568e+29 1.7899e+27 1.49368e+29)
(5.58571e+28 -8.73035e+28 -1.05132e+29 -5.44619e+27 1.44461e+28 -1.08849e+29)
(-1.90043e+29 -6.7586e+29 -5.44408e+29 1.83999e+28 -1.61377e+29 -2.19248e+29)
(3.33357e+28 6.12432e+28 1.23001e+29 -7.75795e+28 -4.89867e+28 6.39154e+28)
(1.45385e+28 -2.94999e+29 -1.83719e+29 2.77923e+29 1.096e+29 -5.80548e+29)
(1.22848e+29 -1.10123e+28 3.79004e+28 -7.02472e+28 -1.26204e+28 1.97042e+29)
(-8.27677e+28 -5.28877e+28 2.55853e+29 4.4894e+28 -9.26571e+28 -2.33328e+29)
(6.50506e+28 -1.13682e+29 1.07176e+29 -2.76288e+28 -2.31589e+28 1.52132e+29)
(-4.7473e+28 -9.60467e+28 1.71011e+29 9.12351e+27 -1.01626e+29 -9.10251e+28)
(3.79538e+28 -1.43077e+29 2.27102e+29 -8.25981e+28 -1.13554e+29 1.26336e+29)
(4.63429e+28 -8.96228e+28 -5.22506e+28 -6.13878e+27 8.62541e+28 -1.32186e+29)
(-4.2341e+29 -5.53349e+29 -1.7423e+30 3.45358e+30 8.52689e+28 -8.57337e+29)
(7.50162e+28 1.08864e+29 7.6184e+29 -7.63753e+28 -1.47229e+29 -4.53684e+28)
(-5.45708e+28 -8.60948e+29 -1.63105e+30 8.55696e+29 4.38989e+29 -5.4061e+29)
(-2.76291e+29 7.71561e+28 2.97742e+29 7.91527e+27 -2.57167e+29 3.86122e+29)
(-2.7739e+29 -1.43368e+28 1.54603e+29 2.74862e+29 3.02905e+29 -7.31883e+28)
(9.12603e+28 -2.27768e+28 6.32217e+28 -1.09572e+29 -1.19124e+29 1.32748e+29)
(-1.91335e+28 -6.85812e+28 1.73056e+29 4.50836e+28 3.43315e+28 -1.11304e+29)
(1.81853e+29 -1.62681e+29 6.78628e+28 -4.96261e+28 -9.53748e+28 -2.57171e+28)
(4.76857e+28 -8.56235e+28 7.50604e+28 2.02445e+28 2.7636e+27 -9.89062e+28)
)
;
    }
    procBoundary11to10
    {
        type            processor;
        value           nonuniform List<symmTensor> 
20
(
(-2.24117e+27 1.15684e+27 -3.91379e+28 -3.35206e+27 -2.36135e+28 8.02578e+27)
(-5.50582e+27 3.65515e+28 1.34343e+27 3.42971e+28 -9.09757e+27 -2.69141e+28)
(-3.47505e+27 7.28073e+27 -1.30047e+27 4.28695e+27 -2.01961e+25 -5.84321e+27)
(-7.66519e+26 5.03188e+28 -5.4974e+27 2.78668e+28 8.89406e+26 -1.34786e+28)
(-1.57744e+28 7.56898e+27 1.73844e+28 -1.11891e+27 -5.37899e+27 5.1484e+27)
(-1.08407e+28 1.04e+27 -1.02555e+28 9.56853e+26 -1.16893e+28 8.90311e+27)
(-1.10971e+28 7.86975e+27 6.23466e+27 2.62236e+28 4.95493e+27 -1.66755e+27)
(-8.13911e+27 1.09134e+28 4.25134e+27 1.61754e+28 2.1177e+27 -4.48269e+27)
(-4.46127e+28 -9.89324e+26 -2.52894e+28 1.79912e+28 -5.70615e+28 1.6277e+28)
(-2.97292e+28 3.62733e+27 1.93174e+28 2.33473e+28 -5.68617e+27 1.11999e+28)
(-8.52264e+27 -8.73223e+26 -2.40302e+27 6.91744e+26 -1.03765e+28 5.68544e+27)
(-6.29397e+27 6.09718e+25 4.3841e+27 1.17173e+28 -1.11951e+28 -4.61976e+27)
(-1.99532e+28 -3.41921e+28 4.05705e+28 1.7929e+28 -2.78013e+28 4.09442e+27)
(-3.54934e+28 -4.32979e+28 6.82575e+27 3.11777e+28 -5.69249e+28 2.05963e+28)
(-1.92856e+28 -1.43141e+28 6.47018e+27 1.36629e+28 -2.04953e+28 5.00432e+27)
(-1.46074e+28 -8.51732e+27 2.14702e+27 4.11086e+27 -1.20225e+28 1.28177e+28)
(-1.6571e+29 -8.25685e+28 7.44153e+28 2.93994e+27 -7.09261e+28 -7.34619e+28)
(-5.80684e+28 -1.04793e+29 2.34123e+28 5.94095e+28 -1.28715e+28 -2.89994e+28)
(-3.99581e+28 -1.99216e+28 1.73746e+28 3.80597e+28 -2.72637e+28 -3.28122e+27)
(-3.58219e+28 4.46239e+27 1.16054e+28 2.61875e+28 -1.9652e+27 5.59264e+27)
)
;
    }
    procBoundary11to12
    {
        type            processor;
        value           nonuniform List<symmTensor> 
20
(
(-1.41912e+28 1.70848e+28 -9.39766e+28 3.31187e+28 3.39603e+28 -3.03531e+27)
(-4.81752e+28 3.80633e+28 -1.17123e+29 2.29069e+28 4.83552e+28 4.58822e+27)
(-1.51164e+29 1.27453e+29 -1.28354e+29 1.95961e+29 5.06859e+27 6.37845e+27)
(-1.08377e+29 2.41994e+29 -1.82455e+29 6.29024e+28 4.36017e+28 -7.6317e+28)
(-6.07967e+28 -2.27119e+28 6.45108e+27 2.33471e+28 -1.44724e+28 1.71583e+28)
(1.33394e+28 3.94014e+28 1.91515e+28 -9.88694e+27 -2.31764e+28 7.67764e+27)
(-1.66126e+27 5.12258e+27 5.08023e+27 2.30538e+27 -2.24392e+28 -1.23311e+28)
(-1.0709e+29 2.34851e+29 -1.64813e+29 2.02488e+29 -1.84918e+29 4.89056e+28)
(-5.73689e+28 -1.54677e+28 6.51027e+28 3.43473e+28 -7.03221e+28 -3.03057e+27)
(2.92464e+28 -3.19391e+28 3.41535e+28 -3.68249e+28 -7.92351e+28 6.44208e+28)
(-1.08315e+29 5.4253e+28 -3.90778e+28 3.42375e+28 -3.25911e+28 -6.78285e+27)
(-2.98366e+28 -6.90574e+27 9.63694e+27 4.74982e+28 -2.25919e+28 9.02159e+27)
(1.02685e+28 -1.54902e+29 1.72454e+29 -2.13329e+28 -1.14268e+29 1.06372e+29)
(-6.61976e+28 -7.14111e+28 8.44655e+28 6.63843e+28 -5.12378e+28 -4.43384e+28)
(-6.15968e+28 -3.20312e+28 6.68899e+28 -2.75599e+28 -7.01273e+28 1.28226e+29)
(-6.07657e+28 -3.07286e+28 1.44222e+28 5.43124e+28 -2.29185e+28 -1.4202e+28)
(1.00257e+28 -8.48292e+28 6.32596e+28 5.85779e+28 -6.65677e+27 -8.00905e+28)
(8.17337e+27 -1.03242e+29 -1.08818e+28 4.28671e+28 -4.05845e+28 -3.47426e+28)
(-6.74848e+28 -8.48665e+28 4.71333e+28 1.0999e+29 -9.90943e+26 -7.49173e+28)
(-5.93107e+28 -1.40826e+28 2.2884e+28 5.44008e+28 -4.10695e+28 3.28537e+28)
)
;
    }
    procBoundary11to19
    {
        type            processor;
        value           nonuniform List<symmTensor> 
50
(
(-6.88814e+27 -5.19772e+27 -3.5952e+27 -9.9677e+27 -1.40773e+27 9.19766e+26)
(6.00645e+28 5.67808e+28 -7.72267e+28 2.30114e+28 -1.41868e+28 -2.05769e+28)
(-1.62317e+27 9.0056e+27 7.05864e+26 5.06102e+27 3.48787e+27 -1.03352e+28)
(1.29792e+29 -2.14581e+28 2.38787e+29 -7.42723e+28 2.29426e+29 -1.96122e+29)
(9.62912e+28 5.64314e+28 1.02884e+28 1.40925e+28 5.10198e+28 -4.09729e+28)
(5.44599e+28 3.24373e+27 1.89222e+29 -3.98586e+28 1.00582e+29 -2.60071e+28)
(-6.51474e+28 5.65316e+28 -3.10047e+28 1.18217e+28 3.89996e+28 1.21423e+29)
(-1.62999e+29 1.07277e+29 -4.27253e+29 3.88199e+28 -1.18689e+29 -7.98012e+28)
(3.02378e+29 1.42606e+29 -5.13144e+28 -1.28247e+29 6.272e+28 -1.77967e+28)
(-8.59121e+28 1.70115e+29 -1.11519e+29 -1.40347e+29 7.06815e+28 -1.39383e+29)
(-1.47334e+28 3.45289e+28 -2.61232e+28 4.41781e+28 -1.62203e+28 -1.02423e+28)
(-3.41823e+28 1.52288e+28 -4.88369e+27 7.41398e+27 3.51735e+26 -8.95936e+26)
(1.80605e+28 8.9068e+27 -2.49981e+28 -5.29234e+27 -4.99589e+27 3.01587e+28)
(-7.11061e+27 3.68772e+27 -5.3602e+26 6.78588e+27 -1.72935e+27 1.25076e+26)
(-3.29974e+28 -1.0588e+28 -3.05594e+27 -5.85748e+28 1.97082e+28 7.2979e+27)
(1.84524e+28 2.67967e+28 8.91499e+27 1.44582e+28 -9.28343e+26 5.01296e+27)
(1.13132e+28 5.82574e+27 -3.33373e+27 -8.6086e+27 -4.16451e+27 -3.66979e+28)
(-2.84063e+27 7.78908e+27 -4.68204e+28 -2.00049e+28 -3.42742e+28 3.55448e+28)
(-1.64754e+28 1.73198e+28 -7.06581e+28 -4.88258e+28 -1.20029e+28 -2.65025e+27)
(1.38812e+29 2.67635e+29 -2.56252e+29 -5.49947e+28 -1.34348e+29 6.77847e+28)
(-5.65329e+27 -3.4224e+27 -2.28958e+26 2.67988e+27 2.52707e+26 -7.70888e+27)
(-4.35378e+27 1.41562e+27 -2.73288e+27 1.17241e+28 -1.31819e+28 -5.22773e+26)
(-2.93584e+27 2.05002e+27 -3.22602e+26 1.25146e+27 -1.57083e+27 -1.27362e+27)
(-5.66717e+27 -8.23295e+26 -3.02389e+28 2.44725e+28 -2.98683e+28 2.21846e+28)
(-6.10283e+27 1.92093e+27 2.84402e+27 8.77064e+26 -4.28251e+27 -3.32319e+26)
(1.0736e+28 -2.74717e+28 -5.34197e+28 9.00705e+28 -5.40105e+28 1.26624e+28)
(-1.80834e+28 1.05423e+28 1.8996e+27 6.3543e+27 -9.24552e+27 -3.36867e+27)
(-1.10919e+29 9.70587e+28 -3.26163e+27 1.2815e+29 -2.44236e+28 -4.08648e+27)
(-5.26016e+28 -1.23419e+28 -1.8825e+28 1.09051e+29 -6.15131e+28 1.2091e+28)
(-2.50189e+28 -6.87379e+27 -3.12716e+28 -3.95966e+27 -2.69739e+28 5.46637e+27)
(-9.015e+27 -1.34909e+27 -4.26783e+27 8.40287e+27 -9.80274e+27 1.8276e+27)
(-1.85376e+28 -4.31322e+27 8.40065e+26 1.32063e+28 -5.73141e+27 5.09225e+27)
(-1.49285e+28 -3.08616e+27 7.82974e+27 1.43131e+28 -1.432e+28 5.30901e+27)
(-9.12481e+27 2.79442e+27 8.57852e+26 3.27416e+27 -5.43602e+27 2.62107e+27)
(-2.02451e+28 -4.9449e+27 -4.15087e+27 8.99814e+27 -1.91192e+28 1.45737e+28)
(-3.3807e+28 1.19038e+28 1.59872e+28 -1.25225e+28 -2.33746e+28 2.20364e+28)
(-4.25003e+28 -2.04458e+28 4.03009e+27 1.68574e+28 -5.09484e+28 5.34024e+28)
(-9.92896e+27 9.43016e+27 1.53883e+28 -1.63476e+28 -9.07732e+27 -2.80691e+28)
(3.39879e+28 -9.57392e+28 1.43206e+28 -3.12547e+28 -1.73531e+29 5.14865e+28)
(-2.2981e+28 -3.65078e+27 -1.19532e+28 1.38615e+28 -1.19586e+28 -4.73896e+27)