/*--------------------------------*- C++ -*----------------------------------*\
| =========                 |                                                 |
| \\      /  F ield         | OpenFOAM: The Open Source CFD Toolbox           |
|  \\    /   O peration     | Version:  2.4.0                                 |
|   \\  /    A nd           | Web:      www.OpenFOAM.org                      |
|    \\/     M anipulation  |                                                 |
\*---------------------------------------------------------------------------*/
FoamFile
{
    version     2.0;
    format      ascii;
    class       volScalarField;
    location    "0.01";
    object      alpha;
}
// * * * * * * * * * * * * * * * * * * * * * * * * * * * * * * * * * * * * * //

dimensions      [0 0 0 0 0 0 0];

internalField   nonuniform List<scalar> 
200
(
9.46138e-36
8.07712e-34
6.28624e-32
4.29938e-30
2.48681e-28
1.14401e-26
3.74219e-25
6.67734e-24
1.02706e-23
1.33411e-23
2.19067e-38
1.79898e-36
1.3439e-34
8.79533e-33
4.85116e-31
2.11977e-29
6.55817e-28
1.10243e-26
1.69832e-26
2.20255e-26
4.7611e-41
3.77297e-39
2.7145e-37
1.70609e-35
9.00758e-34
3.75377e-32
1.10313e-30
1.75501e-29
2.70781e-29
3.50634e-29
9.90374e-44
7.57717e-42
5.25398e-40
3.17473e-38
1.60701e-36
6.4012e-35
1.7922e-33
2.70908e-32
4.18622e-32
5.4126e-32
7.80425e-38
6.39914e-36
4.7726e-34
3.11822e-32
1.71677e-30
7.48577e-29
2.3094e-27
3.86607e-26
5.95543e-26
7.72363e-26
1.88412e-40
1.49064e-38
1.07063e-36
6.7173e-35
3.53995e-33
1.47209e-31
4.31417e-30
6.83686e-29
1.05479e-28
1.36587e-28
4.27681e-43
3.27214e-41
2.26868e-39
1.37047e-37
6.93296e-36
2.75835e-34
7.70615e-33
1.16062e-31
1.79335e-31
2.31875e-31
9.28499e-46
6.87107e-44
4.6004e-42
2.67746e-40
1.30167e-38
4.96316e-37
1.32505e-35
1.90302e-34
2.9449e-34
3.80215e-34
3.37855e-40
2.66716e-38
1.91119e-36
1.19622e-34
6.28811e-33
2.60771e-31
7.61636e-30
1.20131e-28
1.85327e-28
2.39978e-28
8.49668e-43
6.48924e-41
4.49082e-39
2.70753e-37
1.36684e-35
5.42514e-34
1.51099e-32
2.26571e-31
3.50063e-31
4.5262e-31
2.01162e-45
1.48853e-43
9.96461e-42
5.79744e-40
2.81655e-38
1.07255e-36
2.85671e-35
4.08609e-34
6.32269e-34
8.1632e-34
4.55162e-48
3.26309e-46
2.11313e-44
1.18676e-42
5.55236e-41
2.03103e-39
5.18343e-38
7.09294e-37
1.09917e-36
1.41714e-36
1.01982e-42
7.76837e-41
5.36081e-39
3.22254e-37
1.62186e-35
6.41642e-34
1.78025e-32
2.6557e-31
4.10286e-31
5.30469e-31
2.66872e-45
1.97124e-43
1.31707e-41
7.64713e-40
3.70698e-38
1.40804e-36
3.738e-35
5.32116e-34
8.23313e-34
1.06295e-33
6.58073e-48
4.71751e-46
3.05457e-44
1.71493e-42
8.01813e-41
2.92922e-39
7.45739e-38
1.01598e-36
1.5743e-36
2.02969e-36
1.54964e-50
1.07788e-48
6.7623e-47
3.67107e-45
1.65603e-43
5.82355e-42
1.42401e-40
1.86141e-39
2.88855e-39
3.71903e-39
2.41507e-45
1.77845e-43
1.18431e-41
6.85237e-40
3.30975e-38
1.25242e-36
3.31058e-35
4.68624e-34
7.2501e-34
9.35987e-34
6.56909e-48
4.70041e-46
3.03734e-44
1.70153e-42
7.93653e-41
2.89145e-39
7.33525e-38
9.94184e-37
1.54038e-36
1.98587e-36
1.68494e-50
1.17186e-48
7.35057e-47
3.98896e-45
1.79815e-43
6.31474e-42
1.54011e-40
2.00365e-39
3.109e-39
4.00271e-39
4.12397e-53
2.78677e-51
1.69612e-49
8.91392e-48
3.8834e-46
1.31521e-44
3.08753e-43
3.86416e-42
6.00455e-42
7.72043e-42
)
;

boundaryField
{
    inlet
    {
        type            zeroGradient;
    }
    outlet
    {
        type            zeroGradient;
    }
    bottom
    {
        type            fixedValue;
        value           uniform 0;
    }
    top
    {
        type            symmetryPlane;
    }
    side1
    {
        type            symmetryPlane;
    }
    side2
    {
        type            symmetryPlane;
    }
    procBoundary16to8
    {
        type            processor;
        value           nonuniform List<scalar> 
50
(
3.87622e-33
3.44672e-31
2.80007e-29
2.00475e-27
1.21776e-25
5.90387e-24
2.04315e-22
3.87285e-21
5.94711e-21
7.73897e-21
3.07768e-35
2.618e-33
2.0294e-31
1.38166e-29
7.94945e-28
3.63372e-26
1.17912e-24
2.08304e-23
3.20352e-23
4.16191e-23
1.28512e-37
1.04856e-35
7.77794e-34
5.05113e-32
2.76213e-30
1.19499e-28
3.65194e-27
6.04297e-26
9.30718e-26
1.20721e-25
3.74855e-40
2.94089e-38
2.09296e-36
1.30017e-34
6.77813e-33
2.785e-31
8.04673e-30
1.25275e-28
1.93222e-28
2.50227e-28
8.59133e-43
6.49481e-41
4.44471e-39
2.64759e-37
1.31938e-35
5.16358e-34
1.41524e-32
2.08095e-31
3.21412e-31
4.15589e-31
)
;
    }
    procBoundary16to17
    {
        type            processor;
        value           nonuniform List<scalar> 
20
(
1.06379e-23
1.76192e-26
2.81349e-29
4.3559e-32
6.18182e-26
1.09657e-28
1.86707e-31
3.07018e-34
1.92785e-28
3.64677e-31
6.59566e-34
1.14813e-36
4.27706e-31
8.59435e-34
1.6455e-36
3.02295e-39
7.57385e-34
1.61122e-36
3.25594e-39
6.29577e-42
)
;
    }
    procBoundary16to24
    {
        type            processor;
        value           nonuniform List<scalar> 
50
(
1.80428e-46
1.34164e-44
9.03528e-43
5.29765e-41
2.6005e-39
1.00455e-37
2.73107e-36
4.02551e-35
6.23227e-35
8.04395e-35
1.74676e-48
1.25974e-46
8.21511e-45
4.65338e-43
2.20086e-41
8.16626e-40
2.12532e-38
2.99038e-37
4.63654e-37
5.97639e-37
8.83033e-51
6.18547e-49
3.9121e-47
2.14442e-45
9.78996e-44
3.49621e-42
8.72939e-41
1.17526e-39
1.82488e-39
2.34916e-39
3.09617e-53
2.10948e-51
1.29588e-49
6.88505e-48
3.0393e-46
1.04662e-44
2.51214e-43
3.24347e-42
5.04345e-42
6.48417e-42
8.47628e-56
5.62379e-54
3.35992e-52
1.73263e-50
7.40651e-49
2.46337e-47
5.6941e-46
7.06402e-45
1.09997e-44
1.41243e-44
)
;
    }
}


// ************************************************************************* //
