/*--------------------------------*- C++ -*----------------------------------*\
| =========                 |                                                 |
| \\      /  F ield         | OpenFOAM: The Open Source CFD Toolbox           |
|  \\    /   O peration     | Version:  2.4.0                                 |
|   \\  /    A nd           | Web:      www.OpenFOAM.org                      |
|    \\/     M anipulation  |                                                 |
\*---------------------------------------------------------------------------*/
FoamFile
{
    version     2.0;
    format      ascii;
    class       volSymmTensorField;
    location    "0.01";
    object      B;
}
// * * * * * * * * * * * * * * * * * * * * * * * * * * * * * * * * * * * * * //

dimensions      [0 2 -2 0 0 0 0];

internalField   nonuniform List<symmTensor> 
60
(
(1.86753e+24 -4.35875e+19 -4.58524e+20 1.8694e+24 6.71516e+19 1.86736e+24)
(7.88255e+23 -2.32893e+20 -1.25632e+19 7.88678e+23 1.64278e+18 7.88142e+23)
(3.97295e+23 -7.03194e+19 -3.90312e+19 3.97696e+23 -3.92266e+19 3.97276e+23)
(5.68688e+23 6.8246e+19 -3.6494e+19 5.68921e+23 -6.05504e+19 5.68662e+23)
(1.75822e+24 9.47092e+19 -2.50322e+19 1.7583e+24 -3.88811e+19 1.75814e+24)
(4.63871e+23 -4.16429e+20 -4.80349e+19 4.63573e+23 -8.26322e+19 4.63647e+23)
(6.20843e+22 4.57398e+19 3.77594e+18 6.20756e+22 -2.05845e+19 6.2021e+22)
(1.72836e+23 1.66991e+19 -9.60414e+18 1.72951e+23 -1.68779e+19 1.72832e+23)
(4.45534e+23 1.46379e+19 -4.56099e+18 4.45689e+23 -1.02138e+19 4.45558e+23)
(3.15364e+23 5.40406e+18 -3.27229e+18 3.15459e+23 -1.59076e+19 3.15373e+23)
(5.04936e+23 -1.20719e+20 -2.86066e+19 5.05011e+23 -3.52505e+19 5.04868e+23)
(5.92695e+22 -3.04815e+18 5.27222e+18 5.9293e+22 -8.34293e+18 5.9254e+22)
(9.71341e+22 -1.70958e+19 2.44753e+18 9.71607e+22 -9.66051e+18 9.71239e+22)
(2.99653e+22 -5.05489e+18 1.54594e+18 2.99872e+22 -6.37947e+18 2.99634e+22)
(4.65441e+22 9.15557e+18 -2.6573e+18 4.65904e+22 -1.18886e+19 4.65556e+22)
(1.11836e+23 -4.37669e+19 -1.57196e+19 1.11888e+23 -5.17887e+18 1.11832e+23)
(3.79676e+21 -1.98622e+18 1.51982e+18 3.7982e+21 -4.36159e+18 3.79095e+21)
(3.42837e+22 -2.38487e+18 -2.13136e+17 3.42913e+22 -2.96749e+18 3.42799e+22)
(4.45028e+22 -5.34998e+18 -4.68502e+17 4.45113e+22 -3.77811e+18 4.45005e+22)
(7.97855e+22 2.82094e+18 -2.69802e+17 7.98074e+22 -6.70248e+18 7.97859e+22)
(3.35361e+24 -3.44276e+20 -6.47899e+20 3.35405e+24 2.65533e+20 3.35361e+24)
(4.27229e+23 3.49575e+19 -8.92312e+18 4.27437e+23 1.56399e+20 4.27228e+23)
(5.88389e+23 5.32919e+18 3.50658e+19 5.88544e+23 1.56405e+20 5.88384e+23)
(6.21662e+23 4.27553e+18 5.40628e+19 6.21772e+23 1.29118e+20 6.21683e+23)
(3.07891e+23 2.78654e+19 2.88307e+19 3.07935e+23 8.56969e+19 3.07916e+23)
(7.13652e+23 -1.20052e+20 -1.43098e+20 7.13697e+23 1.11034e+20 7.13589e+23)
(1.88022e+23 1.12249e+19 -8.62741e+18 1.88062e+23 7.00205e+19 1.87985e+23)
(2.14274e+23 -2.49908e+18 -6.92741e+18 2.14309e+23 5.72666e+19 2.14257e+23)
(1.84174e+23 -7.18691e+18 5.89002e+18 1.84223e+23 3.58171e+19 1.84177e+23)
(1.78999e+23 1.54123e+18 1.1496e+19 1.79044e+23 2.89075e+19 1.7901e+23)
(2.65326e+23 -4.10883e+19 -5.69633e+19 2.65361e+23 3.00402e+19 2.6531e+23)
(3.28992e+22 7.39689e+17 3.30768e+18 3.29081e+22 1.34958e+19 3.28872e+22)
(6.8118e+22 -3.18746e+18 -7.50622e+17 6.81288e+22 1.69578e+19 6.81095e+22)
(6.68481e+22 -4.28463e+18 -9.23203e+16 6.68612e+22 1.38404e+19 6.68416e+22)
(9.42551e+22 -1.80896e+18 2.84437e+18 9.42779e+22 1.20888e+19 9.42559e+22)
(7.12162e+22 -1.55453e+19 -2.49054e+19 7.12261e+22 1.38295e+19 7.12134e+22)
(1.00611e+22 -1.12862e+18 2.76137e+18 1.00601e+22 4.24188e+18 1.00561e+22)
(1.67155e+22 3.59915e+17 1.27396e+18 1.67171e+22 4.4288e+18 1.6712e+22)
(1.46844e+22 -9.28076e+17 5.1485e+17 1.46894e+22 4.77954e+18 1.46829e+22)
(2.70067e+22 -1.23565e+18 4.2331e+17 2.70153e+22 4.97855e+18 2.70073e+22)
(6.61751e+23 4.051e+19 -1.33771e+20 6.61632e+23 3.92719e+19 6.6177e+23)
(1.59496e+23 3.40462e+18 -1.09083e+19 1.59483e+23 2.25159e+19 1.59515e+23)
(1.77638e+23 -8.59613e+17 -1.1583e+18 1.7762e+23 2.76427e+19 1.77661e+23)
(4.14443e+23 -1.07487e+19 1.53074e+19 4.14429e+23 2.05899e+19 4.14449e+23)
(3.14739e+23 -1.34359e+19 2.05628e+19 3.14725e+23 2.5197e+19 3.14754e+23)
(5.20194e+23 1.98823e+19 -8.86098e+19 5.20169e+23 4.09288e+19 5.20183e+23)
(8.3841e+22 -3.77467e+18 1.63257e+18 8.38345e+22 1.99062e+19 8.38378e+22)
(1.13366e+23 2.51462e+17 2.97456e+18 1.13354e+23 1.80095e+19 1.13367e+23)
(8.9289e+22 -1.82557e+18 3.08525e+18 8.92833e+22 9.9495e+18 8.92923e+22)
(8.98209e+22 -5.20679e+18 7.1407e+18 8.98179e+22 2.15959e+19 8.98284e+22)
(2.51208e+23 6.57957e+18 -4.28604e+19 2.51201e+23 2.83846e+19 2.51205e+23)
(6.98297e+22 -2.28721e+17 2.41296e+18 6.9826e+22 1.15819e+19 6.98256e+22)
(5.93507e+22 -1.03979e+18 7.53847e+17 5.93476e+22 7.4916e+18 5.93494e+22)
(4.25393e+22 -2.52058e+18 1.66488e+18 4.2538e+22 8.72982e+18 4.25408e+22)
(3.68046e+22 -1.84209e+18 3.56843e+18 3.6807e+22 1.03722e+19 3.68095e+22)
(1.03547e+23 7.6832e+18 -1.7838e+19 1.03546e+23 1.10118e+19 1.03548e+23)
(3.91733e+22 -2.11933e+18 1.22464e+18 3.91713e+22 7.06253e+18 3.91719e+22)
(2.712e+22 -1.38942e+18 1.16165e+18 2.71174e+22 5.19644e+18 2.71182e+22)
(2.17626e+22 -1.79104e+18 8.97699e+17 2.17618e+22 5.5531e+18 2.17619e+22)
(1.28543e+22 -1.33913e+18 2.14908e+17 1.28555e+22 4.15149e+18 1.28561e+22)
)
;

boundaryField
{
    inlet
    {
        type            calculated;
        value           nonuniform List<symmTensor> 
12
(
(-3.02286e+10 1.56468e+10 -4.90791e+10 7.0137e+10 3.22403e+09 -2.75264e+10)
(5.92466e+09 -1.0112e+11 -1.14217e+10 -1.76198e+10 -8.00248e+09 -1.04501e+10)
(3.37171e+09 -6.11993e+10 -1.49403e+10 1.90019e+10 -6.74926e+09 -8.32908e+09)
(-9.47866e+09 -2.78603e+10 -1.21417e+10 1.12988e+10 -1.5854e+09 -5.85482e+09)
(-5.21882e+08 -6.98729e+10 -1.26599e+11 3.83964e+10 2.56345e+10 -4.19288e+09)
(2.89753e+09 -5.17539e+10 -5.51117e+10 1.1086e+10 2.10209e+10 -9.39596e+09)
(-6.80241e+08 -2.68231e+10 -3.83188e+10 1.03546e+10 8.96473e+09 -4.78876e+09)
(-3.97161e+09 -1.02396e+10 -2.5517e+10 3.06828e+09 6.03005e+09 -2.47866e+09)
(1.30856e+10 3.06371e+10 -7.46315e+10 -2.62368e+10 1.1094e+10 1.27423e+10)
(5.99415e+09 2.10992e+10 -7.21077e+10 -6.15983e+09 1.61197e+10 -5.66837e+08)
(1.88502e+09 7.26912e+09 -4.52545e+10 -1.6461e+09 1.42768e+10 3.22391e+08)
(-8.39072e+08 1.51443e+10 -2.70496e+10 -4.8444e+08 8.26863e+09 9.45113e+08)
)
;
    }
    outlet
    {
        type            calculated;
        value           nonuniform 0();
    }
    bottom
    {
        type            calculated;
        value           nonuniform List<symmTensor> 
20
(
(-1.93466e+10 -2.09269e+09 -2.55363e+10 7.0137e+10 1.11511e+10 -2.99237e+10)
(1.12668e+10 -4.03289e+10 -4.07081e+09 -1.76198e+10 -2.81521e+10 -7.35392e+09)
(4.72574e+09 -2.31136e+10 -5.05548e+09 1.90019e+10 -1.88052e+10 -9.40338e+09)
(-4.59306e+09 -1.33983e+10 -5.76787e+09 1.12988e+10 -7.15659e+09 -7.26021e+09)
(-1.16753e+10 -2.8729e+10 -6.45452e+09 4.05107e+10 -4.09595e+09 -2.21091e+10)
(4.97902e+09 1.0534e+10 5.18787e+09 2.96573e+09 -1.72686e+10 -5.13742e+09)
(8.0081e+08 -1.28448e+09 4.01012e+09 1.06767e+10 -8.52855e+09 -4.5524e+09)
(1.91978e+08 -1.37151e+09 4.5266e+07 1.18243e+09 -7.24891e+09 -3.45685e+09)
(-2.62409e+10 -1.14275e+10 -1.43618e+10 3.89525e+10 -3.55258e+10 -2.7639e+10)
(-1.04943e+10 4.94445e+09 -2.11076e+07 2.34192e+10 -1.95474e+10 -9.67432e+09)
(-9.87817e+08 -8.41715e+09 1.8771e+09 1.20996e+10 -1.54764e+10 -5.44496e+09)
(3.00178e+08 -2.36231e+09 -1.33325e+09 7.82176e+09 -8.37744e+09 -3.67299e+09)
(-1.79242e+10 1.65382e+10 -2.45039e+10 3.83269e+10 -5.64908e+10 -2.79627e+10)
(-2.2983e+10 5.82819e+09 -2.18517e+09 3.87505e+10 -1.60163e+10 -1.52842e+10)
(-4.53922e+09 -3.15469e+09 2.20133e+09 9.11708e+09 -1.43074e+10 -2.428e+09)
(-8.51864e+08 -5.51066e+09 -1.52628e+09 7.86201e+09 -9.94142e+09 -3.38735e+09)
(6.78356e+09 3.94177e+10 -2.47298e+10 4.25225e+10 -5.34259e+10 -2.94762e+10)
(-1.62994e+10 2.70024e+09 -8.57771e+09 3.15409e+10 -2.44879e+10 -1.40299e+10)
(-1.17191e+10 4.60051e+09 -2.60631e+09 1.15108e+10 -1.83313e+10 -4.46505e+09)
(-4.09695e+09 2.25688e+09 -1.54018e+09 1.3432e+10 -1.51519e+10 -4.48365e+09)
)
;
    }
    top
    {
        type            symmetryPlane;
    }
    side1
    {
        type            symmetryPlane;
    }
    side2
    {
        type            symmetryPlane;
    }
    procBoundary16to0
    {
        type            processor;
        value           nonuniform List<symmTensor> 
15
(
(-1.59281e+21 -4.2265e+21 -1.25152e+21 5.96543e+21 -1.0194e+21 -1.51894e+21)
(-1.30883e+21 1.01897e+21 -1.8255e+20 2.41973e+21 -1.79314e+20 -5.73898e+20)
(-9.23705e+20 4.81151e+20 -3.16662e+20 1.18975e+21 -1.98486e+20 -5.55173e+20)
(2.88024e+19 2.05402e+20 -8.9857e+19 4.42998e+20 -8.39893e+19 -2.63271e+20)
(1.76047e+19 1.9757e+20 -2.94165e+19 7.45587e+19 -8.11535e+19 -1.6819e+20)
(-4.09324e+20 -1.6133e+21 -2.38239e+21 -1.15358e+21 2.21403e+21 1.09877e+20)
(-3.48929e+20 6.71706e+20 2.56616e+20 -7.15147e+19 8.02923e+20 -3.37154e+18)
(-1.6637e+20 2.10876e+20 1.84646e+20 5.20466e+19 5.15907e+20 2.88427e+18)
(-4.29004e+18 1.59589e+20 1.62439e+20 -5.54682e+19 3.412e+20 -1.52647e+19)
(8.27684e+19 1.33312e+20 2.04134e+20 -9.82294e+19 2.17442e+20 -9.39592e+18)
(1.1461e+20 2.33875e+20 -1.5698e+20 -5.17283e+20 2.69657e+20 1.98209e+20)
(3.10689e+19 -5.44783e+19 -1.68347e+19 -1.03213e+20 6.73793e+19 5.05235e+19)
(-2.30501e+18 -1.71696e+19 2.22268e+18 -3.61085e+19 4.91704e+19 3.41515e+19)
(-1.61774e+19 -2.49527e+19 1.92398e+19 -6.45684e+19 4.87695e+19 3.28549e+19)
(-3.41905e+18 -1.88206e+19 2.50394e+19 -1.86264e+19 2.76456e+19 2.62616e+19)
)
;
    }
    procBoundary16to17
    {
        type            processor;
        value           nonuniform List<symmTensor> 
12
(
(1.00331e+17 8.78572e+19 -1.54118e+19 5.12979e+19 -3.01528e+19 -4.58566e+19)
(-7.27792e+18 8.28424e+18 -2.35865e+18 2.87406e+19 -8.05739e+18 -1.20635e+19)
(-1.18911e+19 1.05439e+19 -2.15903e+18 2.16573e+19 -6.53225e+18 -6.94754e+18)
(-3.65604e+18 4.19834e+18 -6.57293e+17 7.27859e+18 -2.93974e+18 -3.01496e+18)
(-2.21065e+19 2.27225e+19 2.29347e+19 -1.2565e+19 5.18697e+19 -2.72652e+18)
(-1.06384e+19 1.12035e+19 7.88239e+18 1.15086e+19 2.06191e+19 -6.06725e+18)
(-4.57865e+18 9.62982e+17 2.51373e+18 9.39658e+18 6.44186e+18 -3.68282e+18)
(-1.26762e+18 -8.12306e+16 9.30092e+17 3.88157e+18 1.9705e+18 -2.06198e+18)
(-5.47986e+18 -5.25987e+18 1.61253e+19 -5.42487e+18 2.11231e+19 1.65609e+19)
(-4.57651e+18 -2.77076e+18 1.00526e+19 -2.56772e+18 1.77299e+19 4.92636e+18)
(-3.00286e+18 -1.64024e+18 2.09829e+18 9.52551e+16 7.39225e+18 1.51396e+18)
(-6.14974e+17 -4.57075e+17 9.85085e+17 4.33585e+17 4.83206e+18 1.81709e+17)
)
;
    }
    procBoundary16to32
    {
        type            processor;
        value           nonuniform List<symmTensor> 
15
(
(-3.80748e+18 -1.58921e+19 -4.76784e+18 1.37819e+19 -2.94311e+18 -5.60816e+18)
(9.4069e+17 -7.68251e+17 -6.8524e+16 1.42305e+18 -2.4785e+18 -2.40001e+18)
(1.05386e+18 9.24109e+17 1.19317e+17 2.45182e+18 -1.99234e+18 -1.98804e+18)
(-7.47147e+17 2.71297e+18 -3.04483e+17 2.991e+18 -2.0079e+18 -2.21446e+18)
(-4.94094e+18 1.91158e+18 2.22555e+17 1.23609e+19 -6.62499e+17 -3.21619e+18)
(1.11549e+18 -9.16697e+18 -8.96442e+18 5.32727e+17 2.79094e+18 -3.42423e+18)
(5.20271e+17 6.33267e+17 9.40014e+17 5.86568e+17 1.31283e+18 -1.1555e+18)
(1.42862e+17 1.11525e+18 5.09269e+17 7.62414e+17 1.61785e+18 -1.00759e+18)
(-5.91257e+17 2.15051e+17 -7.43925e+17 1.37626e+18 1.5354e+18 -1.05911e+18)
(-1.24284e+18 2.76853e+17 2.92501e+17 2.7786e+18 1.3378e+18 -9.98464e+17)
(4.18041e+17 1.83178e+18 -7.26621e+18 -4.14226e+17 4.2366e+18 -4.7282e+16)
(2.65005e+17 -2.74879e+17 9.6173e+17 -5.84459e+16 2.93088e+18 -1.42232e+17)
(5.69333e+17 -4.69409e+17 5.86453e+17 -2.90629e+17 2.51846e+18 -3.34729e+17)
(5.97266e+17 -6.11784e+17 4.19769e+16 -1.45443e+17 2.64333e+18 -8.2125e+16)
(1.51329e+17 -2.8767e+17 6.84983e+16 2.39625e+17 1.90997e+18 3.57068e+17)
)
;
    }
    procBoundary16to80
    {
        type            processor;
        value           nonuniform List<symmTensor> 
20
(
(1.07899e+19 1.05301e+20 -4.05477e+19 -1.85143e+19 1.35732e+19 1.36284e+19)
(1.19883e+19 -3.08459e+18 1.55991e+17 -2.03415e+19 1.15599e+19 7.79048e+18)
(1.10365e+19 -1.2644e+19 3.79892e+18 -2.74624e+19 3.65601e+18 1.34117e+19)
(6.69693e+18 -1.02653e+19 5.36339e+18 -1.40543e+19 1.86789e+18 8.79515e+18)
(1.45308e+18 -2.19798e+19 5.98581e+18 -1.76706e+19 6.51403e+18 1.08842e+19)
(2.78808e+17 6.82508e+19 -3.62197e+19 -9.48041e+18 1.21804e+19 9.57031e+18)
(3.46783e+18 -4.2827e+18 2.7611e+18 -7.62873e+18 8.11327e+18 3.34456e+18)
(2.76038e+18 -4.99387e+18 3.17859e+18 -6.57314e+18 2.96131e+18 3.30778e+18)
(1.69647e+18 -2.32113e+18 1.56953e+18 -5.58786e+18 1.90298e+18 3.14931e+18)
(2.81531e+18 -4.41066e+18 1.0767e+18 -7.7848e+18 3.03537e+18 3.71061e+18)
(9.7517e+18 5.01593e+19 -2.24668e+19 -1.42868e+19 1.46708e+19 5.61061e+18)
(1.93782e+18 -2.9768e+18 1.38131e+18 -4.57852e+18 5.27519e+18 1.88329e+18)
(5.9043e+17 -2.86063e+18 1.71871e+18 -2.75711e+18 2.11632e+18 1.64952e+18)
(4.16492e+17 -1.9396e+18 6.66096e+17 -2.75211e+18 1.70334e+18 2.25982e+18)
(5.46443e+17 -1.57487e+18 3.95871e+17 -3.05639e+18 1.34817e+18 1.2969e+18)
(4.37899e+18 2.40982e+19 -7.58952e+18 -6.33013e+18 6.74823e+18 2.72027e+18)
(1.07599e+18 -1.24677e+18 2.65726e+17 -2.59839e+18 2.19866e+18 9.8067e+17)
(9.11796e+17 -2.56535e+18 3.71953e+17 -1.60445e+18 1.44817e+18 8.92373e+17)
(2.00225e+17 -1.4688e+18 5.09707e+17 -1.30411e+18 8.28405e+17 6.48465e+17)
(2.42939e+17 3.22035e+17 1.66552e+17 -6.34027e+17 4.87611e+17 5.71025e+17)
)
;
    }
}


// ************************************************************************* //
