/*--------------------------------*- C++ -*----------------------------------*\
| =========                 |                                                 |
| \\      /  F ield         | OpenFOAM: The Open Source CFD Toolbox           |
|  \\    /   O peration     | Version:  2.4.0                                 |
|   \\  /    A nd           | Web:      www.OpenFOAM.org                      |
|    \\/     M anipulation  |                                                 |
\*---------------------------------------------------------------------------*/
FoamFile
{
    version     2.0;
    format      ascii;
    class       volVectorField;
    location    "0.01";
    object      gradp;
}
// * * * * * * * * * * * * * * * * * * * * * * * * * * * * * * * * * * * * * //

dimensions      [1 -2 -2 0 0 0 0];

internalField   nonuniform List<vector> 
60
(
(-1.02816e+24 -1.15602e+25 -1.58357e+24)
(-2.5758e+24 -1.06008e+25 -1.292e+24)
(-2.96636e+24 -7.4514e+24 -8.90217e+23)
(-2.15103e+24 -5.0493e+24 -5.25374e+23)
(-1.3154e+24 -3.35233e+24 -3.86935e+23)
(7.46195e+22 -3.56142e+24 -2.11046e+23)
(1.03149e+23 -3.05343e+24 -2.31209e+23)
(-9.40135e+22 -2.2751e+24 -2.38253e+23)
(-3.16939e+23 -1.57033e+24 -2.06541e+23)
(-3.75699e+23 -1.23327e+24 -1.69788e+23)
(-1.21638e+22 -6.50234e+23 -7.53225e+22)
(-3.15851e+21 -6.90503e+23 -7.18452e+22)
(-1.63742e+20 -7.03041e+23 -7.31884e+22)
(-6.737e+22 -6.49535e+23 -7.24367e+22)
(-1.14446e+23 -5.58714e+23 -5.77695e+22)
(-5.91715e+21 -2.48571e+23 -3.31207e+22)
(-2.46419e+21 -2.42748e+23 -3.23245e+22)
(-1.2078e+22 -2.44559e+23 -3.23253e+22)
(-2.82856e+22 -2.41478e+23 -2.73607e+22)
(-3.5757e+22 -2.13851e+23 -2.40562e+22)
(-9.51462e+22 -4.23867e+24 -2.26423e+24)
(-3.57071e+23 -3.60563e+24 -1.93837e+24)
(-5.13143e+23 -2.73552e+24 -1.45347e+24)
(-5.40526e+23 -2.06966e+24 -1.01708e+24)
(-6.12465e+23 -1.54892e+24 -7.92508e+23)
(1.00995e+22 -1.14823e+24 -4.26454e+23)
(1.60883e+22 -1.10117e+24 -4.47596e+23)
(-1.50766e+22 -9.67857e+23 -4.56265e+23)
(-9.78524e+22 -8.4563e+23 -4.17628e+23)
(-1.74026e+23 -7.06609e+23 -3.58715e+23)
(-1.03626e+21 -3.65553e+23 -1.6399e+23)
(3.67083e+21 -3.72287e+23 -1.61171e+23)
(-2.0565e+21 -3.73557e+23 -1.63533e+23)
(-1.80296e+22 -3.62846e+23 -1.5934e+23)
(-3.67794e+22 -3.25543e+23 -1.39746e+23)
(-3.36941e+21 -1.53494e+23 -7.01371e+22)
(8.08064e+19 -1.52259e+23 -6.90827e+22)
(3.80595e+21 -1.52604e+23 -7.06164e+22)
(-1.82437e+21 -1.47902e+23 -6.51113e+22)
(-1.27765e+22 -1.41797e+23 -5.99751e+22)
(1.46025e+22 -4.13852e+23 -9.45475e+23)
(1.86429e+22 -3.69966e+23 -9.17395e+23)
(-1.8213e+22 -3.3213e+23 -8.28567e+23)
(-3.59485e+22 -2.38592e+23 -7.38056e+23)
(-4.98789e+22 -2.28231e+23 -6.36799e+23)
(6.96699e+21 -2.01034e+23 -3.2648e+23)
(7.75512e+21 -2.09906e+23 -3.28634e+23)
(1.88182e+21 -2.11204e+23 -3.26257e+23)
(-4.77903e+21 -1.97952e+23 -3.14633e+23)
(-1.84324e+22 -1.88855e+23 -2.85587e+23)
(-3.14126e+21 -8.01269e+22 -1.3814e+23)
(-1.69577e+21 -8.4882e+22 -1.36727e+23)
(5.69536e+21 -8.60034e+22 -1.35544e+23)
(8.74792e+21 -8.55076e+22 -1.30318e+23)
(8.91435e+20 -8.07306e+22 -1.23442e+23)
(-2.54321e+21 -3.4893e+22 -5.84537e+22)
(-3.99804e+21 -3.29551e+22 -5.75065e+22)
(6.3053e+20 -3.36664e+22 -5.77563e+22)
(5.76662e+21 -3.50134e+22 -5.64371e+22)
(3.61106e+21 -3.56038e+22 -5.32878e+22)
)
;

boundaryField
{
    inlet
    {
        type            zeroGradient;
    }
    outlet
    {
        type            zeroGradient;
    }
    bottom
    {
        type            zeroGradient;
    }
    top
    {
        type            symmetryPlane;
    }
    side1
    {
        type            symmetryPlane;
    }
    side2
    {
        type            symmetryPlane;
    }
    procBoundary16to0
    {
        type            processor;
        value           nonuniform List<vector> 
15
(
(-1.84423e+24 -6.19341e+25 -4.78701e+24)
(-8.11449e+24 -3.93759e+25 -4.60318e+24)
(-1.1197e+25 -2.2838e+25 -3.18568e+24)
(-8.51509e+24 -1.32397e+25 -2.06881e+24)
(-6.23028e+24 -8.44137e+24 -1.29692e+24)
(-1.25598e+24 -3.00073e+25 -7.39293e+24)
(-2.99021e+24 -1.65598e+25 -6.84186e+24)
(-3.08701e+24 -9.07373e+24 -4.90581e+24)
(-2.47105e+24 -5.00716e+24 -3.42432e+24)
(-2.15415e+24 -2.99521e+24 -2.31127e+24)
(-8.08062e+22 1.51591e+23 -3.2503e+24)
(-1.55689e+23 -1.4762e+23 -2.83073e+24)
(-2.60865e+23 -4.23327e+23 -2.25287e+24)
(-2.12578e+23 -4.49869e+23 -1.78461e+24)
(-6.59667e+22 -3.23233e+23 -1.39269e+24)
)
;
    }
    procBoundary16to17
    {
        type            processor;
        value           nonuniform List<vector> 
12
(
(-1.06966e+24 -2.12201e+24 -3.05706e+23)
(-3.9707e+23 -9.69852e+23 -1.43519e+23)
(-1.346e+23 -4.79564e+23 -4.81659e+22)
(-5.87941e+22 -1.9149e+23 -2.01793e+22)
(-6.16762e+23 -1.0796e+24 -6.216e+23)
(-1.94933e+23 -5.57787e+23 -3.05983e+23)
(-5.87406e+22 -2.82221e+23 -1.23297e+23)
(-2.7686e+22 -1.31018e+23 -5.28088e+22)
(-1.01366e+23 -2.14825e+23 -5.20766e+23)
(-3.05002e+22 -1.72567e+23 -2.46803e+23)
(-9.47479e+21 -7.44859e+22 -1.1003e+23)
(6.7752e+20 -3.2636e+22 -4.89286e+22)
)
;
    }
    procBoundary16to32
    {
        type            processor;
        value           nonuniform List<vector> 
15
(
(-5.18028e+20 -1.08187e+23 -1.58995e+22)
(4.86612e+21 -1.04481e+23 -1.52891e+22)
(2.37681e+21 -1.04754e+23 -1.57167e+22)
(-5.95399e+21 -9.63139e+22 -1.39518e+22)
(-1.44696e+22 -9.07395e+22 -1.27357e+22)
(1.43529e+21 -6.37919e+22 -3.04415e+22)
(5.45114e+21 -6.17586e+22 -3.005e+22)
(6.656e+21 -6.3409e+22 -3.17254e+22)
(3.58523e+21 -6.26346e+22 -3.02994e+22)
(-3.00981e+21 -6.11187e+22 -2.8342e+22)
(7.34528e+20 -1.44061e+22 -2.34043e+22)
(7.57394e+20 -1.29472e+22 -2.38633e+22)
(1.57873e+21 -1.21962e+22 -2.4514e+22)
(4.87311e+21 -1.28643e+22 -2.46628e+22)
(5.6463e+21 -1.41391e+22 -2.43279e+22)
)
;
    }
    procBoundary16to80
    {
        type            processor;
        value           nonuniform List<vector> 
20
(
(-5.28938e+21 4.39448e+23 -4.15232e+23)
(1.70359e+22 3.97729e+23 -4.04065e+23)
(6.07409e+22 3.47055e+23 -3.95319e+23)
(7.31293e+22 2.82298e+23 -3.52558e+23)
(8.28635e+22 2.22447e+23 -3.12409e+23)
(3.20662e+21 1.43509e+23 -1.7777e+23)
(1.68007e+22 1.47895e+23 -1.8203e+23)
(2.97251e+22 1.4098e+23 -1.74841e+23)
(3.2291e+22 1.26751e+23 -1.54058e+23)
(4.30296e+22 1.14763e+23 -1.39455e+23)
(3.48295e+21 6.32886e+22 -7.49378e+22)
(1.19777e+22 6.15162e+22 -7.50362e+22)
(1.84529e+22 5.60447e+22 -6.57481e+22)
(2.06961e+22 5.02677e+22 -6.2153e+22)
(2.81419e+22 4.61364e+22 -6.16656e+22)
(-3.38165e+20 3.0082e+22 -3.19988e+22)
(2.31274e+21 2.83237e+22 -3.01572e+22)
(7.22797e+21 2.50433e+22 -2.83162e+22)
(1.24745e+22 2.11461e+22 -2.73337e+22)
(1.12508e+22 1.67856e+22 -2.56389e+22)
)
;
    }
}


// ************************************************************************* //
