/*--------------------------------*- C++ -*----------------------------------*\
| =========                 |                                                 |
| \\      /  F ield         | OpenFOAM: The Open Source CFD Toolbox           |
|  \\    /   O peration     | Version:  2.4.0                                 |
|   \\  /    A nd           | Web:      www.OpenFOAM.org                      |
|    \\/     M anipulation  |                                                 |
\*---------------------------------------------------------------------------*/
FoamFile
{
    version     2.0;
    format      ascii;
    class       volScalarField;
    location    "0.01";
    object      nut;
}
// * * * * * * * * * * * * * * * * * * * * * * * * * * * * * * * * * * * * * //

dimensions      [0 2 -1 0 0 0 0];

internalField   nonuniform List<scalar> 
200
(
0.000116186
0.000113802
0.00011362
0.000112316
0.00011747
5.21744e-05
0.000277836
0.000294186
0.000115363
9.97387e-05
0.000116874
0.0001138
0.000114337
0.000114755
0.000116845
9.31832e-05
0.000156738
0.00015475
7.14839e-05
5.71125e-05
0.000117093
0.000113737
0.000114546
0.000114954
0.00012115
9.8432e-05
0.000148324
0.000145453
7.23603e-05
6.1963e-05
0.000117042
0.000113713
0.000114099
0.000114876
0.000115553
0.000102392
0.000152762
0.000139858
7.18715e-05
8.19692e-05
9.37373e-07
2.86012e-06
5.97779e-06
1.16193e-05
1.64604e-05
2.97785e-05
1.08939e-05
8.23744e-05
5.18718e-05
9.94481e-05
1.57366e-06
2.12101e-06
1.95369e-06
4.28209e-06
1.49695e-05
2.07875e-05
4.03255e-06
3.6944e-05
3.16712e-05
5.80609e-05
1.42793e-06
2.0586e-06
3.35744e-06
4.62826e-06
4.44054e-05
5.92402e-05
2.34037e-05
3.10855e-05
5.65897e-05
0.000225161
1.53379e-06
1.73887e-06
2.90872e-06
5.7387e-06
1.19963e-05
1.90568e-05
9.84507e-06
3.17548e-05
1.57897e-05
7.84883e-05
5.08184e-06
4.55027e-06
2.55565e-06
6.0374e-06
8.79578e-06
1.03563e-05
1.87015e-05
6.91977e-06
1.20058e-05
3.41159e-05
3.06177e-06
2.2768e-06
1.0996e-05
6.3001e-06
3.82089e-05
0.000133749
1.76311e-05
7.09165e-06
1.373e-05
2.31172e-05
1.13487e-06
2.15477e-06
1.86914e-06
4.32018e-05
0.000201557
9.29458e-05
0.000214885
3.39259e-05
2.06337e-05
3.20231e-05
7.85787e-07
1.25771e-06
2.23583e-06
5.79925e-06
4.12003e-05
9.25142e-05
3.02362e-05
6.91501e-06
2.23295e-05
2.42729e-05
2.66975e-06
1.73946e-06
3.39053e-06
1.54127e-06
1.3425e-05
8.24797e-06
3.36905e-06
7.48928e-06
3.56809e-06
9.11517e-06
2.30793e-06
2.97291e-06
3.32537e-06
1.01526e-05
2.31131e-05
6.30738e-06
7.11799e-06
4.54987e-06
1.5655e-06
8.08043e-06
1.93161e-06
8.5434e-06
2.99036e-06
7.42439e-05
2.47215e-05
0.000136854
1.99819e-05
9.44375e-06
3.52847e-07
9.64095e-06
1.18885e-06
2.21208e-06
3.33199e-06
5.61726e-06
1.49531e-05
1.36737e-05
8.28845e-06
7.77338e-06
2.16385e-06
1.64304e-05
1.1971e-06
2.81013e-07
1.93718e-06
2.68004e-06
4.84408e-06
5.53403e-06
2.89084e-06
1.78608e-06
8.98134e-06
2.0075e-05
9.17637e-07
1.46904e-06
4.35618e-07
5.98689e-06
5.65501e-06
6.62685e-06
1.20447e-06
3.03052e-06
2.52214e-06
1.48229e-05
1.17101e-06
3.05691e-07
7.29212e-06
1.12254e-06
2.02084e-05
2.31086e-06
2.70913e-06
4.16506e-06
3.23324e-06
1.38339e-05
6.52362e-07
5.55351e-07
3.15417e-06
5.04073e-06
1.23816e-06
2.51571e-06
2.02166e-06
1.62766e-06
3.60411e-06
9.0785e-06
)
;

boundaryField
{
    inlet
    {
        type            calculated;
        value           nonuniform List<scalar> 
20
(
8.91993e-29
8.96344e-29
8.97134e-29
8.96987e-29
1.62023e-30
2.05357e-30
1.67943e-30
1.78683e-30
5.93375e-30
2.50715e-30
1.37088e-30
1.07445e-30
2.9654e-30
2.59532e-30
1.31148e-30
1.29259e-30
2.36438e-30
1.69578e-30
1.37157e-31
2.13197e-32
)
;
    }
    outlet
    {
        type            calculated;
        value           nonuniform 0();
    }
    bottom
    {
        type            calculated;
        value           nonuniform List<scalar> 
40
(
1.69402e-28
1.69827e-28
1.69963e-28
1.6996e-28
1.67615e-28
1.67327e-28
1.67192e-28
1.67292e-28
1.67342e-28
1.6746e-28
1.67456e-28
1.6736e-28
1.65641e-28
1.66998e-28
1.67068e-28
1.67369e-28
1.73093e-28
1.68818e-28
1.6985e-28
1.67934e-28
1.19696e-28
1.48395e-28
1.47496e-28
1.55995e-28
3.44082e-28
2.13033e-28
2.06972e-28
2.03563e-28
2.49978e-28
1.71873e-28
1.71156e-28
1.65349e-28
8.46803e-29
1.16385e-28
1.19295e-28
1.20228e-28
6.64373e-29
9.51845e-29
1.1243e-28
1.39026e-28
)
;
    }
    top
    {
        type            symmetryPlane;
    }
    side1
    {
        type            symmetryPlane;
    }
    side2
    {
        type            symmetryPlane;
    }
    procBoundary16to8
    {
        type            processor;
        value           nonuniform List<scalar> 
50
(
0.000115748
0.000111467
0.000114465
0.000107528
0.000121102
0.000102312
0.000510767
0.000481424
0.000398965
0.000289383
1.04322e-06
6.70399e-06
1.35212e-05
2.05896e-05
8.92926e-06
9.94605e-05
4.67574e-05
0.000253839
0.000113065
9.27277e-05
6.23778e-06
7.32932e-06
1.08929e-05
1.2295e-05
2.44765e-05
1.74033e-05
4.02894e-05
1.54002e-05
1.55398e-05
4.10567e-05
3.21905e-06
2.33076e-06
3.26234e-06
8.90663e-07
9.53545e-06
7.80791e-06
5.84231e-06
9.50348e-06
1.1515e-05
1.94864e-05
1.20759e-06
5.13661e-07
2.56607e-06
1.06272e-06
6.14452e-06
3.74918e-06
4.13108e-06
3.98997e-06
2.90196e-05
3.76997e-05
)
;
    }
    procBoundary16to17
    {
        type            processor;
        value           nonuniform List<scalar> 
20
(
0.000145587
0.000106438
9.91744e-05
0.000132724
4.6179e-05
0.000148034
8.21941e-05
8.62731e-05
4.14872e-05
2.4756e-05
9.59637e-05
2.8362e-05
8.63468e-06
8.29002e-06
1.11297e-05
4.27557e-06
4.84124e-05
1.8214e-05
1.21806e-05
3.53244e-06
)
;
    }
    procBoundary16to24
    {
        type            processor;
        value           nonuniform List<scalar> 
50
(
0.000116922
0.000113567
0.000113536
0.000115392
0.000114176
0.000112137
0.000119767
0.000119235
0.000102281
9.83215e-05
1.44641e-06
1.33915e-06
1.65347e-06
5.75297e-06
3.35546e-06
4.97402e-06
2.18795e-06
7.43001e-06
4.14846e-06
2.57222e-05
6.04912e-07
1.4326e-06
1.01526e-06
1.88251e-06
6.26514e-06
1.91541e-05
9.41824e-06
1.7575e-06
2.20239e-05
1.78866e-05
8.86731e-07
1.39591e-06
1.02879e-06
3.90689e-06
6.77407e-06
7.52751e-06
3.465e-06
6.75346e-06
3.42113e-06
1.73784e-05
1.36782e-07
1.71076e-06
2.42064e-06
3.67411e-06
2.29153e-06
2.3724e-06
1.84984e-06
1.93669e-06
3.29375e-06
3.69849e-06
)
;
    }
}


// ************************************************************************* //
