/*--------------------------------*- C++ -*----------------------------------*\
| =========                 |                                                 |
| \\      /  F ield         | OpenFOAM: The Open Source CFD Toolbox           |
|  \\    /   O peration     | Version:  2.4.0                                 |
|   \\  /    A nd           | Web:      www.OpenFOAM.org                      |
|    \\/     M anipulation  |                                                 |
\*---------------------------------------------------------------------------*/
FoamFile
{
    version     2.0;
    format      ascii;
    class       volVectorField;
    location    "0.09";
    object      A_Source;
}
// * * * * * * * * * * * * * * * * * * * * * * * * * * * * * * * * * * * * * //

dimensions      [1 -2 -2 0 0 0 0];

internalField   nonuniform List<vector> 
200
(
(-1.76971e-98 -1.22652e-98 6.77426e-99)
(-7.78593e-101 -5.38485e-101 2.98037e-101)
(-3.42216e-103 -2.36186e-103 1.30997e-103)
(-1.50278e-105 -1.035e-105 5.75247e-106)
(-6.59343e-108 -4.53155e-108 2.5239e-108)
(-2.89049e-110 -1.98243e-110 1.10645e-110)
(-1.26617e-112 -8.66578e-113 4.84676e-113)
(-5.54227e-115 -3.78525e-115 2.12152e-115)
(-2.42424e-117 -1.65224e-117 9.27973e-118)
(-1.05964e-119 -7.20688e-120 4.0562e-120)
(-1.00851e-99 -7.40387e-100 3.86048e-100)
(-4.51387e-102 -3.31033e-102 1.72786e-102)
(-2.01773e-104 -1.4782e-104 7.72368e-105)
(-9.00853e-107 -6.59276e-107 3.44837e-107)
(-4.01739e-109 -2.93699e-109 1.53781e-109)
(-1.7896e-111 -1.30695e-111 6.85039e-112)
(-7.96364e-114 -5.80979e-114 3.0484e-114)
(-3.54023e-116 -2.58003e-116 1.35516e-116)
(-1.57229e-118 -1.14465e-118 6.01856e-119)
(-6.97631e-121 -5.07353e-121 2.67046e-121)
(-2.98205e-101 -2.23166e-101 1.1415e-101)
(-1.35785e-103 -1.01546e-103 5.19772e-104)
(-6.17321e-106 -4.61337e-106 2.36304e-106)
(-2.80233e-108 -2.09278e-108 1.0727e-108)
(-1.27031e-110 -9.48002e-111 4.8626e-111)
(-5.75047e-113 -4.28846e-113 2.20122e-113)
(-2.59974e-115 -1.93742e-115 9.95153e-116)
(-1.17385e-117 -8.74183e-118 4.49336e-118)
(-5.29382e-120 -3.93964e-120 2.02642e-120)
(-2.3846e-122 -1.77338e-122 9.12801e-123)
(-6.01144e-103 -4.54213e-103 2.30111e-103)
(-2.78416e-105 -2.10256e-105 1.06575e-105)
(-1.28709e-107 -9.71481e-108 4.92683e-108)
(-5.93952e-110 -4.48075e-110 2.27358e-110)
(-2.73627e-112 -2.06315e-112 1.04741e-112)
(-1.25852e-114 -9.48428e-115 4.81748e-115)
(-5.77942e-117 -4.35313e-117 2.2123e-117)
(-2.65007e-119 -1.99502e-119 1.01442e-119)
(-1.2134e-121 -9.12994e-122 4.64479e-122)
(-5.54809e-124 -4.17232e-124 2.12375e-124)
(-4.01207e-100 -2.77479e-100 1.53578e-100)
(-1.79627e-102 -1.23972e-102 6.87594e-103)
(-8.03201e-105 -5.53182e-105 3.07457e-105)
(-3.58717e-107 -2.46539e-107 1.37313e-107)
(-1.60022e-109 -1.0975e-109 6.12546e-110)
(-7.13065e-112 -4.88029e-112 2.72954e-112)
(-3.17412e-114 -2.16786e-114 1.21502e-114)
(-1.4115e-116 -9.62011e-117 5.40308e-117)
(-6.27079e-119 -4.26492e-119 2.40039e-119)
(-2.78326e-121 -1.88901e-121 1.0654e-121)
(-2.32602e-101 -1.70583e-101 8.90376e-102)
(-1.05911e-103 -7.75904e-104 4.05415e-104)
(-4.81489e-106 -3.52371e-106 1.84309e-106)
(-2.18567e-108 -1.59787e-108 8.3665e-109)
(-9.90743e-111 -7.23544e-111 3.79246e-111)
(-4.48482e-113 -3.27186e-113 1.71674e-113)
(-2.0275e-115 -1.47759e-115 7.76105e-116)
(-9.15443e-118 -6.66455e-118 3.50422e-118)
(-4.12837e-120 -3.00237e-120 1.5803e-120)
(-1.85958e-122 -1.35097e-122 7.11827e-123)
(-6.9972e-103 -5.2328e-103 2.67845e-103)
(-3.24034e-105 -2.42157e-105 1.24037e-105)
(-1.4978e-107 -1.11856e-107 5.73341e-108)
(-6.9111e-110 -5.15761e-110 2.6455e-110)
(-3.1835e-112 -2.37412e-112 1.21861e-112)
(-1.46406e-114 -1.09107e-114 5.60425e-115)
(-6.72253e-117 -5.00639e-117 2.57331e-117)
(-3.08218e-119 -2.29375e-119 1.17982e-119)
(-1.4111e-121 -1.0494e-121 5.40153e-122)
(-6.45128e-124 -4.79433e-124 2.46948e-124)
(-1.43473e-104 -1.08349e-104 5.49198e-105)
(-6.75597e-107 -5.09935e-107 2.58611e-107)
(-3.17456e-109 -2.39487e-109 1.21519e-109)
(-1.48865e-111 -1.12245e-111 5.69841e-112)
(-6.96716e-114 -5.2505e-114 2.66696e-114)
(-3.25465e-116 -2.45144e-116 1.24584e-116)
(-1.51764e-118 -1.14251e-118 5.80937e-119)
(-7.06451e-121 -5.31551e-121 2.70422e-121)
(-3.283e-123 -2.46891e-123 1.2567e-123)
(-1.52318e-125 -1.14488e-125 5.83058e-126)
(-4.66489e-102 -3.21948e-102 1.78567e-102)
(-2.12502e-104 -1.46352e-104 8.13435e-105)
(-9.66507e-107 -6.64251e-107 3.69969e-107)
(-4.38933e-109 -3.01035e-109 1.68019e-109)
(-1.99055e-111 -1.36233e-111 7.6196e-112)
(-9.01474e-114 -6.15678e-114 3.45075e-114)
(-4.07724e-116 -2.7788e-116 1.56072e-116)
(-1.84177e-118 -1.25261e-118 7.05009e-119)
(-8.30959e-121 -5.63966e-121 3.18082e-121)
(-3.74468e-123 -2.53617e-123 1.43342e-123)
(-2.75088e-103 -2.01528e-103 1.05301e-103)
(-1.27405e-105 -9.32384e-106 4.87692e-106)
(-5.88973e-108 -4.30577e-108 2.25453e-108)
(-2.71792e-110 -1.98489e-110 1.04039e-110)
(-1.25211e-112 -9.13457e-113 4.79294e-113)
(-5.75894e-115 -4.19695e-115 2.20446e-115)
(-2.64464e-117 -1.92532e-117 1.01234e-117)
(-1.21266e-119 -8.81902e-120 4.64193e-120)
(-5.55247e-122 -4.03379e-122 2.12543e-122)
(-2.53877e-124 -1.84245e-124 9.71815e-125)
(-8.41755e-105 -6.29057e-105 3.22215e-105)
(-3.96381e-107 -2.96015e-107 1.5173e-107)
(-1.86259e-109 -1.39e-109 7.12979e-110)
(-8.73447e-112 -6.51376e-112 3.34346e-112)
(-4.08797e-114 -3.0465e-114 1.56483e-114)
(-1.9097e-116 -1.42218e-116 7.31014e-117)
(-8.90515e-119 -6.62716e-119 3.4088e-119)
(-4.14538e-121 -3.08281e-121 1.58681e-121)
(-1.92647e-123 -1.43167e-123 7.37434e-124)
(-8.9383e-126 -6.63791e-126 3.42149e-126)
(-1.75526e-106 -1.32485e-106 6.71897e-107)
(-8.40234e-109 -6.33867e-109 3.21633e-109)
(-4.01253e-111 -3.02544e-111 1.53596e-111)
(-1.91179e-113 -1.44073e-113 7.31814e-114)
(-9.08879e-116 -6.84576e-116 3.47909e-116)
(-4.31173e-118 -3.24594e-118 1.65049e-118)
(-2.04133e-120 -1.53594e-120 7.814e-121)
(-9.64547e-123 -7.25366e-123 3.69218e-123)
(-4.54897e-125 -3.41916e-125 1.7413e-125)
(-2.14142e-127 -1.60872e-127 8.19713e-128)
(-3.68711e-104 -2.53929e-104 1.41139e-104)
(-1.70848e-106 -1.17416e-106 6.53988e-107)
(-7.90188e-109 -5.41925e-109 3.02475e-109)
(-3.64823e-111 -2.49679e-111 1.3965e-111)
(-1.68151e-113 -1.14839e-113 6.43664e-114)
(-7.7377e-116 -5.27344e-116 2.96191e-116)
(-3.55506e-118 -2.4178e-118 1.36084e-118)
(-1.63092e-120 -1.10687e-120 6.24299e-121)
(-7.47125e-123 -5.05998e-123 2.85992e-123)
(-3.41778e-125 -2.30988e-125 1.30829e-125)
(-2.21097e-105 -1.61804e-105 8.46337e-106)
(-1.04129e-107 -7.61243e-108 3.98596e-108)
(-4.89372e-110 -3.57384e-110 1.87326e-110)
(-2.2952e-112 -1.67441e-112 8.78579e-113)
(-1.07437e-114 -7.82965e-115 4.11259e-115)
(-5.01968e-117 -3.65433e-117 1.92148e-117)
(-2.34107e-119 -1.70252e-119 8.96136e-120)
(-1.08993e-121 -7.91814e-122 4.17215e-122)
(-5.06597e-124 -3.67646e-124 1.9392e-124)
(-2.35081e-126 -1.70424e-126 8.99865e-127)
(-6.87997e-107 -5.13789e-107 2.63358e-107)
(-3.29357e-109 -2.45789e-109 1.26074e-109)
(-1.57293e-111 -1.17301e-111 6.02101e-112)
(-7.49472e-114 -5.58528e-114 2.8689e-114)
(-3.56324e-116 -2.65357e-116 1.36397e-116)
(-1.6905e-118 -1.25805e-118 6.47106e-119)
(-8.00391e-121 -5.95226e-121 3.06381e-121)
(-3.78214e-123 -2.8107e-123 1.44776e-123)
(-1.78382e-125 -1.32473e-125 6.82829e-126)
(-8.39783e-128 -6.23214e-128 3.2146e-128)
(-1.45863e-108 -1.10038e-108 5.5835e-109)
(-7.09643e-111 -5.35067e-111 2.71644e-111)
(-3.44336e-113 -2.59492e-113 1.31808e-113)
(-1.66656e-115 -1.25526e-115 6.3794e-116)
(-8.04629e-118 -6.05734e-118 3.08004e-118)
(-3.8757e-120 -2.91615e-120 1.48358e-120)
(-1.86261e-122 -1.40073e-122 7.12988e-123)
(-8.93195e-125 -6.71352e-125 3.41906e-125)
(-4.27422e-127 -3.21095e-127 1.63613e-127)
(-2.04116e-129 -1.53259e-129 7.81333e-130)
(-2.23648e-106 -1.53698e-106 8.4773e-107)
(-1.05392e-108 -7.22771e-109 3.99418e-109)
(-4.95592e-111 -3.39164e-111 1.87791e-111)
(-2.32573e-113 -1.58831e-113 8.81127e-114)
(-1.0893e-115 -7.42359e-116 4.12624e-116)
(-5.09237e-118 -3.46321e-118 1.92867e-118)
(-2.37636e-120 -1.61273e-120 8.99867e-121)
(-1.10701e-122 -7.4971e-123 4.19129e-123)
(-5.14836e-125 -3.47937e-125 1.94892e-125)
(-2.39045e-127 -1.61214e-127 9.04758e-128)
(-1.36346e-107 -9.96746e-108 5.16731e-108)
(-6.52869e-110 -4.76776e-110 2.47388e-110)
(-3.11869e-112 -2.27513e-112 1.18155e-112)
(-1.48635e-114 -1.08318e-114 5.63031e-115)
(-7.06832e-117 -5.14566e-117 2.67704e-117)
(-3.35422e-119 -2.43928e-119 1.27016e-119)
(-1.58848e-121 -1.15398e-121 6.01421e-122)
(-7.50795e-124 -5.44857e-124 2.84215e-124)
(-3.54194e-126 -2.56772e-126 1.34059e-126)
(-1.66787e-128 -1.20785e-128 6.31168e-129)
(-4.31371e-109 -3.21915e-109 1.63457e-109)
(-2.09898e-111 -1.5653e-111 7.95224e-112)
(-1.01863e-113 -7.59104e-114 3.85857e-114)
(-4.93083e-116 -3.67199e-116 1.86749e-116)
(-2.38101e-118 -1.7719e-118 9.01633e-119)
(-1.14705e-120 -8.53018e-121 4.3429e-121)
(-5.51342e-123 -4.09725e-123 2.08712e-123)
(-2.64431e-125 -1.96373e-125 1.00084e-125)
(-1.26558e-127 -9.39193e-128 4.78931e-128)
(-6.04472e-130 -4.48269e-130 2.28712e-130)
(-9.29685e-111 -7.00971e-111 3.52222e-111)
(-4.59613e-113 -3.46361e-113 1.74101e-113)
(-2.26563e-115 -1.70647e-115 8.58081e-116)
(-1.11372e-117 -8.38417e-118 4.2174e-118)
(-5.46011e-120 -4.10825e-120 2.06727e-120)
(-2.66997e-122 -2.00786e-122 1.01072e-122)
(-1.30236e-124 -9.78885e-125 4.92931e-125)
(-6.33747e-127 -4.7609e-127 2.39828e-127)
(-3.07678e-129 -2.31016e-129 1.16415e-129)
(-1.49039e-131 -1.11845e-131 5.6382e-132)
)
;

boundaryField
{
    inlet
    {
        type            zeroGradient;
    }
    outlet
    {
        type            zeroGradient;
    }
    bottom
    {
        type            zeroGradient;
    }
    top
    {
        type            symmetryPlane;
    }
    side1
    {
        type            symmetryPlane;
    }
    side2
    {
        type            symmetryPlane;
    }
    procBoundary5to4
    {
        type            processor;
        value           nonuniform List<vector> 
20
(
(-7.2223e-96 -5.0144e-96 2.76462e-96)
(-4.05524e-97 -2.97975e-97 1.5523e-97)
(-1.18139e-98 -8.84637e-99 4.52224e-99)
(-2.34678e-100 -1.77398e-100 8.98324e-101)
(-1.61285e-97 -1.11745e-97 6.17381e-98)
(-9.21521e-99 -6.76417e-99 3.52748e-99)
(-2.73188e-100 -2.04423e-100 1.04574e-100)
(-5.52105e-102 -4.17129e-102 2.1134e-102)
(-1.84746e-99 -1.2773e-99 7.07186e-100)
(-1.07392e-100 -7.87453e-101 4.11086e-101)
(-3.23916e-102 -2.42212e-102 1.23992e-102)
(-6.65886e-104 -5.02828e-104 2.54894e-104)
(-1.43885e-101 -9.92703e-102 5.50778e-102)
(-8.5071e-103 -6.23124e-103 3.25643e-103)
(-2.60991e-104 -1.95022e-104 9.99046e-105)
(-5.45619e-106 -4.11794e-106 2.08857e-106)
(-8.60117e-104 -5.92159e-104 3.2607e-104)
(-5.17127e-105 -3.78381e-105 1.96011e-105)
(-1.61339e-106 -1.20473e-106 6.11438e-107)
(-3.4294e-108 -2.58689e-108 1.29945e-108)
)
;
    }
    procBoundary5to6
    {
        type            processor;
        value           nonuniform List<vector> 
20
(
(-1.75954e-122 -1.19493e-122 6.73533e-123)
(-1.1706e-123 -8.50689e-124 4.48094e-124)
(-4.04375e-125 -3.00576e-125 1.54791e-125)
(-9.50732e-127 -7.14712e-127 3.6393e-127)
(-4.67123e-124 -3.16567e-124 1.7881e-124)
(-3.15335e-125 -2.28918e-125 1.20707e-125)
(-1.10542e-126 -8.21094e-127 4.23142e-127)
(-2.63705e-128 -1.98137e-128 1.00944e-128)
(-6.35194e-126 -4.29561e-126 2.43145e-126)
(-4.35045e-127 -3.15489e-127 1.66531e-127)
(-1.54749e-128 -1.14866e-128 5.92365e-129)
(-3.74546e-130 -2.81269e-130 1.43372e-130)
(-5.85868e-128 -3.95366e-128 2.24264e-128)
(-4.07036e-129 -2.94864e-129 1.55809e-129)
(-1.46888e-130 -1.08953e-130 5.62272e-131)
(-3.60636e-132 -2.7068e-132 1.38047e-132)
(-4.14065e-130 -2.78832e-130 1.56701e-130)
(-2.91777e-131 -2.11144e-131 1.10404e-131)
(-1.06811e-132 -7.91699e-133 4.04089e-133)
(-2.65983e-134 -1.99531e-134 1.00611e-134)
)
;
    }
    procBoundary5to13
    {
        type            processor;
        value           nonuniform List<vector> 
50
(
(-1.70899e-105 -1.29962e-105 6.54184e-106)
(-7.91296e-108 -6.015e-108 3.029e-108)
(-3.70571e-110 -2.81547e-110 1.41851e-110)
(-1.75161e-112 -1.33006e-112 6.70497e-113)
(-8.33933e-115 -6.32848e-115 3.19221e-115)
(-3.99128e-117 -3.02693e-117 1.52782e-117)
(-1.91707e-119 -1.45292e-119 7.33832e-120)
(-9.22736e-122 -6.9887e-122 3.53214e-122)
(-4.44551e-124 -3.36478e-124 1.70169e-124)
(-2.14167e-126 -1.61997e-126 8.19808e-127)
(-4.10686e-107 -3.12183e-107 1.57206e-107)
(-1.93309e-109 -1.46883e-109 7.39967e-110)
(-9.20144e-112 -6.98804e-112 3.52221e-112)
(-4.41989e-114 -3.35478e-114 1.69189e-114)
(-2.13801e-116 -1.62179e-116 8.18408e-117)
(-1.03945e-118 -7.87966e-119 3.9789e-119)
(-5.07041e-121 -3.84115e-121 1.9409e-121)
(-2.47799e-123 -1.87599e-123 9.48549e-124)
(-1.21188e-125 -9.16862e-126 4.63895e-126)
(-5.92523e-128 -4.4799e-128 2.26812e-128)
(-5.0588e-109 -3.84385e-109 1.93645e-109)
(-2.42031e-111 -1.83827e-111 9.26468e-112)
(-1.17081e-113 -8.88802e-114 4.48173e-114)
(-5.71449e-116 -4.33559e-116 2.18745e-116)
(-2.80821e-118 -2.12927e-118 1.07495e-118)
(-1.38671e-120 -1.05076e-120 5.30819e-121)
(-6.86907e-123 -5.20148e-123 2.62941e-123)
(-3.40823e-125 -2.5791e-125 1.30463e-125)
(-1.69186e-127 -1.27943e-127 6.47628e-128)
(-8.39443e-130 -6.34395e-130 3.2133e-130)
(-4.23235e-111 -3.21456e-111 1.6201e-111)
(-2.05771e-113 -1.56222e-113 7.8767e-114)
(-1.01138e-115 -7.67451e-116 3.87144e-116)
(-5.01471e-118 -3.80306e-118 1.91958e-118)
(-2.50298e-120 -1.89703e-120 9.58116e-121)
(-1.25514e-122 -9.50652e-123 4.80452e-123)
(-6.31228e-125 -4.77778e-125 2.41627e-125)
(-3.17913e-127 -2.40468e-127 1.21694e-127)
(-1.60155e-129 -1.2106e-129 6.13058e-130)
(-8.06248e-132 -6.09036e-132 3.08623e-132)
(-2.7157e-113 -2.06176e-113 1.0288e-113)
(-1.3415e-115 -1.01805e-115 5.08126e-116)
(-6.69831e-118 -5.08067e-118 2.53673e-118)
(-3.37345e-120 -2.55727e-120 1.27735e-120)
(-1.70996e-122 -1.29543e-122 6.47366e-123)
(-8.7063e-125 -6.59138e-125 3.29554e-125)
(-4.44486e-127 -3.36285e-127 1.6822e-127)
(-2.27205e-129 -1.71781e-129 8.59739e-130)
(-1.16144e-131 -8.7753e-132 4.39413e-132)
(-5.93168e-134 -4.47874e-134 2.24379e-134)
)
;
    }
}


// ************************************************************************* //
