/*--------------------------------*- C++ -*----------------------------------*\
| =========                 |                                                 |
| \\      /  F ield         | OpenFOAM: The Open Source CFD Toolbox           |
|  \\    /   O peration     | Version:  2.4.0                                 |
|   \\  /    A nd           | Web:      www.OpenFOAM.org                      |
|    \\/     M anipulation  |                                                 |
\*---------------------------------------------------------------------------*/
FoamFile
{
    version     2.0;
    format      ascii;
    class       surfaceScalarField;
    location    "0.09";
    object      phib;
}
// * * * * * * * * * * * * * * * * * * * * * * * * * * * * * * * * * * * * * //

dimensions      [0 3 -1 0 0 0 0];

internalField   nonuniform List<scalar> 
490
(
78.0152
-2.87999
-3.11989
84.0872
-2.72274
-3.34921
89.4963
-1.49288
-3.91625
97.3114
-3.47754
-4.33757
103.359
-0.481653
-5.56564
108.671
1.1914
-6.50373
116.955
-3.55893
-4.72498
124.721
3.10543
-10.8718
126.64
13.5436
-15.4626
-5.53266
-15.9407
85.0701
-9.07447
-4.21931
92.665
-5.86014
-4.45756
99.5762
-3.88908
-4.51497
108.707
-7.96537
-4.64313
128.772
-12.5386
-8.00774
131.496
6.82676
-8.35947
137.432
-3.65379
-5.84092
145.686
3.96649
-9.11572
157.704
16.0455
-14.5196
2.33006
-18.274
92.228
-7.86909
-3.52318
100.004
-7.25517
-6.38117
103.651
-1.94646
-5.58929
103.74
-4.88657
-3.1682
109.174
-8.70296
-9.26954
130.919
-2.40778
-12.5101
132.902
3.15695
-8.79347
147.262
-1.68699
-8.70733
169.439
3.89355
-10.0246
3.71358
-10.9671
86.8255
-4.74291
92.7217
-6.7316
107.67
-8.9167
114.99
-7.23008
115.663
-7.66348
125.926
-8.88717
141.099
-10.1019
144.774
-7.56018
157.343
-8.39385
-7.83829
74.8656
-5.25419
-3.87899
79.4983
-3.76961
-4.21224
84.3696
-3.97322
-4.81439
87.1881
-1.40565
-5.75037
92.4026
-3.08432
-7.6958
92.7651
2.92978
-9.79604
100.876
-4.31701
-8.51888
97.1145
8.54769
-15.658
96.3112
7.69389
-22.3531
-5.33261
-30.4311
76.1943
-8.11948
-4.47491
83.61
-10.3257
-5.31713
87.2537
-5.63164
-6.50025
95.9897
-8.14656
-6.63822
92.9205
1.39345
-9.41634
104.17
-5.44325
-11.2359
102.01
5.41738
-13.4154
116.468
-0.0372751
-14.9888
127.755
2.53102
-20.6431
13.475
-26.1175
71.6104
-12.4033
-6.10024
73.13
-9.9584
-8.26802
83.7185
-12.2946
-9.51488
87.5529
-4.42734
-10.7218
99.5002
-8.03403
-11.7893
95.5243
0.563276
-14.5408
112.872
-4.76578
-15.9576
118.378
4.09935
-18.3506
131.578
-1.67529
-19.0181
1.65016
-21.1116
72.345
-9.02059
83.4726
-12.1061
88.0667
-13.3774
97.4999
-13.5484
102.752
-15.3767
111.295
-15.2292
113.621
-17.3871
126.927
-16.8377
137.002
-19.4658
-19.4605
69.2969
-4.4624
-1.95779
73.5306
-6.12557
-2.3204
73.2734
-1.00261
-3.55449
76.303
-4.55809
-4.22189
71.3027
4.39209
-7.08758
69.7939
0.376215
-8.66355
64.4321
7.6308
-10.7879
63.5814
2.23137
-17.0387
52.2082
10.4853
-21.4651
-0.459129
-29.5669
65.4522
-16.5663
-1.47758
63.7323
-5.96125
-3.76163
73.5473
-14.0724
-3.24545
67.8578
1.30736
-6.81408
76.1298
-6.32503
-6.97125
68.6136
7.88282
-11.2263
76.8547
2.64097
-16.6667
76.3371
8.24974
-20.4896
86.3462
2.42216
-22.5891
-9.05712
-26.7559
51.8775
-18.1978
-5.75124
68.3167
-23.8329
-6.8355
68.1657
-12.6727
-10.7636
78.6916
-10.1735
-9.76678
76.2943
-1.80632
-13.9108
83.2599
1.68899
-15.3126
80.1702
10.5129
-20.7399
85.9687
5.15694
-21.0563
87.0305
8.10816
-25.7658
2.04215
-24.718
58.5022
-10.7967
73.31
-21.0234
79.1212
-16.3854
85.1379
-19.7516
85.6751
-20.4228
90.0637
-24.8294
94.1098
-21.148
93.0588
-26.7053
91.6612
-21.5937
-29.7001
66.1967
-4.46617
-0.313912
65.5683
-0.557393
-1.13459
65.0215
-1.1439
-1.86381
60.3193
3.93048
-3.4502
54.8903
3.36036
-5.01895
39.4302
14.006
-7.20939
31.7258
7.509
-10.5925
22.3284
5.5168
-13.1581
14.4047
1.13736
-14.6788
24.8674
-16.36
58.4148
-6.55202
-0.509106
66.9721
-12.2362
-0.640063
62.9507
2.06369
-2.43164
65.5665
-1.94429
-3.55518
57.7744
10.4996
-6.31835
55.0223
12.3546
-6.82278
43.6946
14.2055
-12.0355
39.6157
4.42749
-15.3214
33.2076
1.21592
-16.2595
-2.93338
-14.5794
50.5124
-21.3292
-1.40899
54.9883
-17.1608
-6.3868
63.8837
-11.7572
-5.8381
64.9262
-4.59918
-8.15439
68.1513
1.4123
-8.04861
67.7154
8.65073
-11.1728
70.6526
2.65201
-12.1237
48.3324
22.2211
-16.5297
41.8677
-2.42671
-15.6584
17.9913
-21.9169
48.9879
-18.9876
47.9832
-18.6159
55.8913
-20.2452
54.4382
-17.9191
58.4353
-20.9649
72.4014
-12.6939
60.9445
-17.4443
59.2848
-13.9144
29.5265
-19.0014
-17.0756
59.7484
-0.454527
58.6764
-0.0626183
55.3656
1.44698
49.1153
2.8001
38.33
5.76643
21.7846
9.33598
4.32745
6.86465
-9.75202
0.921331
-14.6889
-9.74195
-15.5503
60.3262
-1.12704
60.4875
-0.863991
59.3799
0.122914
56.5566
2.06823
51.1953
4.80942
44.3268
9.38168
33.494
5.66188
18.549
0.544999
7.41526
-14.8677
1.63914
56.7181
-6.24297
56.0766
-6.60936
58.4745
-8.11306
61.9513
-9.563
69.0909
-10.3787
76.2875
-8.98766
60.1752
9.65045
45.9982
-1.80772
-0.0919066
15.564
17.5919
29.0212
20.9962
19.6381
19.4161
71.5432
64.2666
69.5187
21.7058
-19.2523
)
;

boundaryField
{
    inlet
    {
        type            fixedValue;
        value           nonuniform 0();
    }
    outlet
    {
        type            calculated;
        value           nonuniform 0();
    }
    bottom
    {
        type            fixedValue;
        value           uniform 0;
    }
    top
    {
        type            symmetryPlane;
        value           nonuniform List<scalar> 
40
(
-2.32253e-16
-2.22337e-16
-2.311e-16
-2.42204e-16
-2.30776e-16
-2.24416e-16
-2.17584e-16
-1.9197e-16
-2.31812e-16
-2.15593e-16
-1.98644e-16
-1.95384e-16
-2.44711e-16
-2.1275e-16
-1.75961e-16
-1.84763e-16
-2.54613e-16
-2.31443e-16
-1.61848e-16
-1.59527e-16
-2.73935e-16
-2.38148e-16
-1.51495e-16
-1.36427e-16
-2.75594e-16
-2.20792e-16
-1.77074e-16
-1.18718e-16
-2.46362e-16
-1.99785e-16
-1.38904e-16
-1.34247e-16
-1.85918e-16
-1.55264e-16
-1.58464e-16
-1.41919e-16
-1.90238e-16
-1.62854e-16
-2.0722e-16
-2.41046e-16
)
;
    }
    side1
    {
        type            symmetryPlane;
        value           uniform 0;
    }
    side2
    {
        type            symmetryPlane;
        value           nonuniform 0();
    }
    procBoundary5to4
    {
        type            processor;
        value           nonuniform List<scalar> 
20
(
-72.0154
-74.6563
-89.9102
-81.1061
-68.8523
-73.0735
-64.7495
-65.6513
-66.7557
-56.3456
-50.595
-42.2814
-63.3744
-57.2975
-40.0774
-23.5375
-59.6078
-60.1628
-53.0111
-41.9848
)
;
    }
    procBoundary5to6
    {
        type            processor;
        value           nonuniform List<scalar> 
20
(
148.114
168.115
179.022
168.132
116.134
116.79
153.548
154.662
51.803
95.5826
79.5375
87.9765
-23.6696
48.8319
18.1419
7.89471
-15.4986
-24.3536
-37.9616
-68.995
)
;
    }
    procBoundary5to13
    {
        type            processor;
        value           nonuniform List<scalar> 
50
(
-8.8456
-6.41973
-7.97768
-4.97729
-1.71196
-3.78341
-1.91424
2.19815
-0.282258
0.763138
-14.8193
-15.7115
-12.4279
-7.54219
-5.5728
-1.63802
0.193354
0.0708912
-0.677857
-4.38764
-32.6425
-29.7235
-15.4759
-9.987
2.70262
6.90056
10.2276
16.0756
11.6335
15.9665
-38.5887
-18.5635
-15.8056
-4.9786
-2.04277
-17.4509
10.4052
11.0899
24.7394
26.9986
-12.267
-17.2002
-27.0002
-27.26
-83.4708
-14.405
-13.0458
32.0908
37.5207
50.259
)
;
    }
}


// ************************************************************************* //
