/*--------------------------------*- C++ -*----------------------------------*\
| =========                 |                                                 |
| \\      /  F ield         | OpenFOAM: The Open Source CFD Toolbox           |
|  \\    /   O peration     | Version:  2.4.0                                 |
|   \\  /    A nd           | Web:      www.OpenFOAM.org                      |
|    \\/     M anipulation  |                                                 |
\*---------------------------------------------------------------------------*/
FoamFile
{
    version     2.0;
    format      ascii;
    class       volVectorField;
    location    "0.11";
    object      Ur;
}
// * * * * * * * * * * * * * * * * * * * * * * * * * * * * * * * * * * * * * //

dimensions      [0 1 -1 0 0 0 0];

internalField   nonuniform List<vector> 
200
(
(-2.20837e+09 1.42626e+08 -6.49152e+07)
(3.02273e+08 -6.86232e+08 -4.67079e+08)
(-1.2019e+09 -8.59084e+08 -1.53072e+09)
(5.96111e+08 -3.84266e+08 -5.57673e+08)
(-1.32344e+07 6.36242e+07 3.58388e+07)
(-5.14644e+07 6.50068e+07 3.44543e+07)
(4.27035e+06 1.2561e+08 -8.26099e+07)
(-1.40348e+08 -3.1215e+06 1.12568e+08)
(-1.16401e+08 2.70901e+08 -3.98256e+08)
(-8.22892e+07 -2.29144e+08 4.49403e+08)
(4.73712e+08 -1.14002e+09 -4.42033e+08)
(-1.37242e+09 -1.12474e+09 -1.71117e+09)
(2.02111e+08 -9.1389e+07 -5.76014e+08)
(-3.45652e+08 1.01223e+07 -4.31786e+07)
(-2.83419e+08 7.17618e+07 -2.85661e+07)
(-7.4357e+07 3.16083e+07 -3.77716e+07)
(-1.41264e+08 -1.05601e+07 5.43746e+07)
(1.09269e+08 1.98437e+08 7.61655e+07)
(-1.13714e+08 -1.60551e+08 3.52253e+08)
(9.56231e+06 8.30339e+07 2.1096e+08)
(-5.92887e+08 -4.68191e+08 -7.39104e+08)
(5.91725e+07 -1.50492e+08 -4.50807e+08)
(-2.27817e+08 -2.34531e+08 -4.28935e+07)
(-2.34116e+08 -1.33402e+08 -7.33164e+06)
(-8.46828e+07 -1.23531e+08 -1.421e+07)
(-1.79737e+08 -1.08614e+08 782389)
(-4.16181e+07 -6.52531e+07 -1.35326e+07)
(-1.54756e+08 -1.2578e+08 1.20496e+08)
(-1.97946e+07 -3.51359e+07 9.32617e+07)
(-1.96193e+08 -1.65743e+08 2.00116e+08)
(6.59393e+07 -1.63124e+08 -3.33802e+08)
(-3.44754e+07 -3.20889e+08 -4.75229e+07)
(-1.30224e+08 -1.94491e+08 -2.28565e+07)
(-4.68811e+07 -1.77486e+08 -1.33603e+07)
(-1.25962e+08 -1.26831e+08 1.95881e+07)
(-7.47436e+07 -1.45396e+08 -3.49262e+06)
(-1.6989e+08 -1.26967e+08 3.94942e+07)
(-9.3887e+07 -1.2186e+08 3.14896e+07)
(-1.60772e+08 -1.43605e+08 1.02837e+08)
(-1.02026e+08 -1.55077e+08 1.19144e+07)
(2.89974e+08 -3.84536e+08 -2.22515e+07)
(-7.49541e+08 -7.68873e+08 -9.63633e+08)
(2.59443e+08 -4.52006e+08 -8.19807e+07)
(-2.32234e+08 -3.87657e+07 7.32068e+06)
(-1.63919e+08 5.94182e+07 -1.46181e+07)
(-6.70855e+07 1.05915e+08 -9.04937e+07)
(-1.79612e+08 1.44873e+07 5.4859e+07)
(-1.08947e+08 2.67752e+08 -2.40459e+08)
(-1.16321e+08 -1.22326e+08 2.03886e+08)
(-4.2242e+08 7.32087e+08 -9.91922e+08)
(-6.40392e+08 -7.49971e+08 -8.77453e+08)
(2.98444e+07 -2.38113e+08 -2.06847e+08)
(-4.05405e+08 -1.3463e+08 -1.34192e+08)
(-4.59489e+08 -3.19183e+07 -1.36812e+08)
(-1.56905e+08 -8.91712e+07 -4.94678e+07)
(-1.78814e+08 4.46015e+07 -2.87065e+07)
(-5.39579e+07 1.15611e+08 -3.38206e+07)
(-1.04791e+08 -1.34104e+08 3.86056e+08)
(3.93474e+07 3.13811e+08 1.9883e+07)
(8.00479e+07 -3.09116e+08 7.68702e+08)
(9.05845e+07 -2.6234e+08 -2.59088e+08)
(-2.35209e+08 -3.47664e+08 -1.48814e+08)
(-3.13029e+08 -1.35258e+08 -1.4914e+08)
(-1.40601e+08 -4.1234e+08 -8.55921e+07)
(-1.157e+08 -1.4068e+08 3.63132e+07)
(-1.41945e+08 -2.73301e+07 7.3868e+06)
(-1.63572e+08 1.73319e+07 8.84261e+07)
(-4.7022e+07 8.37305e+07 2.32582e+07)
(-1.37757e+08 -1.17992e+08 1.95974e+08)
(2.61894e+07 1.62448e+08 1.56305e+08)
(-2.66921e+07 -4.16003e+08 -9.32395e+07)
(-8.4226e+07 -2.21023e+08 -8.88948e+07)
(-5.22242e+07 -2.29667e+08 -5.23632e+07)
(-2.07953e+07 -8.08417e+07 -4.1232e+07)
(-2.20976e+08 -1.07083e+08 4.60813e+07)
(-1.11522e+08 9.26701e+06 1.93578e+08)
(-1.71464e+08 1.67135e+07 2.94979e+07)
(-1.73987e+08 2.85e+07 7.67617e+07)
(-1.39244e+08 -779010 -3.17235e+07)
(-2.21632e+08 -3.16972e+07 6.19896e+07)
(-3.6375e+08 -5.70607e+08 -1.81436e+08)
(1.78831e+07 -1.08273e+08 2.62197e+08)
(-2.39237e+08 -5.29212e+07 -1.62569e+08)
(-1.86604e+08 -4.40643e+07 -1.98284e+08)
(-1.08394e+08 8.504e+07 -1.90766e+08)
(-2.21169e+08 -1.93958e+07 -1.43597e+08)
(-1.97596e+08 2.47711e+08 -3.37151e+08)
(-2.15276e+08 -1.2284e+08 4.10423e+07)
(-2.06692e+08 4.00545e+08 -5.05493e+08)
(-1.037e+08 -4.16158e+08 4.38857e+08)
(3.30556e+07 -1.8204e+07 6.70831e+07)
(-2.17165e+08 -1.46231e+08 -2.46657e+08)
(-2.13997e+08 -8.74277e+07 -2.48645e+08)
(-1.32997e+08 -6.66103e+07 -1.49678e+08)
(-1.29822e+08 9.76075e+06 -1.40608e+08)
(-8.24049e+07 1.53276e+08 -1.90884e+08)
(-2.12513e+08 3.93013e+07 -9.57514e+07)
(5.02654e+07 1.79204e+08 -1.13881e+08)
(5.02262e+07 -1.47121e+08 6.0313e+08)
(-9.36836e+07 3.55037e+08 -3.49358e+08)
(-6.90434e+07 -2.45394e+08 -2.13619e+08)
(-1.00211e+08 -1.82363e+08 -2.49924e+08)
(-4.56049e+07 -1.80812e+08 -1.90427e+08)
(-4.05894e+07 -1.45063e+08 -2.04298e+08)
(-1.72145e+08 -3.00033e+07 7.7064e+06)
(-9.78277e+07 7.68911e+07 1.08891e+08)
(-8.87936e+07 8.85366e+07 -7.94558e+07)
(-1.20166e+08 7.74891e+06 -7.17876e+06)
(5.27875e+07 3.16858e+08 -7.86339e+07)
(1.29786e+08 9.4343e+07 4.13281e+08)
(-7.23819e+06 -2.03213e+08 -2.24236e+08)
(-2.32285e+07 -1.67634e+08 -1.278e+08)
(1.34477e+07 -1.50757e+08 -2.04034e+08)
(-1.28355e+08 -3.70525e+07 3.02663e+07)
(-8.11027e+07 9.88384e+07 1.05132e+08)
(-1.82923e+08 3.1697e+07 4.10956e+07)
(-1.26458e+08 8.67322e+07 2.52068e+08)
(-1.51639e+08 3.349e+07 -2.75494e+07)
(-1.26039e+08 -9.04953e+07 8.2624e+07)
(-2.68415e+06 2.28497e+08 -5.22232e+07)
(-2.68042e+08 -1.33917e+08 3.75333e+08)
(-3.18489e+08 3.05041e+07 -2.17161e+07)
(-2.83868e+08 -1.54649e+08 -6.13195e+07)
(-2.7479e+08 8.75712e+07 -4.10168e+06)
(-3.28866e+08 -4.84103e+07 -8.3188e+07)
(-3.24151e+08 2.29041e+08 -1.08766e+08)
(-5.23134e+08 6.7629e+07 -1.28432e+08)
(-5.15607e+08 3.75427e+08 -2.75233e+08)
(-7.19003e+08 1.49864e+08 -7.88273e+08)
(-9.65183e+08 4.89308e+08 -5.94227e+07)
(-1.79252e+08 -2.61253e+07 -7.37986e+07)
(-1.49512e+08 -2.13743e+08 -8.82189e+07)
(-2.1764e+08 4.64633e+07 -5.51156e+07)
(-1.58956e+08 -4.23157e+08 -2.74981e+08)
(-2.73067e+08 2.94412e+07 5.63671e+06)
(-3.3589e+08 2.18791e+08 -1.22481e+06)
(-2.83724e+08 3.66949e+08 -1.88625e+08)
(-2.83296e+08 3.22591e+08 2.65313e+08)
(-1.14794e+08 5.46307e+08 -3.27479e+08)
(-8.58691e+07 4.75212e+08 -9.23428e+08)
(-1.00008e+08 -2.28355e+08 -8.87861e+07)
(-1.5558e+08 -3.94013e+07 -4.64753e+07)
(-1.41272e+08 -2.41299e+08 -1.97667e+08)
(-2.23769e+08 3.22828e+07 6.05835e+07)
(-1.80825e+08 1.08325e+07 7.28517e+07)
(-2.42417e+08 1.13113e+08 -1.6671e+07)
(-2.26307e+08 2.20217e+08 1.05813e+08)
(-5.33912e+07 3.58254e+08 -1.9121e+08)
(1.67061e+08 4.23456e+08 1.32294e+07)
(1.4323e+08 2.18467e+08 -2.10228e+08)
(-1.39787e+08 -4.81211e+07 -4.00576e+07)
(-9.35544e+07 -2.83968e+08 -2.43393e+08)
(-1.88681e+08 -2.55267e+07 2.10534e+07)
(-6.39161e+07 -1.60249e+08 -1.07341e+08)
(-1.92108e+08 5.66186e+07 3.9433e+07)
(-1.48403e+08 2.04376e+08 2.93876e+08)
(-1.47483e+08 -8.49376e+06 7.82139e+07)
(-1.01127e+08 1.67405e+08 9.83619e+07)
(7.83641e+07 1.92583e+08 -2.19418e+08)
(1.15115e+08 2.1881e+08 7.59646e+07)
(-6.24167e+08 -9.72443e+07 1.8116e+08)
(-3.55672e+08 -4.60557e+08 1.7331e+08)
(-2.4415e+08 3.3993e+07 1.87205e+08)
(-2.01384e+08 -1.84523e+08 -8.15349e+07)
(-4.93784e+07 2.94998e+07 1.08955e+08)
(-2.65038e+08 1.0411e+06 -4.64387e+08)
(-1.46086e+08 9.16377e+07 2.03031e+07)
(-5.25218e+08 1.14902e+08 -1.37478e+09)
(-7.09171e+08 2.78148e+07 -4.68199e+07)
(-7.96385e+08 -1.20791e+08 -5.01306e+08)
(-3.29046e+07 -5.52081e+08 1.36137e+08)
(-1.99638e+08 -1.71528e+07 1.55123e+08)
(-1.66019e+08 -3.26644e+08 -6.04083e+07)
(-1.4682e+08 -1.01563e+08 1.82873e+08)
(-2.80089e+08 6.71038e+07 -1.22332e+08)
(-1.54267e+08 4.2248e+07 7.96712e+07)
(-4.18148e+08 2.22376e+08 -6.60384e+08)
(-3.45531e+08 8.4245e+07 8.57963e+07)
(-6.14405e+08 4.07271e+08 -1.9504e+09)
(-9.01319e+08 -7.85778e+07 3.16206e+08)
(-1.46316e+08 2.32687e+07 9.62049e+07)
(-1.13711e+08 -3.49656e+08 -1.07889e+08)
(-1.52852e+08 -8.23389e+07 1.52446e+08)
(-1.93543e+08 -4.77762e+07 -1.59641e+08)
(-2.08233e+08 1.12629e+07 6.10751e+07)
(-2.47265e+08 1.97316e+08 8.69023e+07)
(-1.54661e+08 1.44181e+08 -6.32168e+07)
(-2.91975e+08 3.41556e+08 -5.88822e+08)
(-1.59479e+08 2.16722e+08 2.8659e+07)
(-6.08627e+08 1.5906e+08 -2.3153e+09)
(-1.10373e+08 -3.55808e+08 -1.66178e+08)
(-1.51925e+08 -4.86879e+07 1.21749e+08)
(-1.6867e+08 -2.53594e+08 -3.87751e+08)
(-2.19982e+08 -5.79184e+07 1.57252e+08)
(-2.36736e+08 2.15266e+08 1.35468e+08)
(-2.16817e+08 5.35194e+07 -9.05539e+07)
(-9.43945e+07 1.37653e+08 5.48745e+08)
(-6.47654e+07 1.52012e+08 -2.83935e+08)
(-7.9175e+07 2.23616e+08 -6.96006e+07)
(-3.12709e+07 7.7232e+07 -3.10876e+08)
)
;

boundaryField
{
    inlet
    {
        type            calculated;
        value           nonuniform 0();
    }
    outlet
    {
        type            calculated;
        value           nonuniform List<vector> 
20
(
(-8.22892e+07 -2.29144e+08 4.49403e+08)
(9.56231e+06 8.30339e+07 2.1096e+08)
(-1.96193e+08 -1.65743e+08 2.00116e+08)
(-1.02026e+08 -1.55077e+08 1.19144e+07)
(-4.2242e+08 7.32087e+08 -9.91922e+08)
(8.00479e+07 -3.09116e+08 7.68702e+08)
(2.61894e+07 1.62448e+08 1.56305e+08)
(-2.21632e+08 -3.16972e+07 6.19896e+07)
(-1.037e+08 -4.16158e+08 4.38857e+08)
(-9.36836e+07 3.55037e+08 -3.49358e+08)
(1.29786e+08 9.4343e+07 4.13281e+08)
(-2.68415e+06 2.28497e+08 -5.22232e+07)
(-9.65183e+08 4.89308e+08 -5.94227e+07)
(-8.58691e+07 4.75212e+08 -9.23428e+08)
(1.4323e+08 2.18467e+08 -2.10228e+08)
(1.15115e+08 2.1881e+08 7.59646e+07)
(-7.96385e+08 -1.20791e+08 -5.01306e+08)
(-9.01319e+08 -7.85778e+07 3.16206e+08)
(-6.08627e+08 1.5906e+08 -2.3153e+09)
(-3.12709e+07 7.7232e+07 -3.10876e+08)
)
;
    }
    bottom
    {
        type            calculated;
        value           uniform (0 0 0);
    }
    top
    {
        type            symmetryPlane;
    }
    side1
    {
        type            symmetryPlane;
    }
    side2
    {
        type            symmetryPlane;
    }
    procBoundary7to6
    {
        type            processor;
        value           nonuniform List<vector> 
20
(
(-3.93963e+08 2.94142e+08 7.48556e+08)
(-1.98519e+09 2.37411e+08 7.57736e+07)
(6.16729e+08 -1.04592e+09 -5.33296e+08)
(-2.14636e+08 -3.4058e+08 -5.17112e+08)
(-1.18923e+09 -7.16185e+07 5.1426e+07)
(4.51213e+08 -4.69444e+08 4.57416e+07)
(-3.29894e+08 -4.85578e+08 -5.83552e+08)
(1.02499e+08 -2.06138e+08 -1.95571e+08)
(-2.32578e+07 4.40214e+07 4.8143e+08)
(-1.60195e+08 -3.14054e+08 -1.30578e+08)
(7.61354e+07 -4.89271e+07 2.03185e+07)
(3.49098e+07 -2.47989e+08 -1.61506e+08)
(-3.85033e+08 -2.49166e+07 2.42039e+08)
(-5.89835e+07 -1.6226e+08 1.56674e+08)
(-1.38737e+08 8.68362e+06 -7.7929e+07)
(-8.52075e+07 -2.36792e+08 -6.97377e+07)
(-8.18004e+08 1.51318e+09 2.46181e+07)
(-3.83505e+08 -1.83654e+08 9.10815e+07)
(5.88375e+07 -3.41404e+08 5.92144e+07)
(-1.6073e+08 9.02652e+07 5.74302e+07)
)
;
    }
    procBoundary7to15
    {
        type            processor;
        value           nonuniform List<vector> 
50
(
(9.45779e+07 -2.25975e+08 -3.38218e+07)
(-7.55974e+06 -1.30458e+08 -1.9692e+07)
(-1.5079e+07 -1.67657e+08 -1.34448e+07)
(-6.58141e+07 -8.45331e+07 1.69625e+07)
(-1.4129e+08 -1.47135e+08 4.1821e+07)
(-1.2426e+08 -1.29656e+08 9.43627e+07)
(-1.73509e+08 -1.37111e+08 4.10426e+07)
(-1.99442e+08 -1.43598e+08 7.90494e+07)
(-1.41705e+08 -2.36706e+08 4.20017e+07)
(-6.52519e+06 -1.42202e+08 8.09127e+07)
(3.74659e+07 -1.0183e+08 -3.61746e+07)
(-4.6612e+06 -8.34922e+07 7.62193e+07)
(1.40218e+07 -6.89817e+06 2.26507e+07)
(-1.36137e+08 -8.16543e+07 7.9425e+07)
(-7.68303e+07 3.00001e+07 8.5469e+07)
(-1.90204e+08 -7.43875e+07 7.98371e+07)
(-1.0498e+08 -1.29803e+07 1.74515e+08)
(-8.76737e+07 -2.58021e+07 7.99195e+07)
(-1.58296e+08 1.23036e+06 1.26543e+08)
(-1.24235e+07 2.39349e+08 -1.64723e+09)
(-1.38228e+07 -9.87811e+07 -7.80652e+07)
(4.80901e+06 -2.03176e+08 -2.29528e+08)
(-5.85181e+07 -1.43698e+07 1.34378e+08)
(-1.54953e+07 7.22542e+07 1.44731e+08)
(-1.05374e+08 3.3466e+07 1.01521e+08)
(-7.26353e+07 1.11433e+08 1.91829e+08)
(-9.32969e+07 3.89284e+07 7.95443e+07)
(-1.05443e+08 4.22951e+07 1.2003e+08)
(-9.8964e+07 2.00176e+08 -9.32289e+07)
(-4.29495e+08 3.95283e+07 8.45816e+06)
(-1.02808e+08 -2.90463e+08 -2.39031e+08)
(-1.74321e+08 -1.17605e+07 -1.24601e+07)
(-1.1284e+08 -2.85272e+08 -4.08774e+08)
(-1.2858e+08 -1.13728e+07 1.49333e+08)
(-1.25968e+08 1.56047e+08 2.33732e+08)
(-1.12638e+08 6.46007e+07 5.95131e+07)
(-5.90591e+07 1.05697e+08 1.40891e+08)
(-6.82068e+07 2.77295e+07 -1.35747e+08)
(2.22119e+07 8.97038e+07 5.73278e+06)
(-8.93816e+07 2.00849e+08 -1.4598e+08)
(-1.42189e+08 -3.05658e+07 1.08869e+08)
(-1.39254e+08 -4.03008e+08 -4.64821e+08)
(-1.62072e+08 -1.17276e+08 2.27391e+08)
(-3.68743e+08 1.27949e+08 -3.11003e+08)
(-2.22817e+08 -2.86346e+06 9.42115e+07)
(-2.66163e+08 2.00605e+08 2.58888e+08)
(-1.54912e+08 8.53669e+07 -1.17531e+08)
(-1.16077e+08 1.16249e+08 1.78e+08)
(-4.81798e+07 4.46211e+07 -2.94162e+08)
(-7.76155e+07 5.47412e+07 1.28737e+08)
)
;
    }
}


// ************************************************************************* //
