/*--------------------------------*- C++ -*----------------------------------*\
| =========                 |                                                 |
| \\      /  F ield         | OpenFOAM: The Open Source CFD Toolbox           |
|  \\    /   O peration     | Version:  2.4.0                                 |
|   \\  /    A nd           | Web:      www.OpenFOAM.org                      |
|    \\/     M anipulation  |                                                 |
\*---------------------------------------------------------------------------*/
FoamFile
{
    version     2.0;
    format      ascii;
    class       volScalarField;
    location    "0.03";
    object      nut;
}
// * * * * * * * * * * * * * * * * * * * * * * * * * * * * * * * * * * * * * //

dimensions      [0 2 -1 0 0 0 0];

internalField   nonuniform List<scalar> 
200
(
0.000576819
0.00158894
0.00166533
0.0044982
0.00211726
0.000559927
0.00111239
0.00115523
0.00247555
0.00259291
0.000758954
0.00155432
0.00386807
0.00401932
0.00892165
0.00296935
0.00101074
0.00157825
0.00109851
0.00258554
0.00151353
0.00216768
0.00372956
0.00423488
0.00539735
0.0129433
0.00374141
0.00175878
0.00166898
0.00124707
0.00151017
0.0028918
0.00318376
0.00568741
0.00623811
0.00778361
0.013167
0.00414145
0.00278099
0.002242
0.000680191
0.000564364
0.00107604
0.00154323
0.0013715
0.00208815
0.000822809
0.000676287
0.0022249
0.00130856
0.000381007
0.00154333
0.00130363
0.00277085
0.00257912
0.00173408
0.000514686
0.00105567
0.000995878
0.00245417
0.000782937
0.000801822
0.00335059
0.00176302
0.00550068
0.00398976
0.00228715
0.00139394
0.000987636
0.00138727
0.00108222
0.00186263
0.00211663
0.00460677
0.00406613
0.00719702
0.00503308
0.00272888
0.00111514
0.00113042
0.000454926
0.000598584
0.000539585
0.00101676
0.00427315
0.000909843
0.00322425
0.00141217
0.000807842
0.000963922
0.00036048
0.000476089
0.000632723
0.00132315
0.001076
0.00224144
0.000954242
0.00112585
0.00156939
0.00228196
0.00133182
0.00126028
0.000606246
0.00114733
0.00183801
0.00141268
0.000634301
0.00116984
0.00131096
0.00668387
0.000666905
0.000470998
0.00152742
0.00151406
0.00183472
0.00248716
0.00145303
0.000691157
0.00137041
0.00304757
0.000276833
0.00038264
0.000377427
0.000431419
0.000689248
0.00139354
0.00106306
0.000166765
0.00077777
0.00236812
0.00037715
0.000231729
0.000429139
0.000622964
0.000773508
0.000684658
0.000553688
0.000751716
0.00122811
0.00433092
0.000406188
0.000398057
0.000930005
0.00118422
0.000595594
0.000451193
0.000347745
0.000395645
0.0105707
0.00124334
0.000867095
0.00108853
0.0010418
0.000791647
0.000861909
0.00059039
0.000275222
0.000565228
0.00051695
0.00366673
0.000421516
0.000328491
0.000416218
0.000368818
0.000511459
0.000608171
0.000696674
0.000819578
0.00096794
0.00197212
0.000258138
0.000423191
0.000315185
0.000462658
0.00055625
0.000671058
0.000753452
0.00132979
0.00164233
0.000189398
0.000468938
0.000323084
0.000507188
0.000588637
0.000666843
0.000602687
0.00080306
0.00126418
0.000550096
0.00715624
0.000760144
0.000804555
0.000843
0.00112837
0.00113421
0.000723955
0.000629142
0.000703153
0.00231549
0.0016526
)
;

boundaryField
{
    inlet
    {
        type            calculated;
        value           nonuniform 0();
    }
    outlet
    {
        type            calculated;
        value           nonuniform 0();
    }
    bottom
    {
        type            calculated;
        value           nonuniform List<scalar> 
40
(
6.03117e-28
6.61537e-28
2.58191e-27
7.50826e-28
7.77523e-28
2.7171e-27
1.06916e-27
6.44694e-27
4.31914e-27
1.99912e-27
9.64986e-27
1.28247e-27
4.18735e-27
1.29839e-26
1.5578e-27
1.43058e-26
1.75204e-27
8.00748e-27
2.04838e-26
1.4801e-27
7.98897e-28
2.26611e-27
1.14115e-26
2.16913e-26
1.42375e-27
9.30156e-28
2.73664e-27
1.19372e-26
1.6794e-27
1.54513e-27
1.31914e-27
2.93229e-27
2.64917e-27
1.83584e-27
1.38458e-27
2.00431e-27
2.18558e-27
2.54344e-27
1.66958e-27
1.61574e-27
)
;
    }
    top
    {
        type            symmetryPlane;
    }
    side1
    {
        type            symmetryPlane;
    }
    side2
    {
        type            symmetryPlane;
    }
    procBoundary28to20
    {
        type            processor;
        value           nonuniform List<scalar> 
50
(
0.000596102
0.000117001
0.00140847
0.00110186
0.000795002
0.000950182
0.00115322
0.00145662
0.00230709
0.00107766
0.000352023
0.000654418
0.000467087
0.000989243
0.000636949
0.00128291
0.00177705
0.00178662
0.00118938
0.00033206
0.000349974
0.000340807
0.000708118
0.000797223
0.00208176
0.00340815
0.00100397
0.00300816
0.00148965
0.000634134
0.000342339
0.000320278
0.000417901
0.000498592
0.00043489
0.000754567
0.00152699
0.0013823
0.000401102
0.00155509
0.0002684
0.000428359
0.000484494
0.000540313
0.000515571
0.000482768
0.000608516
0.000693543
0.000824438
0.000942964
)
;
    }
    procBoundary28to27
    {
        type            processor;
        value           nonuniform List<scalar> 
20
(
0.000335212
0.0014966
0.000385766
0.000758168
0.000613323
0.000645055
0.000698805
0.000931278
0.000480137
0.000772866
0.000522172
0.0013027
0.000300072
0.00031989
0.000527141
0.000759339
0.000227866
0.000385781
0.000451988
0.000704784
)
;
    }
    procBoundary28to29
    {
        type            processor;
        value           nonuniform List<scalar> 
20
(
0.00100396
0.00219693
0.00255498
0.00350579
0.000490076
0.00111028
0.00245449
0.00296572
0.00117148
0.00240843
0.00165685
0.0026541
0.00117053
0.00108186
0.0108858
0.00138848
0.00637978
0.02326
0.00273791
0.00477378
)
;
    }
}


// ************************************************************************* //
