/*--------------------------------*- C++ -*----------------------------------*\
| =========                 |                                                 |
| \\      /  F ield         | OpenFOAM: The Open Source CFD Toolbox           |
|  \\    /   O peration     | Version:  2.4.0                                 |
|   \\  /    A nd           | Web:      www.OpenFOAM.org                      |
|    \\/     M anipulation  |                                                 |
\*---------------------------------------------------------------------------*/
FoamFile
{
    version     2.0;
    format      ascii;
    class       surfaceScalarField;
    location    "0.03";
    object      phia;
}
// * * * * * * * * * * * * * * * * * * * * * * * * * * * * * * * * * * * * * //

dimensions      [0 3 -1 0 0 0 0];

internalField   nonuniform List<scalar> 
490
(
-7.46123e-06
-3.38123e-06
2.42868e-06
-5.33001e-06
-4.92945e-06
1.15e-06
-2.18859e-06
-8.12149e-07
1.04766e-06
-1.8648e-06
-2.61958e-07
1.01961e-06
-1.86462e-06
-2.61615e-07
9.22575e-07
-1.86462e-06
-2.61615e-07
9.22267e-07
-1.86492e-06
-2.61615e-07
9.22581e-07
-3.10477e-06
-2.62247e-07
1.51641e-06
-7.47723e-06
-2.67094e-06
1.96327e-06
-8.79432e-06
2.50157e-06
-7.19615e-06
-2.98955e-06
2.64779e-06
-5.42481e-06
-4.93022e-06
1.15087e-06
-2.28232e-06
-9.46889e-07
1.05121e-06
-1.86492e-06
-2.62138e-07
1.02331e-06
-1.86462e-06
-2.61615e-07
9.22839e-07
-1.86462e-06
-2.61615e-07
9.22343e-07
-1.86496e-06
-2.61615e-07
9.22665e-07
-3.10592e-06
-2.62322e-07
1.51174e-06
-7.60922e-06
-2.64069e-06
1.9649e-06
-8.92333e-06
2.52706e-06
-6.96686e-06
-2.66973e-06
2.74532e-06
-5.5127e-06
-4.91842e-06
1.15178e-06
-2.37027e-06
-1.07077e-06
1.05458e-06
-1.86506e-06
-2.61849e-07
1.0257e-06
-1.86462e-06
-2.61143e-07
9.23173e-07
-1.86462e-06
-2.61103e-07
9.22439e-07
-1.86501e-06
-2.61064e-07
9.22758e-07
-3.10238e-06
-2.61809e-07
1.50751e-06
-7.68308e-06
-2.61007e-06
1.96516e-06
-8.98276e-06
2.54228e-06
-6.76745e-06
2.77063e-06
-5.5947e-06
1.15274e-06
-2.45308e-06
1.05778e-06
-1.86523e-06
1.0274e-06
-1.86462e-06
9.23584e-07
-1.86462e-06
9.22556e-07
-1.86505e-06
9.22863e-07
-3.09704e-06
1.50392e-06
-7.72702e-06
1.9648e-06
2.55207e-06
-7.22402e-06
-2.87241e-06
2.9608e-06
-8.18365e-06
-4.95415e-06
1.15111e-06
-7.73207e-06
-4.9555e-06
1.14998e-06
-4.58464e-06
-4.35881e-06
1.13341e-06
-1.8806e-06
-2.85295e-07
1.03604e-06
-1.87228e-06
-2.68685e-07
1.03489e-06
-5.29207e-06
-2.69356e-07
1.03362e-06
-1.00735e-05
-6.66294e-06
1.75813e-06
-1.14357e-05
-9.24507e-06
2.58317e-06
-9.24561e-06
2.58359e-06
-6.89669e-06
-2.42507e-06
3.13363e-06
-8.18244e-06
-4.9524e-06
1.15222e-06
-7.83207e-06
-4.95489e-06
1.15037e-06
-4.69225e-06
-4.48061e-06
1.13723e-06
-1.89003e-06
-2.97601e-07
1.03645e-06
-1.87565e-06
-2.72235e-07
1.03528e-06
-5.26645e-06
-2.71502e-07
1.03439e-06
-1.00468e-05
-6.61474e-06
1.72428e-06
-1.14359e-05
-9.24525e-06
2.58306e-06
-9.24572e-06
2.58363e-06
-6.63049e-06
-2.08515e-06
3.1554e-06
-8.18078e-06
-4.93975e-06
1.15345e-06
-7.89533e-06
-4.94279e-06
1.1508e-06
-4.7652e-06
-4.54935e-06
1.13974e-06
-1.90194e-06
-3.12269e-07
1.03691e-06
-1.8798e-06
-2.76025e-07
1.0356e-06
-5.24358e-06
-2.73396e-07
1.03492e-06
-1.00225e-05
-6.55684e-06
1.70118e-06
-1.14361e-05
-9.22456e-06
2.58287e-06
-9.2264e-06
2.58365e-06
-6.40934e-06
3.10376e-06
-8.17863e-06
1.15478e-06
-7.9388e-06
1.15126e-06
-4.82065e-06
1.14157e-06
-1.91659e-06
1.03743e-06
-1.88481e-06
1.03588e-06
-5.22478e-06
1.03533e-06
-1.0002e-05
1.68454e-06
-1.14362e-05
2.58261e-06
2.58367e-06
-6.67348e-06
-1.84792e-06
4.55952e-06
-8.18292e-06
-4.95245e-06
3.06097e-06
-8.18421e-06
-4.95511e-06
2.70641e-06
-8.17708e-06
-4.95583e-06
2.40686e-06
-8.14736e-06
-4.94634e-06
2.15692e-06
-8.0813e-06
-4.91738e-06
1.95102e-06
-8.2938e-06
-4.86041e-06
1.78298e-06
-9.99218e-06
-5.50125e-06
1.78934e-06
-1.14353e-05
-9.24286e-06
2.58249e-06
-9.24574e-06
2.58363e-06
-6.2846e-06
-1.3882e-06
4.25553e-06
-8.18069e-06
-4.94942e-06
2.79503e-06
-8.1832e-06
-4.95393e-06
2.52436e-06
-8.17832e-06
-4.95515e-06
2.29207e-06
-8.1562e-06
-4.94812e-06
2.09329e-06
-8.10646e-06
-4.92587e-06
1.92425e-06
-8.26724e-06
-4.88171e-06
1.78137e-06
-9.9474e-06
-5.3824e-06
1.76903e-06
-1.1435e-05
-9.24175e-06
2.58174e-06
-9.24584e-06
2.58367e-06
-5.99985e-06
-1.08445e-06
3.95091e-06
-8.17766e-06
-4.93595e-06
2.57595e-06
-8.18185e-06
-4.94201e-06
2.3599e-06
-8.17861e-06
-4.94301e-06
2.17259e-06
-8.1612e-06
-4.9368e-06
2.00984e-06
-8.12142e-06
-4.91802e-06
1.86887e-06
-8.24959e-06
-4.88124e-06
1.74725e-06
-9.91855e-06
-5.28854e-06
1.72941e-06
-1.14346e-05
-9.21812e-06
2.58045e-06
-9.22512e-06
2.58369e-06
-5.78033e-06
3.66812e-06
-8.17371e-06
2.39411e-06
-8.18012e-06
2.21662e-06
-8.17831e-06
2.06168e-06
-8.1642e-06
1.92561e-06
-8.13121e-06
1.80625e-06
-8.23727e-06
1.70183e-06
-9.89853e-06
1.68314e-06
-1.14341e-05
2.5784e-06
2.58371e-06
-1.24239e-06
1.3301e-06
5.93635e-06
-1.34955e-06
1.04736e-06
5.15212e-06
-1.62302e-06
6.98363e-07
4.4837e-06
-2.0142e-06
3.01242e-07
3.91401e-06
-2.47406e-06
-1.21346e-07
3.43162e-06
-2.96003e-06
-5.47751e-07
3.02641e-06
-3.61374e-06
-9.60223e-07
2.68842e-06
-7.72065e-06
-1.62257e-06
2.41674e-06
-1.14275e-05
-9.21854e-06
2.5784e-06
-9.24585e-06
2.57995e-06
-1.07602e-06
1.16976e-06
5.22428e-06
-1.13671e-06
9.59097e-07
4.62121e-06
-1.31951e-06
6.9962e-07
4.10299e-06
-1.59873e-06
3.99728e-07
3.65546e-06
-1.94646e-06
7.15643e-08
3.26918e-06
-2.3357e-06
-2.71641e-07
2.93681e-06
-2.85171e-06
-6.17411e-07
2.65192e-06
-7.28208e-06
-1.12915e-06
2.41347e-06
-1.14173e-05
-9.19413e-06
2.5771e-06
-9.24594e-06
2.57972e-06
-9.52409e-07
1.0413e-06
4.66282e-06
-9.9447e-07
8.75228e-07
4.18147e-06
-1.13204e-06
6.69878e-07
3.76364e-06
-1.34932e-06
4.30098e-07
3.39888e-06
-1.62838e-06
1.63444e-07
3.08004e-06
-1.95095e-06
-1.21264e-07
2.80164e-06
-2.37347e-06
-4.15077e-07
2.55911e-06
-6.99613e-06
-8.28019e-07
2.35206e-06
-1.14014e-05
-9.13484e-06
2.57436e-06
-9.22381e-06
2.57948e-06
-8.55051e-07
4.20775e-06
-8.88147e-07
3.81378e-06
-9.99185e-07
3.46843e-06
-1.17751e-06
3.16413e-06
-1.41072e-06
2.89551e-06
-1.68569e-06
2.65848e-06
-2.04238e-06
2.44962e-06
-6.78625e-06
2.26908e-06
-1.13782e-05
2.56941e-06
2.57923e-06
-1.26818e-06
1.40844e-06
-1.26259e-06
1.19428e-06
-1.36075e-06
9.54098e-07
-1.54485e-06
6.89364e-07
-1.7957e-06
4.04978e-07
-2.09417e-06
1.07594e-07
-2.50685e-06
-1.95633e-07
-7.07151e-06
-6.24985e-07
-1.14094e-05
-9.16254e-06
-9.24594e-06
-1.12277e-06
1.25694e-06
-1.10255e-06
1.09141e-06
-1.15623e-06
9.08201e-07
-1.27417e-06
7.069e-07
-1.446e-06
4.89284e-07
-1.66092e-06
2.585e-07
-1.95598e-06
1.84388e-08
-6.72523e-06
-3.00468e-07
-1.13764e-05
-9.0849e-06
-9.24601e-06
-1.00935e-06
1.1319e-06
-9.87294e-07
9.98251e-07
-1.02208e-06
8.50662e-07
-1.10762e-06
6.8847e-07
-1.23738e-06
5.12448e-07
-1.40444e-06
3.24357e-07
-1.63213e-06
1.26583e-07
-6.4911e-06
-1.25853e-07
-1.13255e-05
-8.94804e-06
-9.22247e-06
-9.17067e-07
-8.96651e-07
-9.22017e-07
-9.89015e-07
-1.09314e-06
-1.2296e-06
-1.41436e-06
-6.29639e-06
-1.1253e-05
)
;

boundaryField
{
    inlet
    {
        type            calculated;
        value           nonuniform 0();
    }
    outlet
    {
        type            calculated;
        value           nonuniform 0();
    }
    bottom
    {
        type            calculated;
        value           uniform 0;
    }
    top
    {
        type            symmetryPlane;
        value           uniform 0;
    }
    side1
    {
        type            symmetryPlane;
        value           nonuniform 0();
    }
    side2
    {
        type            symmetryPlane;
        value           uniform 0;
    }
    procBoundary28to20
    {
        type            processor;
        value           nonuniform List<scalar> 
50
(
3.88688e-06
4.92609e-06
6.6816e-07
2.61818e-07
2.61615e-07
2.61615e-07
2.61615e-07
2.62171e-07
2.68641e-06
8.56266e-06
3.49566e-06
4.9555e-06
4.95593e-06
4.15013e-06
2.75726e-07
2.65889e-07
2.67516e-07
6.70174e-06
9.2447e-06
9.24519e-06
2.60631e-06
4.9547e-06
4.956e-06
4.95635e-06
4.94252e-06
4.90119e-06
4.82078e-06
5.69275e-06
9.24348e-06
9.24529e-06
-1.54054e-06
-1.10773e-06
-5.67094e-07
2.2551e-08
6.07859e-07
1.15253e-06
1.63662e-06
2.53919e-06
9.23344e-06
9.24538e-06
-1.6008e-06
-1.29373e-06
-9.34173e-07
-5.36192e-07
-1.18423e-07
3.01072e-07
7.07478e-07
1.35106e-06
9.21065e-06
9.24546e-06
)
;
    }
    procBoundary28to27
    {
        type            processor;
        value           nonuniform List<scalar> 
20
(
4.1711e-06
3.82434e-06
3.52987e-06
3.27696e-06
3.89845e-06
3.4854e-06
3.15156e-06
2.87571e-06
3.32884e-06
2.84697e-06
2.49098e-06
2.21555e-06
1.34074e-06
1.15758e-06
1.01804e-06
9.07962e-07
1.39311e-06
1.22569e-06
1.09385e-06
9.87102e-07
)
;
    }
    procBoundary28to29
    {
        type            processor;
        value           nonuniform List<scalar> 
20
(
-1.08099e-05
-1.10124e-05
-1.11308e-05
-1.12057e-05
-1.14356e-05
-1.14358e-05
-1.14359e-05
-1.1436e-05
-1.14358e-05
-1.14359e-05
-1.1436e-05
-1.14361e-05
-1.14359e-05
-1.1436e-05
-1.14361e-05
-1.14362e-05
-1.14359e-05
-1.14361e-05
-1.14362e-05
-1.14363e-05
)
;
    }
}


// ************************************************************************* //
