/*--------------------------------*- C++ -*----------------------------------*\
| =========                 |                                                 |
| \\      /  F ield         | OpenFOAM: The Open Source CFD Toolbox           |
|  \\    /   O peration     | Version:  2.4.0                                 |
|   \\  /    A nd           | Web:      www.OpenFOAM.org                      |
|    \\/     M anipulation  |                                                 |
\*---------------------------------------------------------------------------*/
FoamFile
{
    version     2.0;
    format      ascii;
    class       volVectorField;
    location    "0.03";
    object      Ua;
}
// * * * * * * * * * * * * * * * * * * * * * * * * * * * * * * * * * * * * * //

dimensions      [0 1 -1 0 0 0 0];

internalField   nonuniform List<vector> 
200
(
(-0.471991 -0.991667 -10.2201)
(-0.418893 -0.880109 -9.07035)
(-0.376488 -0.790869 -8.14914)
(-0.462536 -0.755739 -5.61652)
(-0.645949 -0.789193 -2.43831)
(-1.34922 0.414945 0.981452)
(-2.24694 2.38869 3.39973)
(-2.22481 2.36591 3.36665)
(-2.19705 2.33639 3.32464)
(-2.22481 2.3659 3.36667)
(-0.479579 -1.0076 -10.3844)
(-0.431037 -0.905614 -9.33335)
(-0.391363 -0.822163 -8.47232)
(-0.429486 -0.771221 -6.62998)
(-0.567557 -0.775231 -3.82416)
(-1.49367 0.915229 1.12344)
(-2.05768 2.18777 3.11344)
(-2.02006 2.14815 3.05684)
(-1.97464 2.09986 2.9881)
(-2.01978 2.14784 3.05643)
(-0.485649 -1.02036 -10.5159)
(-0.440974 -0.926486 -9.54854)
(-0.403769 -0.84825 -8.74153)
(-0.417187 -0.791677 -7.30635)
(-0.514597 -0.774732 -4.94858)
(-1.52728 1.15612 1.1775)
(-1.89526 2.01517 2.86771)
(-1.84827 1.96544 2.79689)
(-1.79227 1.90592 2.71214)
(-1.84832 1.9655 2.79698)
(-0.490624 -1.02643 -10.6236)
(-0.44927 -0.939543 -9.7282)
(-0.414294 -0.866007 -8.96976)
(-0.414242 -0.808187 -7.7924)
(-0.480966 -0.778071 -5.82816)
(-1.50229 1.24001 1.1679)
(-1.75455 1.85463 2.65479)
(-1.70189 1.7999 2.5754)
(-1.63971 1.73488 2.48129)
(-1.70264 1.80068 2.57653)
(-0.479563 -1.00756 -10.3841)
(-0.432218 -0.905542 -9.30689)
(-0.855061 -0.890107 -0.0616831)
(-0.922393 -0.899981 1.15955)
(-0.923387 -0.897619 1.1617)
(-1.86242 1.4339 2.74978)
(-2.22463 2.36552 3.36635)
(-2.19697 2.33631 3.32452)
(-2.16225 2.29939 3.27198)
(-2.19697 2.3363 3.32453)
(-0.485635 -1.02032 -10.5156)
(-0.441722 -0.926386 -9.53075)
(-0.814046 -0.88916 -0.90887)
(-0.922346 -0.89997 1.1587)
(-0.924878 -0.893392 1.1641)
(-1.89801 1.7535 2.83896)
(-2.01992 2.14791 3.05662)
(-1.97449 2.0997 2.98787)
(-1.91895 2.04065 2.90382)
(-1.97449 2.0997 2.98788)
(-0.490603 -1.03076 -10.6232)
(-0.449779 -0.943776 -9.71475)
(-0.769798 -0.891056 -1.88219)
(-0.922268 -0.899954 1.15721)
(-0.927341 -0.885532 1.16817)
(-1.8214 1.79392 2.73832)
(-1.84813 1.96524 2.79667)
(-1.79206 1.90569 2.71182)
(-1.72435 1.8337 2.60934)
(-1.79234 1.90599 2.71224)
(-0.49475 -1.03469 -10.7129)
(-0.456669 -0.953762 -9.86965)
(-0.7262 -0.891871 -2.89885)
(-0.922148 -0.896851 1.15481)
(-0.930922 -0.869359 1.17424)
(-1.71708 1.73089 2.58776)
(-1.70174 1.7997 2.57517)
(-1.63944 1.7346 2.48088)
(-1.56482 1.65635 2.36794)
(-1.64015 1.73535 2.48195)
(-0.485628 -1.0203 -10.5154)
(-0.44353 -0.926227 -9.49022)
(-0.892003 -0.878061 0.450229)
(-0.961568 -0.803545 1.22591)
(-2.22711 2.3394 3.36651)
(-2.22475 2.36584 3.36657)
(-2.19695 2.33629 3.3245)
(-2.1622 2.29933 3.27191)
(-2.11754 2.25185 3.20433)
(-2.16219 2.29933 3.2719)
(-0.490596 -1.03073 -10.6231)
(-0.450895 -0.943582 -9.68903)
(-0.877592 -0.849446 -0.0574946)
(-1.01743 -0.645788 1.32233)
(-2.05083 2.16917 3.10195)
(-2.01996 2.14804 3.05669)
(-1.97446 2.09967 2.98782)
(-1.91885 2.04055 2.90367)
(-1.84941 1.96671 2.79858)
(-1.91884 2.04054 2.90366)
(-0.494736 -1.03943 -10.7127)
(-0.457438 -0.958278 -9.85105)
(-0.864271 -0.804917 -0.659927)
(-1.09506 -0.395701 1.46016)
(-1.89229 2.00635 2.86278)
(-1.84813 1.9653 2.79669)
(-1.79201 1.90564 2.71175)
(-1.7242 1.83355 2.60913)
(-1.64088 1.74495 2.48303)
(-1.72417 1.83352 2.60907)
(-0.498246 -1.04164 -10.7887)
(-0.463192 -0.965735 -9.98752)
(-0.853245 -0.741491 -1.30385)
(-1.17847 -0.0796788 1.61426)
(-1.75304 1.84984 2.6524)
(-1.70173 1.79972 2.57515)
(-1.63938 1.73453 2.48079)
(-1.56463 1.65615 2.36765)
(-1.47375 1.56064 2.23013)
(-1.56456 1.6561 2.36755)
(-0.490968 -1.02999 -10.62)
(-1.41553 0.829689 -2.74862)
(-2.26324 2.40241 3.42305)
(-2.24701 2.38882 3.40017)
(-2.22475 2.36585 3.36657)
(-2.19694 2.33628 3.32449)
(-2.16218 2.29932 3.27188)
(-2.11749 2.25179 3.20426)
(-2.05794 2.18846 3.11414)
(-2.11749 2.25179 3.20425)
(-0.495377 -1.03811 -10.7071)
(-1.52469 1.10452 -1.44947)
(-2.08879 2.2194 3.15975)
(-2.05772 2.1879 3.1138)
(-2.01995 2.14804 3.05668)
(-1.97444 2.09965 2.9878)
(-1.91882 2.04051 2.90363)
(-1.84931 1.9666 2.79843)
(-1.76 1.87163 2.66328)
(-1.8493 1.9666 2.79842)
(-0.49919 -1.04476 -10.7797)
(-1.54624 1.23191 -0.663628)
(-1.93503 2.05673 2.92736)
(-1.89525 2.01525 2.86799)
(-1.84812 1.96529 2.79667)
(-1.79199 1.90562 2.71172)
(-1.72415 1.8335 2.60905)
(-1.64073 1.74479 2.4828)
(-1.53656 1.63402 2.32518)
(-1.64072 1.74478 2.48279)
(-0.50255 -1.04465 -10.8405)
(-1.52583 1.27501 -0.161188)
(-1.7996 1.90105 2.72258)
(-1.75449 1.85466 2.65501)
(-1.70171 1.79971 2.57513)
(-1.63935 1.7345 2.48075)
(-1.56457 1.65609 2.36756)
(-1.47356 1.56043 2.22984)
(-1.36251 1.44345 2.06179)
(-1.47355 1.56042 2.22982)
(-0.49663 -1.03575 -10.6746)
(-1.97857 1.85297 1.17142)
(-2.28151 2.42471 3.43201)
(-2.26637 2.40984 3.4111)
(-2.24757 2.39009 3.38421)
(-2.22482 2.36591 3.3513)
(-2.19701 2.33635 3.31075)
(-2.16226 2.2994 3.2597)
(-2.11762 2.25193 3.19368)
(-2.16226 2.2994 3.25969)
(-0.501407 -1.04038 -10.7367)
(-1.94514 1.89876 1.69785)
(-2.11513 2.24858 3.18048)
(-2.08862 2.22092 3.14219)
(-2.05721 2.18763 3.09619)
(-2.01979 2.14786 3.04109)
(-1.97457 2.09979 2.97418)
(-1.91896 2.04067 2.89156)
(-1.84954 1.96684 2.78803)
(-1.91896 2.04067 2.89154)
(-0.505862 -1.04334 -10.7844)
(-1.86776 1.86005 1.89297)
(-1.96804 2.09243 2.9581)
(-1.93432 2.05685 2.90878)
(-1.8949 2.01501 2.85064)
(-1.84834 1.96552 2.78168)
(-1.79245 1.90611 2.69861)
(-1.72433 1.83369 2.59706)
(-1.64105 1.74513 2.47256)
(-1.72432 1.83369 2.59704)
(-0.510089 -1.03892 -10.8197)
(-1.77929 1.78019 1.95374)
(-1.83795 1.94111 2.76139)
(-1.79948 1.90145 2.70483)
(-1.75493 1.85519 2.63889)
(-1.70265 1.8007 2.56126)
(-1.64028 1.73549 2.46837)
(-1.56476 1.65631 2.35561)
(-1.47396 1.56085 2.21973)
(-1.56475 1.6563 2.35559)
)
;

boundaryField
{
    inlet
    {
        type            calculated;
        value           nonuniform 0();
    }
    outlet
    {
        type            calculated;
        value           nonuniform 0();
    }
    bottom
    {
        type            calculated;
        value           uniform (0 0 0);
    }
    top
    {
        type            symmetryPlane;
    }
    side1
    {
        type            symmetryPlane;
    }
    side2
    {
        type            symmetryPlane;
    }
    procBoundary28to20
    {
        type            processor;
        value           nonuniform List<vector> 
50
(
(-0.462234 -0.971195 -10.0087)
(-0.403716 -0.848245 -8.74162)
(-0.358344 -0.752648 -7.75375)
(-0.54184 -0.758126 -3.98984)
(-0.74862 -0.820824 -0.903436)
(-1.08988 -0.330169 0.834472)
(-2.47289 2.62726 3.74129)
(-2.47507 2.63205 3.74536)
(-2.47507 2.63206 3.74536)
(-2.47507 2.63206 3.74536)
(-0.47197 -0.991651 -10.2195)
(-0.421114 -0.880157 -9.02384)
(-0.88861 -0.893231 0.583558)
(-0.922419 -0.89999 1.15999)
(-0.922662 -0.899467 1.16057)
(-1.51087 0.438627 2.13997)
(-2.47452 2.6308 3.74444)
(-2.47507 2.63206 3.74536)
(-2.47508 2.63206 3.74537)
(-2.47507 2.63206 3.74536)
(-0.479551 -1.00758 -10.3836)
(-0.435812 -0.905487 -9.2295)
(-0.905728 -0.893007 0.826425)
(-0.932075 -0.878039 1.17614)
(-2.38369 2.42417 3.5932)
(-2.47505 2.632 3.74532)
(-2.47507 2.63206 3.74536)
(-2.47508 2.63206 3.74537)
(-2.47508 2.63207 3.74537)
(-2.47508 2.63206 3.74537)
(-0.48578 -1.02002 -10.5137)
(-1.13175 0.273485 -4.95305)
(-2.46081 2.59992 3.71951)
(-2.47275 2.62679 3.7415)
(-2.47507 2.63205 3.74536)
(-2.47507 2.63206 3.74536)
(-2.47508 2.63206 3.74537)
(-2.47508 2.63207 3.74537)
(-2.47508 2.63207 3.74537)
(-2.47508 2.63207 3.74537)
(-0.491416 -1.02921 -10.5952)
(-1.84386 1.51224 -0.405062)
(-2.47032 2.62133 3.71691)
(-2.4743 2.63029 3.7256)
(-2.47507 2.63205 3.72842)
(-2.47507 2.63206 3.72996)
(-2.47507 2.63206 3.7315)
(-2.47508 2.63206 3.73304)
(-2.47508 2.63207 3.73458)
(-2.47508 2.63206 3.73304)
)
;
    }
    procBoundary28to27
    {
        type            processor;
        value           nonuniform List<vector> 
20
(
(-0.540224 -1.13506 -11.6974)
(-0.540215 -1.13504 -11.6972)
(-0.540205 -1.13502 -11.697)
(-0.540196 -1.13061 -11.6968)
(-0.540215 -1.13504 -11.6972)
(-0.540205 -1.13502 -11.697)
(-0.540196 -1.135 -11.6968)
(-0.540186 -1.1302 -11.6966)
(-0.540205 -1.13502 -11.697)
(-0.540196 -1.135 -11.6968)
(-0.540186 -1.13498 -11.6966)
(-0.540176 -1.12978 -11.6964)
(-0.540196 -1.135 -11.6968)
(-0.540186 -1.13498 -11.6966)
(-0.540177 -1.13496 -11.6964)
(-0.540167 -1.12936 -11.6962)
(-0.540187 -1.13498 -11.6735)
(-0.540178 -1.13495 -11.6713)
(-0.540169 -1.13493 -11.6692)
(-0.540161 -1.12894 -11.667)
)
;
    }
    procBoundary28to29
    {
        type            processor;
        value           nonuniform List<vector> 
20
(
(-2.24634 2.38866 3.39934)
(-2.05208 2.18208 3.10539)
(-1.88768 2.00725 2.85661)
(-1.74663 1.84633 2.64318)
(-2.22427 2.36522 3.36594)
(-2.01658 2.14436 3.05164)
(-1.84343 1.96022 2.78962)
(-1.69672 1.79436 2.56762)
(-2.19703 2.33628 3.32468)
(-1.97339 2.09847 2.98627)
(-1.79029 1.90375 2.70918)
(-1.63739 1.73238 2.4778)
(-2.16221 2.29928 3.27197)
(-1.91884 2.04048 2.90368)
(-1.72414 1.83345 2.60906)
(-1.56452 1.65602 2.3675)
(-2.19705 2.3363 3.31087)
(-1.97458 2.09974 2.97422)
(-1.79256 1.9062 2.6988)
(-1.64054 1.73574 2.46876)
)
;
    }
}


// ************************************************************************* //
