/*--------------------------------*- C++ -*----------------------------------*\
| =========                 |                                                 |
| \\      /  F ield         | OpenFOAM: The Open Source CFD Toolbox           |
|  \\    /   O peration     | Version:  2.4.0                                 |
|   \\  /    A nd           | Web:      www.OpenFOAM.org                      |
|    \\/     M anipulation  |                                                 |
\*---------------------------------------------------------------------------*/
FoamFile
{
    version     2.0;
    format      ascii;
    class       volVectorField;
    location    "0.03";
    object      Ur;
}
// * * * * * * * * * * * * * * * * * * * * * * * * * * * * * * * * * * * * * //

dimensions      [0 1 -1 0 0 0 0];

internalField   nonuniform List<vector> 
200
(
(-17.6971 -9.88457 -9.25062)
(-32.6531 -4.57421 -3.80924)
(-15.7295 -10.3911 50.8795)
(-38.5369 28.3539 -20.2697)
(4.42258 50.7066 -48.4326)
(-17.6285 35.3333 1.98736)
(0.746958 68.5751 -31.7824)
(-22.8762 14.2001 14.8064)
(11.6739 89.1698 -48.56)
(12.9537 54.5344 -6.34719)
(-36.7566 -2.11339 -8.96958)
(-28.0703 -8.27545 19.8127)
(-38.3623 4.82757 -11.2472)
(-56.004 -32.3622 173.004)
(-64.7914 37.1286 -30.413)
(-14.3849 62.4772 -54.1485)
(-28.5755 40.7755 -1.19972)
(-8.59618 62.546 -26.5073)
(-27.4751 12.683 19.1093)
(2.53617 84.148 -40.3071)
(-36.1825 -3.77188 19.5737)
(-37.3552 13.5983 -17.7339)
(-52.2035 -20.7105 116.271)
(-40.8054 31.9323 -35.4719)
(-112.262 -47.3454 283.909)
(-96.8272 39.2053 -39.4895)
(-38.5579 65.6071 -62.412)
(-44.0859 35.9313 -8.52596)
(-20.7369 54.7688 -28.512)
(-34.7523 4.79612 13.9926)
(-20.8393 5.04786 -12.9728)
(-35.7708 -14.9473 78.2151)
(-31.0395 12.5369 -19.2695)
(-76.8785 -42.6507 185.355)
(-49.7369 44.1122 -21.9604)
(-150.403 -66.8164 301.905)
(-130.651 21.7213 -50.1191)
(-70.8832 50.3667 -66.7162)
(-55.4194 17.2173 -12.5947)
(-25.6979 39.5208 -27.0734)
(-2.23371 -3.02784 3.30006)
(12.4804 7.17426 -20.4067)
(2.72631 -0.162134 4.49296)
(30.9589 19.2613 -18.2054)
(18.3759 13.1525 5.7725)
(18.6658 40.0288 -13.8323)
(10.6824 21.3215 7.59298)
(14.9341 47.1967 -12.2035)
(10.9992 46.6984 -28.9167)
(2.89611 43.9062 3.23015)
(-12.3085 -7.11955 -7.283)
(-20.761 -8.70812 -5.58627)
(3.40784 -10.1504 21.1099)
(-5.28899 -0.596426 -8.75033)
(40.279 21.4309 -37.8061)
(13.4099 15.0069 -1.76319)
(20.3752 45.501 -20.6597)
(3.82493 20.9658 -2.24065)
(14.1957 57.3362 -25.3601)
(13.7558 37.5417 -0.0493181)
(-35.1981 -11.6971 4.66622)
(-20.1955 -8.18172 4.9283)
(-35.8788 -13.5452 -3.1805)
(-19.7957 -29.9869 119.226)
(-20.7221 3.11865 -34.3225)
(37.2785 38.4675 -59.1315)
(10.4963 23.0968 -12.7667)
(19.8153 46.2503 -30.8801)
(-4.86926 1.43135 7.73425)
(15.5906 31.581 -29.6531)
(-36.6063 -5.10464 6.68029)
(-44.0087 -9.72884 4.46081)
(-32.0125 -9.54949 61.246)
(-34.9586 -12.4845 -1.61032)
(-55.9961 -54.9411 209.248)
(-50.9726 1.13372 -53.3964)
(12.9502 43.5209 -69.5602)
(-1.53718 13.4649 -17.1572)
(14.173 22.2818 -22.0101)
(3.54231 5.98758 -14.4763)
(17.8179 13.2746 -8.98295)
(17.7387 4.78146 -2.58618)
(23.7288 15.059 -1.31927)
(23.9101 13.7929 4.33282)
(27.5177 41.6666 11.5764)
(63.7525 -33.6962 93.676)
(15.3581 27.4783 -3.36487)
(28.5485 38.0413 10.1877)
(24.8497 31.9362 12.8419)
(23.8164 36.7545 18.2993)
(14.8118 2.80008 4.47755)
(19.5844 8.14096 -8.325)
(17.3426 -0.955595 8.56302)
(29.2598 9.09123 1.58812)
(32.2264 11.3317 8.02753)
(25.8677 28.7455 -6.35536)
(24.4052 27.7182 -2.71148)
(30.5016 23.162 4.50034)
(30.3234 14.1363 19.0924)
(36.1898 8.66179 23.1479)
(13.5649 6.40796 -12.9196)
(19.4777 -2.27444 8.31401)
(24.4229 2.41305 8.3745)
(20.7373 -3.94325 10.2714)
(39.7836 9.98661 1.30435)
(33.1693 7.63259 2.73735)
(37.055 14.1775 -2.89915)
(28.3863 -1.26638 12.8139)
(31.8231 4.52827 13.0596)
(5.77437 19.2947 51.3832)
(8.23448 -1.85745 23.4405)
(8.97994 9.61601 -0.969201)
(13.5658 -5.22929 12.6895)
(23.2721 4.25501 27.2867)
(17.3875 -7.35945 3.42803)
(46.2242 10.7352 -4.86116)
(31.2813 4.29647 1.94163)
(28.169 7.58307 -4.7508)
(22.6364 2.93424 1.42796)
(19.5455 -5.50017 21.3224)
(15.6685 13.5756 0.150206)
(14.8002 18.0735 -1.71786)
(15.82 19.8212 7.60107)
(17.8003 20.4298 -0.254328)
(17.4414 25.4332 5.23893)
(25.7473 29.4378 7.67767)
(38.8587 31.1899 18.0614)
(40.8604 30.4986 3.52216)
(36.3615 33.2811 13.4485)
(44.8647 26.5796 31.7363)
(17.3633 12.768 -12.0127)
(19.3268 12.2747 6.19008)
(19.941 15.4994 5.0838)
(22.8691 18.3214 9.46193)
(27.4995 17.9734 7.35571)
(32.7839 19.2729 11.3914)
(37.1898 18.9363 4.98182)
(38.6544 23.5027 12.5)
(46.1951 25.9235 22.6014)
(42.8073 54.1408 37.8444)
(19.824 6.52815 1.14535)
(20.0632 10.7981 2.36773)
(24.0471 10.0549 14.8575)
(32.7776 3.54737 20.0121)
(38.069 3.7798 22.9052)
(36.7276 8.67003 7.2413)
(40.1735 10.1162 12.8356)
(41.3064 8.01088 12.1798)
(35.1824 14.6932 30.2276)
(137.681 79.3082 215.168)
(18.739 5.65983 -12.7988)
(28.662 5.01276 15.3418)
(28.7844 -0.146105 26.3304)
(32.566 -1.09172 47.7819)
(32.517 9.51503 3.09036)
(36.3053 5.98127 14.6327)
(36.3909 3.2602 12.4745)
(39.4947 -1.5984 8.48039)
(31.3764 -8.51244 14.7352)
(33.6783 -8.08292 10.3938)
(8.91205 14.635 -22.2055)
(9.52634 18.6059 12.3089)
(10.0699 20.4372 -1.14043)
(11.7767 22.8662 10.1808)
(13.6118 22.8957 1.29552)
(16.7505 27.2314 9.21582)
(20.8497 27.8987 -0.844275)
(24.3588 34.3997 10.2609)
(28.4262 36.0912 -6.55644)
(27.6585 48.8895 9.79208)
(11.7998 12.9301 2.24929)
(12.6462 16.5495 -3.18971)
(14.9462 18.455 9.59315)
(18.1046 17.1761 0.820633)
(21.8605 20.1844 8.46842)
(26.4599 19.9616 -0.410704)
(31.3577 23.9381 9.94649)
(38.1784 22.5308 -4.76108)
(51.3751 27.1831 12.127)
(58.3389 37.9592 22.6474)
(13.1339 9.73586 -17.8761)
(14.0291 13.9234 10.366)
(17.9591 12.2524 0.643844)
(22.9387 13.7394 8.94329)
(28.4129 13.4199 2.23016)
(33.1729 15.5573 10.8092)
(37.6782 11.8577 -0.754014)
(46.6162 9.4728 8.11652)
(58.2621 10.4111 8.46927)
(54.8038 -2.5289 18.3252)
(11.2093 3.04056 1.0599)
(15.8797 6.53726 -0.365995)
(23.5536 5.17524 10.4745)
(31.3022 4.917 7.60591)
(44.5182 10.0314 11.6393)
(49.2785 7.49586 8.48244)
(56.9501 -1.98581 -5.16193)
(57.6779 -2.47602 10.728)
(58.3135 1.71234 14.7361)
(83.8044 -47.8191 11.314)
)
;

boundaryField
{
    inlet
    {
        type            calculated;
        value           nonuniform 0();
    }
    outlet
    {
        type            calculated;
        value           nonuniform 0();
    }
    bottom
    {
        type            calculated;
        value           uniform (0 0 0);
    }
    top
    {
        type            symmetryPlane;
    }
    side1
    {
        type            symmetryPlane;
    }
    side2
    {
        type            symmetryPlane;
    }
    procBoundary28to20
    {
        type            processor;
        value           nonuniform List<vector> 
50
(
(-9.25612 -8.03093 -5.44269)
(5.7984 10.2272 -26.726)
(-8.65216 10.0205 -8.24347)
(15.3157 34.9038 -34.2592)
(-0.736206 22.5365 2.36233)
(9.12534 46.7897 -15.5679)
(-5.13095 31.4195 13.7862)
(6.76446 81.0802 -36.1179)
(13.1263 53.9342 -12.736)
(7.09081 53.0466 4.55198)
(13.5085 11.4455 -15.278)
(9.88727 0.950221 -0.435493)
(18.7215 20.4989 -11.4443)
(15.4693 13.2178 4.62052)
(18.4837 36.9861 -8.74646)
(17.5995 32.9478 3.05351)
(13.0759 54.3496 -9.89677)
(18.4927 32.1016 25.6556)
(13.1817 39.8915 15.9189)
(11.3501 50.2511 1.49203)
(16.299 8.98133 -4.97781)
(16.7481 18.6791 -11.8153)
(18.4125 14.5974 1.6908)
(21.2791 27.3661 -4.57517)
(14.6511 46.8347 3.01195)
(36.8242 40.5771 40.2882)
(52.1384 -16.8593 69.5926)
(21.7494 24.7923 5.89222)
(24.3096 50.0514 10.8368)
(26.7217 44.767 18.7355)
(9.28891 14.6767 -10.2986)
(11.4089 18.542 4.15112)
(8.00468 23.7501 3.09695)
(8.14998 27.0482 7.98482)
(10.3509 27.1789 -1.4053)
(11.0971 28.3054 7.25538)
(19.8535 35.3156 10.9736)
(29.7075 40.9396 17.6399)
(36.6783 40.2366 3.22392)
(27.1795 47.8012 12.1853)
(4.94606 13.2404 -3.92625)
(0.960691 19.2876 -16.1702)
(3.42316 20.7911 13.5032)
(1.78185 23.3672 -1.16699)
(5.5482 27.6844 10.6791)
(6.32363 28.4891 1.45255)
(8.45387 33.1606 9.08269)
(11.4013 34.6422 -2.44359)
(11.9418 41.5942 8.7592)
(13.3957 43.9209 -8.04003)
)
;
    }
    procBoundary28to27
    {
        type            processor;
        value           nonuniform List<vector> 
20
(
(-17.4127 -22.4232 -0.266899)
(-28.1274 -9.50174 -10.2129)
(-31.5262 8.05425 -17.046)
(-26.4905 -5.98075 6.58796)
(3.7132 2.04131 -14.5687)
(-17.6613 -13.172 6.89447)
(-25.4334 -7.19539 -0.232067)
(-24.0847 -17.3427 -0.485564)
(12.214 4.0817 0.462761)
(13.7896 8.73496 -1.24591)
(3.24517 -1.10296 16.1344)
(4.40667 5.46884 3.50593)
(12.7299 12.5655 -9.38739)
(15.8995 10.4504 3.20049)
(14.7493 7.99585 -14.5872)
(14.0522 2.60999 8.48838)
(7.64981 10.9563 -3.43138)
(10.3106 12.7024 -24.493)
(8.17206 6.03435 0.833047)
(5.53713 4.35718 -26.1962)
)
;
    }
    procBoundary28to29
    {
        type            processor;
        value           nonuniform List<vector> 
20
(
(7.97724 49.3115 2.80896)
(12.1066 44.4586 2.16772)
(-1.3575 48.2767 -20.7497)
(-15.0753 14.8533 -1.14376)
(5.53129 44.8022 11.7103)
(11.9551 28.4862 4.92024)
(6.29749 20.4597 -18.8091)
(5.22407 7.72171 -10.6486)
(28.9024 30.1463 22.2702)
(40.8174 40.2795 56.3843)
(7.21657 69.7577 86.2664)
(3.58922 -28.5061 101.181)
(60.2758 30.2545 42.1034)
(17.5598 64.1222 41.0543)
(39.3856 2.13879 -38.8012)
(50.0249 -10.7406 8.2623)
(6.38145 95.5928 38.8827)
(30.3355 42.1665 3.44496)
(170.815 -120.445 -11.6814)
(9.2262 -4.09178 -5.12894)
)
;
    }
}


// ************************************************************************* //
