/*--------------------------------*- C++ -*----------------------------------*\
| =========                 |                                                 |
| \\      /  F ield         | OpenFOAM: The Open Source CFD Toolbox           |
|  \\    /   O peration     | Version:  2.4.0                                 |
|   \\  /    A nd           | Web:      www.OpenFOAM.org                      |
|    \\/     M anipulation  |                                                 |
\*---------------------------------------------------------------------------*/
FoamFile
{
    version     2.0;
    format      ascii;
    class       volSymmTensorField;
    location    "0.1";
    object      B;
}
// * * * * * * * * * * * * * * * * * * * * * * * * * * * * * * * * * * * * * //

dimensions      [0 2 -2 0 0 0 0];

internalField   nonuniform List<symmTensor> 
200
(
(1.56396e+14 1.46786e+13 -3.44113e+13 1.73528e+14 1.92748e+13 1.99843e+14)
(2.95411e+14 2.90598e+13 -5.96402e+13 2.67045e+14 4.75281e+13 2.37414e+14)
(1.37853e+14 1.01199e+13 -2.40951e+13 1.28284e+14 4.14294e+13 9.86183e+13)
(4.1392e+14 -1.29502e+13 -3.02765e+13 2.41801e+14 5.93852e+13 2.10215e+14)
(1.84108e+15 -4.64561e+12 -1.02041e+14 1.40211e+15 -1.1092e+14 1.57938e+15)
(1.69844e+15 9.52497e+13 -1.37745e+14 1.3348e+15 -2.90518e+13 1.17702e+15)
(1.04572e+16 5.73879e+14 -8.13393e+14 1.0307e+16 -5.00507e+14 9.67466e+15)
(7.00377e+15 5.71729e+14 -5.3934e+14 6.99339e+15 -2.8968e+14 5.91074e+15)
(2.17248e+16 3.16709e+15 -3.8157e+15 1.82299e+16 -2.8207e+15 1.32441e+16)
(4.15627e+16 4.44189e+15 -9.63627e+14 3.72033e+16 -1.63687e+13 2.89323e+16)
(1.33577e+14 3.30207e+13 -6.56067e+13 1.22897e+14 3.17385e+13 8.00956e+13)
(1.33415e+14 8.37504e+12 1.58862e+12 1.14274e+14 4.06417e+13 1.19605e+14)
(1.87183e+14 -2.79966e+13 -6.14658e+13 1.14836e+14 4.74708e+13 6.73684e+13)
(6.19859e+15 -1.28432e+14 -2.30248e+14 5.74583e+15 -1.20813e+14 5.91871e+15)
(2.92345e+15 6.08313e+13 -8.37247e+13 2.44692e+15 -8.84911e+13 2.07568e+15)
(6.09773e+15 1.58894e+15 -6.82069e+14 5.72638e+15 -7.77822e+14 3.98016e+15)
(5.44127e+15 6.43819e+14 -7.47955e+14 5.12564e+15 -3.62991e+14 3.76387e+15)
(3.83559e+16 2.62123e+15 -5.50969e+15 3.33812e+16 -3.92342e+15 2.69282e+16)
(6.75838e+16 4.38382e+15 -6.04596e+14 6.32628e+16 -1.1751e+14 5.37258e+16)
(3.39529e+16 6.00856e+15 -3.33728e+15 2.7835e+16 -3.73708e+15 1.33467e+16)
(1.94838e+14 1.32185e+13 2.19327e+13 2.08436e+14 4.62433e+13 2.14769e+14)
(4.238e+13 3.55317e+12 -6.29447e+13 8.44994e+13 2.92978e+13 6.4973e+12)
(7.3023e+15 -2.06133e+14 -3.6719e+14 6.99518e+15 -5.08171e+13 7.09577e+15)
(2.09762e+15 7.55467e+12 -4.18816e+13 1.86306e+15 -2.21235e+13 1.58396e+15)
(6.9682e+15 1.69708e+15 4.47208e+14 5.79734e+15 -7.98954e+14 2.17215e+15)
(4.12906e+15 2.46945e+14 -6.56353e+14 3.43055e+15 -3.18677e+14 2.66993e+15)
(6.82908e+16 1.4181e+15 -5.70189e+15 6.41666e+16 -2.86911e+15 6.20277e+16)
(8.79979e+16 3.59535e+15 -5.89986e+14 8.33799e+16 3.31379e+13 7.60605e+16)
(3.93892e+16 8.47787e+15 -1.30015e+15 2.62211e+16 -4.34017e+15 3.82456e+15)
(2.16518e+17 2.23592e+16 -2.5992e+16 1.90143e+17 -1.14941e+16 1.4814e+17)
(8.86826e+13 4.32228e+13 -5.52163e+13 1.37506e+14 1.60908e+13 6.50888e+13)
(1.84329e+15 -1.05265e+14 -1.94633e+14 1.78287e+15 4.64526e+13 1.79096e+15)
(8.44004e+14 2.36184e+12 1.11077e+13 7.85276e+14 2.31368e+13 5.69596e+14)
(7.17669e+15 1.37927e+14 -1.06171e+15 5.6326e+15 -2.0641e+14 2.11578e+15)
(3.59368e+15 -1.86598e+14 -5.67324e+14 3.00859e+15 -3.11777e+14 2.37124e+15)
(9.05803e+16 8.33146e+14 -7.0681e+15 8.65458e+16 -4.45777e+15 8.43748e+16)
(7.77965e+16 2.68906e+15 -3.92647e+14 7.35618e+16 1.39863e+13 6.65862e+16)
(5.86493e+16 1.0562e+16 -3.31832e+15 3.50616e+16 -8.06191e+15 -1.12408e+15)
(2.5292e+17 1.92337e+16 -2.79158e+16 2.10021e+17 -1.17136e+16 1.73934e+17)
(5.24294e+18 3.06271e+16 1.78006e+17 5.25715e+18 7.86182e+16 5.20429e+18)
(3.31787e+14 1.22689e+14 -7.47938e+13 2.51965e+14 4.62325e+13 5.82357e+12)
(3.40677e+14 9.54436e+13 -3.36355e+13 4.19158e+14 1.85212e+13 3.17209e+14)
(1.37513e+14 7.09762e+13 -2.54966e+13 1.71628e+14 2.45786e+13 3.18871e+13)
(2.32849e+14 8.32174e+13 -3.65682e+13 3.2821e+14 3.00508e+13 2.42669e+14)
(2.45308e+14 4.13217e+13 -6.30918e+13 2.74662e+14 8.11161e+13 1.44773e+14)
(1.87534e+15 7.16455e+12 -2.84443e+14 1.38901e+15 -2.03249e+14 1.77032e+15)
(3.1041e+14 -2.72839e+13 -1.32155e+14 1.11482e+14 1.1251e+14 2.16093e+14)
(9.28134e+15 3.47091e+13 -3.37943e+14 9.4838e+15 -4.16519e+14 9.80173e+15)
(4.07787e+15 -4.43188e+13 -3.84893e+14 4.29887e+15 -1.81157e+14 4.42201e+15)
(3.03664e+16 -7.30655e+14 -5.88511e+15 3.13508e+16 -3.90754e+15 3.63674e+16)
(1.94447e+14 8.79864e+13 -6.6897e+12 2.2083e+14 4.35029e+13 1.88158e+14)
(1.94648e+14 6.90662e+13 -3.75055e+13 1.89727e+14 3.6771e+13 8.3068e+13)
(1.73469e+14 6.0764e+13 7.2087e+12 1.75261e+14 5.91452e+13 1.6994e+14)
(1.53377e+14 4.25501e+13 3.13717e+13 1.92229e+14 1.17428e+14 1.11053e+14)
(9.84083e+15 -2.82739e+14 -6.90781e+14 8.99658e+15 -2.80879e+14 9.83009e+15)
(1.68098e+15 -2.0645e+14 -9.64951e+13 1.17969e+15 1.00786e+14 1.49122e+15)
(1.31988e+16 6.56325e+14 -1.65484e+15 1.33637e+16 -5.88685e+14 1.43595e+16)
(6.82452e+15 -9.65578e+13 -9.14129e+14 7.23578e+15 -2.51746e+14 7.76365e+15)
(3.33074e+16 -1.40128e+15 -5.52039e+15 3.55606e+16 -5.04503e+15 4.3096e+16)
(7.40379e+15 -1.01787e+15 -2.72623e+15 9.33866e+15 -1.44141e+15 1.14763e+16)
(9.96513e+13 5.96497e+13 -1.60797e+13 8.02494e+13 2.83393e+13 -3.92718e+12)
(1.27315e+14 2.50634e+13 2.7179e+13 8.9484e+13 5.53377e+13 1.32225e+14)
(1.53364e+14 4.66873e+13 9.59311e+13 1.89834e+14 1.2403e+14 1.63713e+14)
(1.71912e+16 -4.42821e+14 -1.00028e+15 1.64358e+16 -2.58676e+14 1.73951e+16)
(1.77118e+15 -3.73349e+14 -1.60295e+14 1.33479e+15 1.05148e+14 1.89775e+15)
(3.05045e+15 1.12729e+15 6.41289e+13 4.44677e+15 -5.89467e+13 4.08666e+15)
(6.9038e+15 -3.8074e+14 -7.72152e+14 7.73284e+15 -3.67031e+14 8.41703e+15)
(6.7246e+16 -2.34863e+15 -9.71319e+15 6.72909e+16 -4.72664e+15 7.82632e+16)
(1.43317e+16 -5.26197e+14 -3.82619e+15 1.37818e+16 -1.218e+15 1.73047e+16)
(1.68192e+16 -1.03404e+16 -1.12363e+16 2.48836e+16 -7.74406e+15 4.92698e+16)
(1.39565e+14 1.41941e+12 4.4192e+13 4.75329e+13 5.10608e+13 1.38965e+14)
(1.72118e+14 4.61908e+13 1.24992e+14 1.55523e+14 9.46756e+13 1.90076e+14)
(1.3292e+16 -4.08829e+14 -9.74131e+14 1.26045e+16 -2.29822e+14 1.33329e+16)
(7.53231e+14 -4.58295e+14 -9.55897e+13 4.47105e+14 1.24365e+14 1.10645e+15)
(5.25831e+15 2.25004e+15 1.0026e+15 7.21334e+15 7.76826e+14 6.17463e+15)
(7.23457e+15 -2.4224e+14 -5.97454e+14 7.91516e+15 -2.54716e+14 8.40591e+15)
(1.23998e+17 -3.10666e+15 -1.11338e+16 1.25895e+17 -7.09073e+15 1.34363e+17)
(1.06482e+16 -4.07201e+13 -3.44789e+15 1.26365e+16 -8.7782e+14 1.31278e+16)
(-5.53464e+14 -1.16735e+16 -8.10906e+15 1.2015e+16 -1.88599e+16 4.30552e+16)
(2.75462e+17 1.87751e+15 -1.08056e+16 2.70099e+17 -4.92986e+15 2.79083e+17)
(2.38837e+14 5.38516e+13 -4.45432e+11 2.88375e+14 2.15114e+12 3.28939e+14)
(9.82919e+13 3.03934e+13 1.03833e+13 1.0468e+14 3.07377e+13 5.53812e+13)
(8.82691e+13 2.99475e+13 -1.53002e+11 1.8912e+14 1.80992e+13 1.8439e+14)
(5.55392e+13 3.42153e+13 -1.21642e+13 1.77638e+14 6.02451e+13 1.47845e+14)
(2.42726e+14 -7.17262e+11 -2.676e+13 4.19053e+14 2.68671e+13 3.7882e+14)
(-8.86229e+12 -8.39543e+12 -1.17806e+14 4.2288e+14 1.40703e+14 3.67067e+14)
(4.60057e+14 -3.56624e+13 -1.13563e+14 6.33156e+14 4.40364e+13 6.96852e+14)
(3.62595e+14 -1.06027e+14 -2.78961e+14 7.14479e+14 1.7827e+14 6.66667e+14)
(1.0509e+15 -3.3814e+14 -3.85915e+14 1.77517e+15 -5.24583e+11 2.12082e+15)
(1.68485e+15 -4.79665e+14 4.93983e+13 2.08694e+15 1.9484e+14 2.59598e+15)
(1.58492e+14 4.20993e+13 1.20943e+13 1.31012e+14 4.5388e+13 8.83942e+13)
(9.58091e+13 6.89049e+13 1.06198e+13 1.54713e+14 3.73885e+13 1.80914e+14)
(1.33652e+14 5.60684e+13 7.94535e+12 1.91654e+14 4.84814e+13 1.85646e+14)
(1.85204e+14 4.7284e+13 -7.94381e+12 3.42808e+14 4.67634e+13 3.03873e+14)
(2.49967e+14 5.82404e+13 -6.81886e+12 5.42883e+14 2.3859e+14 4.84314e+14)
(1.9744e+15 -6.97862e+13 -2.17843e+14 1.97786e+15 2.88526e+13 2.52791e+15)
(3.78296e+14 -6.7922e+13 -1.60381e+14 6.16451e+14 4.12614e+14 7.83404e+14)
(8.4233e+15 -1.28482e+14 -2.31455e+14 8.98932e+15 -2.68615e+12 9.63064e+15)
(2.42702e+15 -4.47912e+14 -1.65592e+14 3.18131e+15 3.91575e+14 3.95551e+15)
(1.27753e+16 -1.01877e+15 -1.17406e+15 1.37696e+16 -4.96069e+14 1.72038e+16)
(1.08156e+14 6.28274e+13 2.90077e+13 1.07353e+14 3.44583e+13 1.42911e+14)
(1.98945e+14 6.67862e+13 2.17955e+13 2.05528e+14 4.02466e+13 2.22538e+14)
(1.79398e+14 8.54994e+13 1.53335e+13 2.58757e+14 4.80823e+13 2.52555e+14)
(7.15095e+14 1.0352e+14 2.00088e+14 8.8153e+14 1.71668e+14 8.58791e+14)
(5.82977e+15 -1.33215e+14 -4.91847e+14 5.47555e+15 -1.00545e+13 6.63985e+15)
(7.46326e+14 -2.4108e+14 5.38243e+13 6.67297e+14 4.15131e+14 1.24898e+15)
(5.35821e+15 3.69285e+14 8.85128e+13 6.3373e+15 -1.67041e+13 6.65327e+15)
(3.85413e+15 -6.19566e+14 -2.13403e+14 5.03748e+15 4.32513e+14 6.39358e+15)
(2.94339e+16 -2.24883e+15 -2.04641e+15 3.09179e+16 -1.82355e+15 3.76452e+16)
(6.22883e+15 -1.65712e+15 1.57626e+14 7.26175e+15 1.07361e+15 1.07852e+16)
(3.04884e+14 5.89298e+13 3.23402e+13 2.37841e+14 3.57784e+13 2.78713e+14)
(2.90204e+14 7.31387e+13 2.82924e+13 2.4563e+14 4.08748e+13 2.71998e+14)
(6.87046e+14 1.56254e+14 2.46913e+14 7.43962e+14 1.21169e+14 7.90645e+14)
(1.19733e+16 -3.3314e+14 -6.21728e+14 1.15244e+16 1.17768e+14 1.25112e+16)
(6.62523e+14 -3.94404e+14 2.28578e+14 7.88743e+14 2.57954e+14 1.27935e+15)
(1.32466e+16 1.56986e+15 1.65377e+14 1.42187e+16 3.75663e+14 1.44792e+16)
(5.00847e+15 -2.03144e+14 -4.75995e+14 7.13961e+15 1.76737e+14 8.37644e+15)
(8.49734e+16 -3.45737e+15 -3.73717e+15 8.8176e+16 -8.26132e+15 1.00428e+17)
(1.32613e+16 -1.92556e+15 1.26972e+15 1.40356e+16 1.18977e+15 1.81711e+16)
(2.70036e+16 -5.83744e+15 1.00001e+16 2.81738e+16 -8.76297e+15 4.97673e+16)
(-3.15467e+13 1.09749e+14 -7.20547e+13 6.7269e+13 -5.55613e+11 -6.87763e+13)
(3.92558e+14 5.4557e+13 -6.09894e+13 5.83971e+14 -6.12549e+13 7.25928e+14)
(2.6317e+14 2.34424e+12 1.39207e+13 2.708e+14 7.02631e+12 2.69476e+14)
(2.60903e+14 7.29905e+13 2.34366e+13 4.75653e+14 -3.99095e+12 4.69381e+14)
(1.72029e+14 8.73457e+13 7.61319e+13 6.09806e+14 3.22583e+13 6.64366e+14)
(2.28608e+14 5.21988e+13 -4.74065e+13 6.91113e+14 2.15691e+13 5.51581e+14)
(9.44783e+14 8.03097e+13 -7.12412e+12 1.5425e+15 6.17702e+13 1.6708e+15)
(-2.06548e+14 -1.06071e+13 -1.60725e+14 4.38732e+14 2.513e+14 -5.22922e+14)
(2.06727e+15 -1.78633e+14 2.81297e+14 2.64476e+15 1.70572e+14 2.89518e+15)
(8.75984e+14 -1.0802e+14 -3.84868e+14 1.12059e+15 1.95049e+14 7.67523e+14)
(3.24252e+14 6.73032e+13 -3.65495e+13 4.77284e+14 -6.51754e+13 6.01886e+14)
(2.0681e+14 6.77266e+12 1.20097e+13 2.09477e+14 8.28456e+12 2.0653e+14)
(2.44229e+14 1.16218e+14 2.03759e+13 4.35653e+14 -1.43776e+13 4.27573e+14)
(2.50714e+14 1.56865e+14 9.21896e+13 4.97228e+14 4.38706e+13 4.83028e+14)
(6.58709e+14 1.83511e+14 -9.93008e+12 1.03742e+15 2.75559e+13 8.53743e+14)
(1.05445e+15 2.1932e+14 9.04109e+13 1.44735e+15 1.16444e+14 1.43624e+15)
(2.90982e+14 3.24568e+13 -3.91575e+13 9.7013e+14 1.38132e+14 3.75853e+14)
(3.61588e+15 2.22828e+14 5.21942e+13 5.38095e+15 7.29407e+14 4.73278e+15)
(3.20885e+14 5.23889e+13 -1.58949e+14 8.71146e+14 3.54944e+14 5.81097e+14)
(3.99383e+15 -3.57335e+14 6.06993e+14 5.8131e+15 9.13036e+14 5.56912e+15)
(1.89483e+14 1.59839e+13 1.32001e+13 1.80465e+14 1.27106e+13 1.78429e+14)
(2.21786e+14 1.25738e+14 1.20826e+13 3.04107e+14 -9.65492e+12 3.11207e+14)
(3.93536e+14 1.31282e+14 6.21538e+13 4.34819e+14 3.40462e+13 4.44301e+14)
(9.97589e+14 2.41254e+14 4.52673e+13 1.16103e+15 2.90867e+13 1.01659e+15)
(1.14605e+15 2.24984e+14 1.48904e+14 1.19956e+15 6.78599e+13 1.12556e+15)
(1.14469e+15 3.30147e+14 -3.65845e+13 1.56805e+15 1.42991e+14 1.44193e+15)
(7.05884e+15 8.76449e+14 6.0382e+14 8.64632e+15 7.44631e+14 7.48332e+15)
(2.52708e+15 2.53827e+14 2.96927e+14 2.76419e+15 3.74538e+14 2.80352e+15)
(7.14214e+15 -4.99082e+14 3.27872e+14 1.0688e+16 1.71339e+15 9.75016e+15)
(1.91939e+15 -1.52356e+14 -2.89795e+13 2.64821e+15 3.67967e+13 3.64115e+15)
(1.73848e+14 6.85871e+13 5.79469e+12 1.6786e+14 -4.58157e+11 1.89255e+14)
(5.03132e+14 8.77665e+13 4.39711e+13 4.43244e+14 2.93656e+13 4.74613e+14)
(8.91267e+14 1.96575e+14 4.20111e+13 8.67178e+14 4.81659e+13 8.08037e+14)
(1.06559e+15 2.21423e+14 1.46187e+14 9.50489e+14 4.19904e+13 9.50032e+14)
(2.96085e+15 4.44946e+14 -1.48723e+14 2.88845e+15 2.04166e+14 3.05547e+15)
(6.39868e+15 1.09145e+15 6.63865e+14 7.42523e+15 5.42269e+14 6.68185e+15)
(1.34441e+16 4.33485e+14 8.31228e+14 1.2152e+16 3.03149e+14 1.30016e+16)
(4.69775e+15 1.70642e+13 1.74548e+15 7.30384e+15 1.36196e+15 8.28854e+15)
(2.70279e+16 -2.56333e+14 -9.06807e+14 2.87722e+16 -2.02047e+15 3.08967e+16)
(7.20983e+15 -1.32877e+15 1.78216e+15 8.50714e+15 2.29477e+15 1.08129e+16)
(-7.88589e+13 7.76529e+13 -1.16977e+14 3.09964e+13 -4.80027e+13 4.9217e+14)
(1.86628e+14 3.01289e+13 7.89257e+13 1.52854e+14 3.16207e+13 1.80563e+14)
(2.41935e+14 4.47114e+13 -1.21164e+14 3.78311e+14 -8.37662e+13 4.97554e+14)
(5.37887e+14 2.26566e+13 2.10689e+14 5.12296e+14 8.27492e+13 5.35798e+14)
(2.73088e+14 9.35062e+13 -4.40216e+13 3.82092e+14 -6.7649e+13 3.11119e+14)
(4.82779e+14 1.39014e+13 1.99281e+14 4.07458e+14 8.15188e+13 5.27046e+14)
(1.99956e+15 2.9316e+13 -5.41416e+14 2.11567e+15 -2.87397e+14 2.05885e+15)
(2.00041e+15 -6.34335e+13 -4.94028e+13 2.36878e+15 -1.81731e+13 2.82764e+15)
(-6.06402e+14 -4.7368e+14 -2.51889e+14 -1.29625e+14 5.32446e+14 7.5661e+14)
(2.47795e+15 -4.73764e+14 3.05305e+14 3.23818e+15 2.62198e+14 4.67889e+15)
(1.18788e+14 3.6269e+13 2.90036e+13 8.93352e+13 3.11259e+13 1.03477e+14)
(2.41619e+14 4.21391e+13 -1.03933e+14 3.85767e+14 -9.50925e+13 4.72745e+14)
(3.31837e+14 3.07272e+13 1.35306e+14 3.36829e+14 6.42344e+13 3.38697e+14)
(3.55843e+14 1.05764e+14 -6.21399e+13 5.50238e+14 -8.38023e+13 4.43431e+14)
(1.65849e+14 6.85499e+12 1.50188e+14 2.31991e+14 6.68092e+13 2.46806e+14)
(1.36196e+15 5.03141e+13 -3.15329e+14 1.61998e+15 -2.27971e+14 1.43708e+15)
(1.05233e+15 -4.87835e+12 -6.313e+13 1.61563e+15 -7.23317e+12 1.68805e+15)
(-1.8672e+14 -1.77651e+14 2.43012e+14 3.61104e+14 5.64236e+14 3.6178e+14)
(1.74424e+15 -2.95313e+14 2.90423e+14 3.3186e+15 3.75102e+14 3.22753e+15)
(3.9914e+14 -1.09194e+14 -3.56099e+14 7.22583e+14 5.56401e+14 9.79397e+14)
(1.37081e+14 4.41715e+13 -5.42882e+13 2.2384e+14 -7.66049e+13 2.85987e+14)
(2.40756e+14 4.4881e+13 6.68008e+13 2.35975e+14 4.32874e+13 2.33542e+14)
(5.30528e+14 1.41674e+14 -6.56082e+13 7.2732e+14 -7.47843e+13 6.19467e+14)
(9.5658e+13 6.80571e+13 1.01217e+14 1.83128e+14 7.04226e+13 1.69571e+14)
(1.55259e+15 1.76058e+14 -2.64024e+14 1.8588e+15 -2.3979e+14 1.57756e+15)
(8.59535e+14 1.36078e+14 -4.36474e+13 1.4241e+15 1.48328e+13 1.28238e+15)
(3.45746e+14 1.25216e+14 3.74241e+14 4.95636e+14 1.99402e+14 2.68087e+14)
(2.40769e+15 2.62022e+14 3.65337e+14 4.04459e+15 2.28018e+14 2.54761e+15)
(1.29024e+15 1.67569e+14 2.11587e+13 1.46235e+15 3.27128e+14 9.54792e+14)
(3.03036e+15 -2.43623e+14 5.54333e+14 5.03722e+15 7.41245e+14 3.12618e+15)
(2.80757e+14 5.94816e+13 4.42056e+13 2.33921e+14 3.73561e+13 2.4164e+14)
(7.15234e+14 1.26722e+14 -4.38667e+13 7.95591e+14 -4.44136e+13 7.36944e+14)
(1.91384e+14 8.74332e+13 7.34724e+13 1.7636e+14 7.18714e+13 1.95603e+14)
(2.48556e+15 3.14759e+14 -3.42961e+14 2.6863e+15 -2.90422e+14 2.37282e+15)
(9.87463e+14 1.73843e+14 -2.98362e+13 1.28363e+15 2.7375e+13 1.24311e+15)
(1.18167e+15 2.78714e+14 4.21037e+14 6.55216e+14 1.80403e+14 7.87825e+14)
(4.79125e+15 8.10484e+14 5.78923e+14 5.82121e+15 8.23183e+13 4.66433e+15)
(5.97503e+15 5.25087e+14 8.47369e+13 5.6436e+15 2.54133e+14 4.9679e+15)
(4.1603e+15 4.42521e+14 1.32125e+15 5.33629e+15 5.59945e+14 2.88309e+15)
(2.74153e+16 6.48303e+14 -3.46105e+15 2.87461e+16 -1.42959e+15 2.73401e+16)
)
;

boundaryField
{
    inlet
    {
        type            calculated;
        value           nonuniform 0();
    }
    outlet
    {
        type            calculated;
        value           nonuniform 0();
    }
    bottom
    {
        type            calculated;
        value           nonuniform List<symmTensor> 
40
(
(-41133.6 126346 -545799 106326 -94758.6 1.63467e+06)
(114826 252231 -820506 33245.3 798376 -603659)
(13407.4 125391 16550 142393 142520 908954)
(-100363 317072 -640442 257793 797199 -189260)
(251980 331636 -935949 -71745.5 1.14343e+06 -429425)
(187351 82697.3 -164909 -1650.96 154253 796362)
(-136355 25646.3 -767609 167656 761120 -311709)
(486750 -899737 -1.87936e+06 -29605.5 369013 -506605)
(205306 79877.7 -336787 129780 188672 329694)
(376531 -207051 -717059 -158523 844423 -512011)
(1.78213e+06 -1.83242e+06 -3.53463e+06 -947974 -767193 -328905)
(1.01218e+06 18100.7 101876 562102 -205170 -4.5951e+06)
(877126 -91315.6 -377609 -336529 949278 -556553)
(2.68146e+06 -1.3296e+06 -2.40025e+06 -2.00574e+06 -1.74927e+06 -316161)
(2.14655e+06 64007.5 207193 159168 -1.58108e+06 -8.5479e+06)
(2.81058e+06 163936 -1.18886e+06 975305 291485 -724639)
(1.85999e+06 -37383.1 -546645 -1.67237e+06 -1.35774e+06 99779.7)
(2.45204e+06 311046 582562 15438.7 -1.65219e+06 -6.59704e+06)
(2.36925e+06 2.12175e+06 1.11027e+06 905388 -563315 -1.91434e+06)
(1.93378e+06 -665741 -566567 -153676 -838634 -8.85622e+06)
(1.78888e+06 550282 -92328 -311973 -346348 -2.57883e+06)
(1.3574e+06 3.05308e+06 -434304 643868 -1.37118e+06 -2.36942e+06)
(2.11511e+06 785772 -452258 -107527 -45285.7 -8.52584e+06)
(6.15795e+06 1.35178e+06 -1.03903e+07 -387965 -7.67076e+06 -7.0053e+06)
(1.58505e+06 2.26796e+06 -2.25252e+06 991513 -2.29795e+06 -2.32316e+06)
(1.72062e+06 1.8624e+06 -721748 807559 538907 -1.15985e+07)
(6.44998e+06 2.55776e+06 -8.59191e+06 -988548 -4.717e+06 -8.85034e+06)
(1.14462e+07 5.66404e+06 4.35087e+06 2.52655e+06 889460 -3.91424e+07)
(1.3848e+06 2.60227e+06 -1.04866e+06 1.33758e+06 147935 -1.16609e+07)
(5.6711e+06 2.83341e+06 -4.19731e+06 293695 -3.25594e+06 -9.80439e+06)
(1.15388e+07 6.85585e+06 4.26961e+06 2.73271e+06 2.14605e+06 -3.60641e+07)
(8.55253e+06 3.75701e+06 6.01995e+06 162167 1.61083e+06 -1.06142e+07)
(3.94538e+06 3.09105e+06 -1.91784e+06 534437 -1.28415e+06 -9.61358e+06)
(9.24529e+06 6.02672e+06 3.78977e+06 3.30486e+06 2.25393e+06 -2.8696e+07)
(6.92247e+06 4.25748e+06 6.92107e+06 309621 2.72505e+06 -1.40598e+07)
(1.79694e+07 7.81093e+06 -2.00165e+06 547842 -1.67031e+06 -4.62877e+07)
(7.08694e+06 5.19971e+06 2.49803e+06 1.98375e+06 2.73392e+06 -2.20701e+07)
(5.80406e+06 4.62144e+06 4.04029e+06 1.09851e+06 1.3076e+06 -1.48217e+07)
(1.41746e+07 9.13123e+06 -1.89246e+06 3.4032e+06 -770876 -4.28492e+07)
(3.81716e+06 1.8925e+07 1.26761e+08 1.25981e+07 5.72697e+07 -4.34677e+07)
)
;
    }
    top
    {
        type            symmetryPlane;
    }
    side1
    {
        type            symmetryPlane;
    }
    side2
    {
        type            symmetryPlane;
    }
    procBoundary20to12
    {
        type            processor;
        value           nonuniform List<symmTensor> 
50
(
(5.20425e+12 1.3278e+13 -4.44752e+13 -2.81509e+13 6.35968e+13 -4.68729e+12)
(-9.27706e+11 1.17328e+13 -4.34142e+13 4.06217e+13 2.18804e+13 -4.35216e+12)
(1.13078e+13 2.06193e+13 -3.42742e+13 -4.37672e+12 4.4922e+13 -2.86343e+13)
(2.94868e+13 2.14765e+13 -4.95744e+13 4.26137e+13 3.25972e+13 -2.27925e+13)
(7.03022e+13 2.6707e+13 -2.81197e+13 -3.47859e+13 4.4152e+13 -5.64705e+13)
(1.59767e+14 5.33004e+13 -6.45507e+13 -6.86924e+13 -1.86513e+13 -6.16498e+13)
(2.00336e+14 7.16021e+13 -4.62418e+13 -7.55236e+13 -1.26455e+13 -1.64603e+14)
(2.96839e+14 3.96389e+14 -7.1248e+14 1.66772e+14 -3.52164e+14 -1.73487e+14)
(2.53198e+14 5.16409e+14 -5.79301e+14 2.16021e+14 -1.70855e+14 -6.12028e+14)
(2.96754e+15 2.91374e+15 -3.22515e+15 1.20971e+15 -1.9641e+15 -5.04918e+15)
(1.66812e+13 3.44414e+13 -1.79734e+13 6.71473e+13 1.73326e+13 -3.88018e+12)
(3.46781e+13 3.87063e+13 -3.83353e+13 -3.5888e+12 3.05276e+11 -8.5559e+13)
(1.10562e+13 4.55111e+13 -2.11216e+13 8.81253e+13 8.78824e+12 -9.64206e+12)
(1.02815e+13 3.92889e+13 -5.50241e+13 3.88338e+13 9.68754e+12 -1.00837e+14)
(8.0318e+12 2.50311e+13 -6.66575e+13 9.87228e+13 -1.27075e+12 -1.10699e+13)
(1.08565e+13 8.71352e+12 -6.93791e+13 4.07384e+13 1.5809e+13 -1.01836e+14)
(1.22587e+14 2.15319e+13 -1.53148e+14 -1.63502e+13 -5.76215e+13 -4.65621e+12)
(9.41263e+12 -1.8644e+13 -1.47615e+14 -7.48497e+13 3.23238e+13 -1.42948e+14)
(-4.30664e+13 -1.80868e+13 -4.48676e+14 -5.93231e+13 -2.44503e+14 4.02778e+14)
(-1.83446e+14 -5.16778e+13 -4.1673e+14 -6.6596e+13 -2.43066e+14 1.58563e+14)
(-4.1254e+13 8.22282e+13 -1.63671e+14 1.91742e+12 3.60287e+13 -3.10466e+14)
(1.52239e+13 4.05854e+13 4.61381e+12 -3.31149e+13 1.93741e+13 9.10166e+13)
(-4.56666e+12 2.11799e+13 -1.00467e+13 1.26665e+13 2.77447e+13 -5.36739e+13)
(-3.72825e+13 -1.18208e+12 -6.11441e+12 5.23944e+13 9.76276e+12 3.15523e+13)
(-1.0112e+14 -1.33203e+13 -4.08099e+12 3.49925e+13 3.16631e+13 1.89641e+13)
(-6.23371e+13 -1.79214e+13 -3.51713e+13 4.68022e+13 1.66725e+13 4.80145e+13)
(-2.01986e+14 -8.79455e+13 -1.22472e+14 5.91708e+13 4.36003e+13 6.62024e+13)
(-1.03558e+14 -8.52152e+13 -9.01668e+13 4.88047e+13 4.59464e+13 7.79913e+13)
(-1.75384e+14 -1.74564e+14 -1.78217e+14 1.73384e+13 -5.19806e+12 6.96873e+13)
(-2.67039e+14 -1.45131e+14 -7.83204e+14 -6.11983e+13 2.10378e+13 2.03544e+14)
(-7.17223e+13 -2.39205e+13 1.07486e+14 -1.91817e+14 6.56919e+13 2.64387e+14)
(-9.17288e+13 9.89474e+13 -7.63601e+13 7.28516e+13 -4.58031e+13 -1.14391e+14)
(-1.03422e+14 1.86787e+13 -3.31599e+13 3.29552e+13 -2.32646e+13 1.32207e+14)
(-3.72774e+13 -2.40432e+12 5.51035e+13 1.89829e+12 2.23879e+13 1.01065e+13)
(-1.09177e+14 4.57293e+13 2.25366e+13 7.13553e+13 1.24124e+13 7.98264e+13)
(-3.31237e+14 -1.34573e+13 7.63117e+13 8.69187e+13 2.88989e+13 2.44972e+14)
(-2.67448e+14 -1.17226e+13 -1.07801e+14 1.00528e+14 2.56457e+13 8.75524e+13)
(-2.32733e+14 -7.16422e+13 4.79586e+13 9.55448e+13 -3.22122e+13 3.33382e+14)
(-1.87958e+14 -1.57095e+14 -8.92003e+14 2.24055e+14 2.95517e+14 -1.14514e+15)
(-1.08678e+14 -1.83709e+14 1.04072e+14 6.44629e+13 7.63383e+13 3.99762e+14)
(2.42659e+12 2.18712e+14 8.94998e+13 1.35969e+14 -1.07218e+14 -9.52087e+13)
(-1.7763e+14 3.84154e+13 -1.7531e+13 -1.64369e+14 5.35218e+13 3.23887e+14)
(1.49217e+12 1.98503e+13 7.69147e+13 -4.93006e+12 1.36876e+13 1.70609e+13)
(-7.17787e+13 3.76916e+13 -6.83084e+13 5.59456e+09 -3.72455e+13 8.06903e+13)
(1.75489e+13 3.37074e+13 2.01222e+14 -2.19806e+13 8.33895e+13 1.72107e+12)
(-2.08282e+13 1.06812e+14 -3.06319e+13 4.78232e+13 -4.91757e+13 -1.33282e+13)
(6.55149e+13 8.85758e+13 2.14642e+14 -5.94782e+13 1.26043e+14 8.13508e+13)
(-1.09321e+14 7.61144e+13 -7.89451e+14 -1.56836e+13 -4.14777e+14 -9.20358e+12)
(-4.34144e+14 -1.01796e+14 -6.67702e+13 -9.75219e+13 8.2839e+12 6.35085e+14)
(-1.06634e+15 -3.77308e+14 -4.81488e+14 -5.4271e+14 -2.65023e+14 1.09915e+15)
)
;
    }
    procBoundary20to19
    {
        type            processor;
        value           nonuniform List<symmTensor> 
20
(
(3.81686e+11 2.11832e+13 -3.6778e+13 -2.44535e+13 7.63347e+13 -1.32463e+13)
(-2.11585e+13 1.2061e+13 -2.11809e+13 9.39374e+12 2.46858e+13 5.7066e+13)
(9.93684e+12 2.09768e+13 -4.87674e+13 1.27122e+13 2.15619e+13 -3.89401e+13)
(8.83686e+12 3.24895e+13 3.70385e+13 2.80691e+12 5.3595e+13 3.39726e+13)
(2.44453e+13 7.47533e+13 -2.51993e+13 6.12727e+13 1.15244e+13 2.36044e+12)
(8.72145e+13 2.69058e+13 1.81842e+14 4.787e+13 7.95422e+13 -3.31718e+14)
(2.62945e+13 5.27896e+13 2.87757e+13 3.73593e+12 4.21286e+13 2.70594e+13)
(3.95554e+13 3.27104e+13 -5.50018e+12 -2.50992e+13 2.38958e+13 -5.69301e+13)
(-1.16634e+14 2.06616e+14 -1.42955e+14 6.23693e+12 6.18151e+13 -2.98891e+14)
(-1.94652e+13 4.56641e+13 3.9224e+12 1.31908e+13 6.28775e+12 5.14707e+13)
(2.69139e+13 3.95928e+13 1.6146e+13 -2.15361e+13 3.66923e+13 -2.93737e+13)
(2.68457e+13 4.45457e+13 3.84055e+13 -3.56622e+13 2.95489e+13 1.47759e+13)
(-1.04726e+14 1.79e+13 9.04716e+13 -8.83762e+13 -1.45793e+13 2.89647e+14)
(-3.09234e+13 1.28946e+14 -3.86065e+13 -3.64944e+12 3.82482e+13 -9.91102e+13)
(-3.04537e+13 2.96099e+13 1.39555e+12 2.99012e+12 -2.30513e+13 6.3201e+13)
(2.5329e+13 3.00467e+13 1.59528e+13 -1.88708e+13 1.61051e+13 -1.15413e+13)
(-1.97937e+12 3.29589e+14 -1.10339e+14 -1.15876e+13 1.14743e+14 -1.75773e+14)
(-1.53377e+14 -6.97569e+12 1.69048e+14 1.02036e+13 -1.83086e+14 2.42425e+14)
(3.26646e+13 7.14471e+13 2.61298e+12 -2.8191e+13 4.36951e+13 -1.40603e+13)
(-1.50583e+13 2.79133e+13 -1.04709e+13 -2.25564e+13 -4.35353e+13 3.31961e+13)
)
;
    }
    procBoundary20to21
    {
        type            processor;
        value           nonuniform List<symmTensor> 
20
(
(5.66101e+15 5.41428e+15 -4.90767e+15 1.59109e+15 -2.93577e+15 -9.58916e+15)
(2.2435e+16 1.98888e+16 -1.97202e+16 9.05752e+15 -9.01608e+15 -2.27825e+16)
(5.03534e+14 2.69611e+16 1.47203e+17 2.26018e+16 7.86935e+16 -2.90387e+16)
(-8.86307e+16 -3.99465e+16 2.93426e+16 -3.69681e+16 3.26983e+16 1.96683e+17)
(-1.34347e+15 -8.9385e+14 -2.59275e+15 -8.74605e+14 -1.44138e+15 1.37148e+15)
(-1.34376e+16 -6.98678e+15 -7.67386e+15 -5.17086e+15 -6.60765e+15 1.13986e+16)
(4.54639e+15 2.3209e+15 -1.23598e+16 2.437e+14 -6.16697e+15 1.09916e+16)
(1.26822e+16 1.62702e+16 5.7795e+16 1.09759e+16 2.39558e+16 -7.83793e+16)
(-6.56702e+14 -6.12995e+14 -1.14127e+15 -2.61504e+14 7.3595e+13 1.03665e+15)
(-1.24512e+15 -1.31907e+15 2.52921e+14 -5.57787e+14 7.7173e+14 1.74915e+15)
(-3.84642e+15 -2.60519e+15 2.81283e+15 -2.83789e+15 1.08495e+15 8.60838e+15)
(3.19506e+15 1.70945e+15 1.16471e+15 3.76421e+14 1.97066e+15 8.61714e+15)
(-3.68084e+14 -3.90767e+14 2.97711e+14 2.05808e+14 3.58767e+14 4.94072e+14)
(-3.90077e+14 -1.79755e+14 -2.41865e+14 9.54567e+13 5.30076e+14 1.17843e+14)
(-1.49878e+15 -6.62242e+14 9.87826e+14 1.43687e+15 2.10359e+15 1.01481e+15)
(1.89473e+14 5.28362e+14 3.94148e+15 6.22656e+13 -1.32098e+14 -1.0615e+15)
(-7.95741e+14 -2.87419e+14 -4.63828e+14 -3.28274e+14 2.83869e+14 9.80423e+14)
(-7.69861e+14 -6.25042e+14 4.42518e+14 5.74335e+14 5.7195e+14 8.44851e+14)
(-3.82287e+14 3.27019e+14 -1.28506e+15 5.25549e+14 -7.88857e+14 -4.50665e+14)
(-1.19437e+15 -4.56574e+14 1.53404e+15 8.44594e+14 1.23827e+15 8.52362e+14)
)
;
    }
    procBoundary20to28
    {
        type            processor;
        value           nonuniform List<symmTensor> 
50
(
(8.07266e+12 8.91374e+12 1.2757e+13 -8.49105e+11 4.88514e+13 1.20793e+13)
(6.59652e+13 9.95797e+13 5.77718e+13 4.36253e+13 6.08584e+13 7.52288e+12)
(1.01715e+15 -5.73325e+14 -1.64934e+15 7.90708e+14 4.0045e+14 -1.50186e+15)
(-9.51095e+13 -2.34914e+14 -4.7749e+14 2.17516e+14 -1.34793e+14 -4.82401e+14)
(2.82412e+15 2.37796e+14 -8.13315e+15 5.18403e+14 -2.27038e+14 -1.72817e+15)
(6.33129e+15 2.42936e+15 -3.88032e+14 2.13472e+15 -3.31887e+14 -9.5104e+15)
(4.39657e+16 9.90433e+15 -1.07806e+16 1.16841e+16 -7.07087e+15 -7.98466e+16)
(7.07546e+16 2.17086e+16 -3.54002e+16 -3.7154e+15 -1.82499e+16 -4.79817e+16)
(1.96903e+16 4.02649e+16 2.53333e+17 2.42716e+16 1.03298e+17 -5.71856e+16)
(-8.08204e+16 -3.66718e+16 2.67206e+16 -3.6304e+16 2.43105e+16 1.81989e+17)
(-3.59285e+12 2.40507e+13 1.05057e+14 -5.75692e+13 5.64415e+13 1.37436e+13)
(3.47988e+14 -3.64618e+14 -8.31379e+14 -4.15952e+14 -2.3334e+14 8.82357e+13)
(-2.40093e+14 -5.3939e+14 3.18024e+13 -3.89468e+14 6.88308e+13 1.17776e+14)
(6.56117e+14 9.89555e+14 5.5346e+14 9.76211e+14 1.02318e+15 8.92796e+14)
(-7.45445e+14 -2.72627e+14 -4.94118e+14 -3.65952e+13 -2.26753e+14 2.89011e+14)
(-6.42829e+15 -3.25881e+15 -2.09955e+16 -1.93274e+15 -9.7485e+15 1.02343e+16)
(1.4196e+15 1.12995e+15 -1.41545e+15 1.51139e+15 -9.34266e+14 7.0717e+14)
(-2.6129e+16 -1.72224e+16 -8.04733e+15 3.27758e+15 -3.70109e+16 -1.37045e+16)
(7.02963e+15 1.66379e+15 -1.56747e+16 3.80879e+14 -7.08118e+15 1.03099e+16)
(1.2274e+16 1.70957e+16 6.93934e+16 1.47432e+16 3.13258e+16 -7.98963e+16)
(5.59972e+13 3.19414e+13 3.87822e+13 -4.74751e+13 3.65807e+13 -6.4517e+12)
(3.85096e+13 1.00806e+14 2.00605e+14 -9.25998e+13 9.79884e+13 1.6209e+13)
(1.13936e+14 -1.70652e+14 -2.63942e+14 -3.42355e+14 1.15392e+14 4.54692e+14)
(-1.82443e+14 -2.01856e+14 3.0547e+14 -5.0805e+14 3.09886e+14 1.08727e+14)
(1.34446e+14 1.32887e+15 -2.11295e+14 7.84308e+14 9.03803e+14 7.39363e+14)
(-1.93818e+15 -2.28494e+14 -3.17808e+14 4.74874e+13 2.99773e+13 8.5793e+14)
(-1.12398e+16 -6.53017e+15 -2.61043e+16 -4.8481e+15 -1.43946e+16 1.93504e+16)
(-3.25173e+15 -1.58632e+15 1.3798e+15 -9.52819e+13 1.20805e+15 3.41566e+15)
(-2.35635e+16 -1.91516e+16 3.92648e+16 -9.29055e+15 -3.71214e+16 1.72564e+16)
(4.4531e+15 2.5313e+15 7.11525e+14 1.28192e+15 5.99923e+14 8.5746e+15)
(8.58207e+13 7.74933e+13 6.3742e+13 -5.81362e+13 3.55997e+13 -1.05771e+12)
(7.40644e+13 1.05563e+14 5.03179e+13 -3.84969e+13 5.7882e+13 -3.55444e+13)
(1.56075e+14 1.8788e+14 1.15153e+14 -1.15731e+14 5.07019e+13 -3.64042e+12)
(3.06274e+14 3.94711e+14 -1.99885e+14 -1.021e+14 1.13512e+14 -1.28896e+14)
(-7.91068e+13 8.48252e+14 4.15057e+14 2.21616e+14 3.54003e+14 -1.22835e+14)
(1.76863e+15 6.27607e+14 1.23029e+15 -1.44735e+15 6.21982e+14 4.74596e+14)
(-2.88108e+15 5.9952e+14 2.30132e+15 -1.06759e+15 1.60887e+15 1.9165e+15)
(-4.91195e+15 -8.27611e+14 -9.0059e+15 -1.40201e+15 -6.42424e+15 9.71545e+15)
(-3.61701e+15 -2.0939e+15 1.98864e+15 -2.73769e+15 1.0538e+15 2.91121e+15)
(-1.84632e+15 1.2449e+15 2.29559e+16 -2.06213e+15 -8.73294e+15 9.89508e+15)
(2.21469e+13 8.9078e+13 -2.0995e+13 1.53843e+12 -2.37509e+13 -8.86225e+12)
(3.31264e+13 8.52929e+13 7.67373e+13 -9.0061e+13 7.7822e+13 -2.69246e+13)
(8.29324e+13 3.82861e+14 -4.40751e+14 1.57342e+14 -3.62172e+14 -1.82516e+14)
(-9.39124e+13 1.34462e+14 -2.46588e+13 1.08446e+12 3.23821e+13 7.20699e+13)
(8.38022e+14 1.62648e+14 8.0533e+14 -9.11446e+14 3.62224e+14 -9.26271e+13)
(9.19693e+13 1.0072e+15 5.95372e+14 3.35905e+14 1.51468e+14 -3.95244e+14)
(1.43683e+15 1.10299e+15 7.26919e+13 -2.9494e+14 4.78057e+14 -9.47927e+14)
(1.32236e+14 1.20874e+15 2.18144e+15 -8.8234e+13 5.60581e+14 -1.64643e+15)
(-1.45299e+15 1.12591e+15 -4.46558e+15 1.81193e+14 -2.19424e+15 3.11727e+15)
(-2.13457e+15 -5.86094e+14 2.11505e+15 -1.17334e+15 1.31142e+15 1.96638e+15)
)