/*--------------------------------*- C++ -*----------------------------------*\
| =========                 |                                                 |
| \\      /  F ield         | OpenFOAM: The Open Source CFD Toolbox           |
|  \\    /   O peration     | Version:  2.4.0                                 |
|   \\  /    A nd           | Web:      www.OpenFOAM.org                      |
|    \\/     M anipulation  |                                                 |
\*---------------------------------------------------------------------------*/
FoamFile
{
    version     2.0;
    format      ascii;
    class       volScalarField;
    location    "0.15";
    object      nut;
}
// * * * * * * * * * * * * * * * * * * * * * * * * * * * * * * * * * * * * * //

dimensions      [0 2 -1 0 0 0 0];

internalField   nonuniform List<scalar> 
200
(
1.53364e+10
1.01758e+10
2.77289e+10
1.6776e+10
2.98399e+09
1.42898e+10
1.31909e+10
1.56494e+10
2.08181e+10
5.91961e+10
1.22882e+10
1.63822e+10
1.22501e+10
8.19762e+09
1.72779e+10
2.28376e+10
1.13618e+10
8.76969e+09
8.33683e+09
7.50453e+10
4.89194e+10
9.74904e+09
1.75603e+10
1.15881e+10
1.01725e+10
1.03795e+10
1.87707e+10
1.33753e+10
1.41587e+10
5.29029e+10
3.21224e+10
2.22951e+10
3.17437e+10
2.07727e+10
6.13836e+09
8.4549e+09
1.11323e+10
1.64688e+10
2.02367e+10
3.18557e+10
1.26435e+10
1.14889e+10
3.5783e+09
5.46572e+09
9.58238e+09
1.71068e+10
1.01565e+10
3.15242e+10
1.14059e+10
5.10579e+10
9.46099e+10
2.81677e+10
2.65111e+10
8.86993e+09
2.55316e+10
2.2261e+10
8.99976e+09
9.43346e+09
1.44625e+10
7.02811e+10
3.74439e+10
6.53404e+10
1.28792e+10
2.59931e+10
2.87279e+09
2.61898e+10
1.1772e+10
1.54083e+10
1.1002e+10
4.00072e+10
3.56903e+10
7.69014e+09
1.93861e+10
1.1293e+10
6.37202e+09
9.79363e+09
2.2352e+10
1.5074e+10
1.54452e+10
2.64335e+10
6.58018e+10
9.65293e+09
1.22531e+10
7.4295e+09
1.22502e+10
4.95686e+09
1.61208e+10
1.05275e+10
3.91516e+10
4.40036e+10
6.08583e+09
9.37441e+10
1.40315e+10
2.2697e+10
9.18661e+09
2.15592e+10
1.3697e+10
3.52139e+10
1.07685e+10
8.9717e+10
1.23409e+11
1.87212e+10
2.60234e+10
1.72102e+10
1.67358e+10
1.07296e+10
2.94657e+10
1.00616e+10
2.84489e+10
5.2426e+10
5.59915e+10
5.12709e+10
3.59088e+10
3.3156e+10
1.8485e+10
3.42843e+10
1.74025e+10
2.71345e+10
1.96798e+10
4.20298e+10
2.80382e+10
2.2285e+10
1.98965e+10
2.48122e+10
1.09356e+10
2.75178e+10
1.30288e+10
3.5617e+10
1.65139e+10
7.86283e+10
8.83192e+10
1.93086e+10
3.08883e+10
1.58227e+10
3.81565e+10
1.44742e+10
4.00434e+10
9.82722e+09
2.34432e+10
8.7093e+10
4.91737e+10
2.31784e+10
5.40196e+10
2.09218e+10
1.65324e+10
3.7667e+10
1.07319e+10
3.14493e+10
1.42236e+10
9.92129e+10
7.87493e+10
1.50366e+11
8.59367e+10
8.32166e+10
3.96181e+10
2.64175e+10
3.74235e+10
2.56807e+10
4.0339e+10
5.79296e+10
4.30767e+10
3.02266e+10
3.24695e+10
2.12977e+10
2.64941e+10
1.71624e+10
3.0441e+10
2.34445e+10
3.44728e+10
8.12712e+10
1.66745e+10
4.49182e+10
3.03013e+10
4.03462e+10
1.57836e+10
3.32476e+10
1.8095e+10
3.1226e+10
1.01758e+10
1.47257e+11
3.96526e+10
4.74392e+10
5.32943e+10
3.88361e+10
3.33049e+10
1.22194e+10
2.40458e+10
1.04405e+10
2.43845e+10
1.06929e+11
1.95696e+11
1.05644e+11
1.00616e+11
6.78578e+10
4.88717e+10
4.72146e+10
3.98695e+10
4.40165e+10
4.14316e+10
8.89867e+10
)
;

boundaryField
{
    inlet
    {
        type            calculated;
        value           nonuniform 0();
    }
    outlet
    {
        type            calculated;
        value           nonuniform List<scalar> 
20
(
1.51498e-14
8.42964e-15
9.84228e-15
1.38036e-14
2.07592e-14
2.80257e-15
1.21312e-14
1.00205e-14
9.09903e-15
1.31509e-14
7.97476e-15
2.2371e-14
2.07897e-14
5.01906e-15
2.22218e-14
2.39913e-14
1.61454e-14
1.64324e-14
1.12679e-14
3.50784e-14
)
;
    }
    bottom
    {
        type            calculated;
        value           nonuniform List<scalar> 
40
(
1.22296e-14
1.18759e-14
1.87118e-15
2.90242e-14
8.40739e-15
7.95522e-15
1.3986e-14
5.05132e-14
1.99063e-14
4.63994e-14
1.09842e-14
3.13303e-14
6.24106e-14
6.79278e-15
2.1407e-14
1.50248e-14
4.52726e-15
4.60285e-14
8.41841e-15
4.44639e-15
5.15868e-14
1.60068e-14
2.33581e-14
6.37401e-15
1.01756e-14
8.96667e-14
1.09881e-14
1.45332e-14
6.17933e-14
1.31271e-14
4.20762e-14
8.39363e-15
1.30873e-14
1.00044e-13
1.04182e-14
4.60793e-14
9.69804e-14
4.06686e-14
8.51802e-14
1.99207e-14
)
;
    }
    top
    {
        type            symmetryPlane;
    }
    side1
    {
        type            symmetryPlane;
    }
    side2
    {
        type            symmetryPlane;
    }
    procBoundary31to23
    {
        type            processor;
        value           nonuniform List<scalar> 
50
(
1.40722e+10
1.32296e+10
1.14895e+10
2.64736e+10
1.28167e+10
1.39254e+10
6.50589e+09
3.50236e+10
1.49225e+10
4.91307e+10
8.25618e+09
1.43344e+10
5.29735e+09
5.9196e+09
1.20099e+10
4.9026e+09
4.55351e+10
9.37627e+09
3.52909e+10
3.19716e+10
1.32501e+10
7.41299e+09
3.92071e+09
7.47118e+09
3.84212e+09
1.32439e+10
4.44754e+09
3.84073e+10
9.58815e+09
4.30728e+10
7.20058e+09
1.7244e+10
1.55776e+10
8.69518e+09
1.09948e+10
8.78233e+09
1.55517e+10
1.12238e+10
2.19497e+10
3.57524e+10
3.70672e+10
2.02908e+10
1.84031e+10
1.47505e+10
1.58778e+10
1.57687e+10
1.64465e+10
2.14062e+10
2.22872e+10
4.624e+10
)
;
    }
    procBoundary31to30
    {
        type            processor;
        value           nonuniform List<scalar> 
20
(
1.02606e+10
9.16531e+09
2.25498e+10
2.0528e+10
4.17951e+09
3.12537e+10
1.38654e+11
1.93849e+10
1.88698e+10
1.83001e+11
3.7629e+10
7.82926e+10
6.89807e+10
1.98861e+10
1.18765e+11
8.48318e+10
7.85045e+10
2.44872e+10
1.20256e+11
7.63987e+10
)
;
    }
}


// ************************************************************************* //
