/*--------------------------------*- C++ -*----------------------------------*\
| =========                 |                                                 |
| \\      /  F ield         | OpenFOAM: The Open Source CFD Toolbox           |
|  \\    /   O peration     | Version:  2.4.0                                 |
|   \\  /    A nd           | Web:      www.OpenFOAM.org                      |
|    \\/     M anipulation  |                                                 |
\*---------------------------------------------------------------------------*/
FoamFile
{
    version     2.0;
    format      ascii;
    class       volScalarField;
    location    "0.02";
    object      alpha;
}
// * * * * * * * * * * * * * * * * * * * * * * * * * * * * * * * * * * * * * //

dimensions      [0 0 0 0 0 0 0];

internalField   nonuniform List<scalar> 
200
(
5.18791e-16
1.00156e-15
4.61867e-17
1.16759e-18
2.1338e-20
3.15063e-22
3.98798e-24
4.4873e-26
4.68516e-28
1.25954e-27
1.31316e-18
2.32794e-18
1.16961e-19
3.20213e-21
6.30118e-23
9.96758e-25
1.34569e-26
1.6665e-28
9.14621e-28
1.39971e-25
3.00067e-21
4.91998e-21
2.67424e-22
7.88197e-24
1.66157e-25
2.80336e-27
4.19884e-29
3.04847e-28
5.09052e-26
8.29295e-24
6.32971e-24
9.65722e-24
5.64464e-25
1.78188e-26
4.00615e-28
7.18113e-30
1.44695e-31
5.78019e-30
9.12904e-28
1.39976e-25
1.01415e-14
2.40513e-13
1.01395e-14
2.35229e-16
3.96935e-18
5.44245e-20
6.42919e-22
6.78121e-24
6.5395e-26
5.95566e-28
2.35288e-17
5.07373e-16
2.35237e-17
5.95287e-19
1.08815e-20
1.60667e-22
2.03344e-24
2.28766e-26
2.41136e-28
9.79311e-28
4.96297e-20
9.81217e-19
4.96177e-20
1.36013e-21
2.67733e-23
4.23528e-25
5.71742e-27
7.0589e-29
3.56131e-28
5.45022e-26
9.72132e-23
1.77449e-21
9.71865e-23
2.86876e-24
6.05002e-26
1.02082e-27
1.46418e-29
2.64809e-31
1.23871e-29
1.87503e-27
4.59677e-17
9.9134e-16
4.59638e-17
1.16319e-18
2.12632e-20
3.13964e-22
3.97373e-24
4.47068e-26
4.58074e-28
4.38463e-30
1.16338e-19
2.3004e-18
1.16328e-19
3.18888e-21
6.27726e-23
9.93026e-25
1.34056e-26
1.6024e-28
1.7643e-30
3.60033e-30
2.65834e-22
4.85325e-21
2.65811e-22
7.84637e-24
1.65477e-25
2.79214e-27
4.00475e-29
5.15455e-31
1.30392e-30
1.89104e-28
5.60746e-25
9.50843e-24
5.60693e-25
1.77314e-26
3.98856e-28
7.15032e-30
1.08589e-31
1.90582e-33
6.88522e-32
1.01075e-29
1.13658e-19
2.24743e-18
1.13654e-19
3.11567e-21
6.13337e-23
9.70298e-25
1.30993e-26
1.56584e-28
1.6991e-30
7.20206e-32
3.11615e-22
5.68925e-21
3.11606e-22
9.19841e-24
1.93996e-25
3.27343e-27
4.69517e-29
5.94231e-31
6.87606e-33
9.58196e-33
7.66803e-25
1.30032e-23
7.66787e-25
2.42494e-26
5.45483e-28
9.7791e-30
1.4851e-31
2.00677e-33
3.32328e-33
4.59109e-31
1.73299e-27
2.74359e-26
1.73297e-27
5.84521e-29
1.39696e-30
2.65159e-32
4.25047e-34
7.59872e-36
2.37455e-34
3.36987e-32
2.03263e-22
3.71061e-21
2.03262e-22
6.00099e-24
1.26579e-25
2.13616e-27
3.06438e-29
3.87887e-31
4.44517e-33
4.73615e-34
6.00197e-25
1.0177e-23
6.00205e-25
1.89837e-26
4.27088e-28
7.65757e-30
1.16306e-31
1.55391e-33
1.88959e-35
2.14259e-35
1.58256e-27
2.50524e-26
1.58261e-27
5.33871e-29
1.27606e-30
2.42241e-32
3.88348e-34
5.50875e-36
6.6395e-36
8.76619e-34
3.81544e-30
5.66411e-29
3.81558e-30
1.36743e-31
3.46049e-33
6.93385e-35
1.17009e-36
2.15144e-38
6.0053e-37
8.24003e-35
)
;

boundaryField
{
    inlet
    {
        type            zeroGradient;
    }
    outlet
    {
        type            zeroGradient;
    }
    bottom
    {
        type            fixedValue;
        value           uniform 0;
    }
    top
    {
        type            symmetryPlane;
    }
    side1
    {
        type            symmetryPlane;
    }
    side2
    {
        type            symmetryPlane;
    }
    procBoundary13to5
    {
        type            processor;
        value           nonuniform List<scalar> 
50
(
1.78885e-13
3.79294e-13
1.59199e-14
3.69033e-16
6.22635e-18
8.53766e-20
1.00871e-21
1.06415e-23
1.02644e-25
9.28409e-28
3.8472e-12
1.01356e-10
3.84647e-12
8.11313e-14
1.25505e-15
1.58857e-17
1.74265e-19
1.71563e-21
1.55117e-23
1.30898e-25
1.58538e-14
3.75996e-13
1.5852e-14
3.67772e-16
6.20625e-18
8.50995e-20
1.00534e-21
1.06044e-23
1.02269e-25
9.1699e-28
3.59348e-17
7.74929e-16
3.59317e-17
9.0936e-19
1.6624e-20
2.45477e-22
3.10708e-24
3.49583e-26
3.58244e-28
9.13143e-30
5.93186e-20
1.17272e-18
5.93143e-20
1.62628e-21
3.20192e-23
5.06623e-25
6.84061e-27
8.17829e-29
8.87671e-31
5.29769e-32
)
;
    }
    procBoundary13to12
    {
        type            processor;
        value           nonuniform List<scalar> 
20
(
2.03715e-14
4.72812e-17
9.97694e-20
1.955e-22
3.25379e-16
8.19444e-19
1.86481e-21
3.92096e-24
1.37632e-18
3.74933e-21
9.18084e-24
2.06729e-26
3.47099e-21
1.0173e-23
2.66792e-26
6.40739e-29
6.46711e-24
2.02947e-26
5.67653e-29
1.44868e-31
)
;
    }
    procBoundary13to14
    {
        type            processor;
        value           nonuniform List<scalar> 
20
(
1.74963e-25
2.07302e-23
1.31007e-21
2.07312e-23
1.22631e-27
1.36227e-25
8.07352e-24
2.75215e-25
4.62842e-30
4.76565e-28
2.65878e-26
1.44762e-27
8.46754e-30
1.22293e-30
6.17059e-29
4.69372e-30
6.42642e-32
2.67687e-33
1.13109e-31
1.11547e-32
)
;
    }
    procBoundary13to21
    {
        type            processor;
        value           nonuniform List<scalar> 
50
(
1.21553e-26
1.76704e-26
1.1033e-27
3.70816e-29
8.84412e-31
1.67646e-32
7.10544e-34
6.949e-32
1.06408e-29
1.58173e-27
1.77513e-25
3.04201e-24
1.79382e-25
5.67275e-27
1.27603e-28
2.28759e-30
4.4843e-32
1.76539e-30
3.02157e-28
5.05595e-26
1.09524e-27
1.75543e-26
1.10881e-27
3.73995e-29
8.93809e-31
1.69658e-32
3.55185e-34
1.38166e-32
2.24033e-30
3.54051e-28
3.60494e-30
5.42699e-29
3.65553e-30
1.30993e-31
3.3146e-33
6.64097e-35
1.47063e-36
5.56873e-35
8.63278e-33
1.30028e-30
8.42153e-33
1.19522e-31
8.55248e-33
3.24503e-34
8.66776e-36
1.82817e-37
4.24924e-39
1.54574e-37
2.3019e-35
3.3213e-33
)
;
    }
}


// ************************************************************************* //
