/*--------------------------------*- C++ -*----------------------------------*\
| =========                 |                                                 |
| \\      /  F ield         | OpenFOAM: The Open Source CFD Toolbox           |
|  \\    /   O peration     | Version:  2.4.0                                 |
|   \\  /    A nd           | Web:      www.OpenFOAM.org                      |
|    \\/     M anipulation  |                                                 |
\*---------------------------------------------------------------------------*/
FoamFile
{
    version     2.0;
    format      ascii;
    class       volVectorField;
    location    "0.02";
    object      gradp;
}
// * * * * * * * * * * * * * * * * * * * * * * * * * * * * * * * * * * * * * //

dimensions      [1 -2 -2 0 0 0 0];

internalField   nonuniform List<vector> 
200
(
(11468.4 7552.09 2482.81)
(8101.33 4005.26 3473.36)
(5094.37 -1596.57 1815.04)
(9406.49 -3556.95 3041.25)
(13442.7 -5608.46 640.478)
(7545.59 -5727.9 806.64)
(7394.34 -6563.49 -123.417)
(14795.2 -7266.3 36.1697)
(20618.2 -3335.27 -31.312)
(21453.5 -12079.2 3219.51)
(5586.92 1809.28 2246.81)
(4215.51 107.791 758.057)
(1179.05 -2402.43 1607.65)
(4295.43 -3079.52 1560.48)
(6222.53 -6165.46 2491.35)
(4895.92 -7172.76 1955.97)
(-3317.03 -9044.17 3172.58)
(10029.9 -9724.96 7181.06)
(22017 -15703.8 6702.12)
(5731.5 -20979.3 4503.49)
(-587.205 8678.75 -1000.06)
(-322.089 605.287 -220.122)
(-1280.26 232.886 680.875)
(1880.44 -1972.61 2981.47)
(5256.28 -3383.65 2121.88)
(1788.17 -5571.12 2054.58)
(2289.93 -6651.21 2115.87)
(1475.89 -3472.22 2161.6)
(-1890.42 -11153.8 3494.18)
(5681.46 -9544.62 -7.85586)
(-10658.1 9721.72 -4553.43)
(-12676.2 7933.42 -1788.96)
(-3976.74 6441 370.199)
(-2937.65 6142.91 1332.11)
(-974.49 871.118 1843.66)
(-1639.19 -4714.26 605.112)
(880.779 -3684.75 600.713)
(1024.76 -7211.89 -996.44)
(9872.25 -1002.07 -1981.49)
(-3690.03 -4233.37 -7369.77)
(12287 5626.27 4877.87)
(5964.43 379.032 5314.3)
(3711.62 -3885.16 4265.93)
(5647.91 -3370.35 5334.86)
(6291.99 -3464.11 3396.34)
(5101.13 -1219.57 2220.58)
(4928.83 1118.29 881.73)
(15090 10253 -615.003)
(30804.8 15832.5 -2850.41)
(14232.1 12991.7 -4518.38)
(10615.7 -3763.31 1041.56)
(2170.19 -5801.78 557.776)
(3746.8 -4217.08 3055.95)
(7123.26 -3175.17 3304.94)
(7488.1 -3795.22 4014.31)
(7075.88 -5176.05 3175.97)
(13403.3 -5461.31 3106.89)
(21324.5 -6324.27 4446.45)
(13448.8 -10063 2758.63)
(-3252.21 -26143 1508.75)
(6086.92 -2201.64 -728.999)
(5056.89 -3469.94 -1142.54)
(8964.85 -1747.04 676.988)
(6491.63 -2337.99 2811.39)
(2290.23 -4419.95 2059.53)
(1768.96 -7732.49 2342.83)
(2632.4 -10766.2 2034.66)
(5886.49 -16556.2 1582.42)
(-8832.69 -25047.6 3378.65)
(-14325.7 -28541.8 4542.57)
(-4913.69 2492.68 -7195.06)
(3079.4 1165.75 -3263.38)
(6010.69 1615.25 -2652.99)
(1777.43 760.483 -588.239)
(-3300.9 -5452.9 452.202)
(-5616.62 -9803.71 -1418.63)
(-4244.19 -12098.9 -1114.81)
(-7238.28 -13406.6 -1203.56)
(-10522.4 -17186.3 1839.58)
(5385.01 -7144.78 -1257.08)
(10983.5 -9099.08 -7976.21)
(6143.1 -10006.6 -7434.67)
(5160.19 -7087.9 -5751.91)
(6623.81 -3850.2 -5375.56)
(3477.03 -3254.17 -4313.34)
(-501.152 -3608.09 -6329.98)
(-1679.52 -5009.79 -2393.7)
(2852.38 -2126.06 -4086.43)
(8127.35 3671.01 -3672.78)
(4722.55 2821.08 -10060.8)
(4244.42 -7161.72 -5018.24)
(10661.6 -10223.2 -4923.55)
(9969.97 -8144.73 -3676.61)
(7362.17 -7117.08 -3309.7)
(5809.85 -8304.35 -4787.37)
(1992.18 -6977.16 -3936.2)
(748.489 -7199.48 -6184.23)
(8915.52 -6209.08 -6387.1)
(12616.4 -5737.34 -8524.03)
(-1115.21 -6481.73 -7340.18)
(3704.52 -4499.83 -3267.37)
(4177.07 -5508.56 -2947.44)
(11372.3 -8901.42 -3445.63)
(6304.58 -8201.69 -3596.66)
(3756.88 -9083.02 -1950.41)
(1708.58 -12922.5 -3245.09)
(-143.369 -13405.9 -1946.05)
(5776.66 -12512.2 -3618.76)
(7582.04 -12624.3 -3060.75)
(1253.15 -13969.9 2742.13)
(-203.488 -3373.33 -4078.89)
(1858.4 -2464.1 -3479.9)
(4583.71 -2778.76 -3338.61)
(6998.96 -5199.99 -3024.24)
(-3631.74 -8441.83 -5008.15)
(-6653.63 -11259.1 -5748.01)
(1568.98 -9854 -6678.98)
(10478.8 -6757.51 -7103.91)
(9701.01 -8316.41 259.749)
(3715.55 -8468.42 7263.42)
(8000.93 20605.3 -9734.64)
(13082.2 24007.8 -10257.7)
(10300.8 21983.4 -10637.5)
(10251.3 21117.1 -8127.96)
(3237.84 14115.1 -7471.96)
(11244 9289.06 -2496.45)
(12108.2 2490.11 -346.54)
(10996.9 -5170.25 5851.49)
(11686.9 -3673.56 8041.06)
(1953.61 -3353.76 11081.8)
(3640.98 3770.84 -1641.98)
(6463.4 1377.79 -2251.78)
(8911.11 -527.025 -2564.57)
(3568.83 -328.932 -3133.21)
(5483.29 -14.5207 -2377.8)
(2605.92 -240.22 -3115.5)
(5560.38 -4745.07 -652.588)
(13837.1 -5576 679.609)
(10399 -9083.8 -326.69)
(4313.4 -5658.39 1200.69)
(2512.06 -698.693 120.327)
(4486.47 -1160.11 2022.68)
(6887.34 -1206.23 1905.02)
(11276.3 -1881.26 1862.72)
(3415.26 -4773.2 1929.43)
(1782.89 -10631.4 1000.99)
(1436.65 -11557.8 1650.79)
(2319.45 -17703.1 -798.956)
(11522.2 -10993.5 1369.62)
(6818.26 -5176.08 1247.71)
(502 1361.11 3813.45)
(5448.32 228.008 4248.61)
(7468.79 131.377 6076.01)
(-3565.12 -6635.13 5491.58)
(-12016.9 -11865.4 6152.07)
(-10963.3 -17603.6 8695.57)
(-8583.08 -20010.2 7965.25)
(14965.6 -12860.1 9800.44)
(35453 238.626 7068.05)
(14481.1 -2958.95 6902.76)
(2537.36 25192.3 636.635)
(3253.79 33350.9 -982.064)
(11975.3 34758.9 -2434.74)
(16753.7 35197.8 -458.778)
(21497.9 26884.5 -402.756)
(22300.2 15215.4 5247.48)
(25033.9 -3209.53 3052.31)
(29692.7 -16131.9 9286.75)
(24864.4 -22701 8894.74)
(3017.65 -17271.1 13404.7)
(4568.6 8606.23 2171)
(7709.29 9425.41 2471.48)
(7149.39 11923.4 2560.34)
(7959.83 8867.99 1920.95)
(5866.52 6737.87 3932.53)
(7512.86 -1381.26 2040.71)
(12892.8 -4003.76 5465.95)
(9958.39 -16849.8 4332.1)
(14283.9 -16411.6 4253.85)
(12432.4 -22216.3 5546.13)
(5877.12 4228.86 3658.75)
(9888.1 4892.07 4047.7)
(10860.4 4923.5 5346.76)
(6382.67 5597.98 5289.3)
(999.358 4564.77 3817.49)
(816.933 5975.22 4534.33)
(-5903.2 382.618 3515.63)
(4876.94 2081.09 2240.63)
(14131.4 -792.689 4314.84)
(3900.47 -4846.62 3056.01)
(8343.68 3210.7 5250.72)
(9098.58 4128.11 6254.09)
(8561.21 2775.81 6391.43)
(7242.36 1651.39 6595.47)
(6621.02 -185.465 9768.76)
(-851.445 -1225.19 12419.8)
(5104.58 1470.51 12928.7)
(7607.78 5057.57 16697.2)
(428.45 1834.74 10629.4)
(19734.8 11744.9 5752.04)
)
;

boundaryField
{
    inlet
    {
        type            zeroGradient;
    }
    outlet
    {
        type            zeroGradient;
    }
    bottom
    {
        type            zeroGradient;
    }
    top
    {
        type            symmetryPlane;
    }
    side1
    {
        type            symmetryPlane;
    }
    side2
    {
        type            symmetryPlane;
    }
    procBoundary13to5
    {
        type            processor;
        value           nonuniform List<vector> 
50
(
(17760.9 25518.9 3450.45)
(22512.8 8295.13 3024.45)
(16303.5 865.054 3038.02)
(12319.2 -7368.16 1443.85)
(10564.4 -6154.93 1151.13)
(6805.99 -6866.67 -861.742)
(-240.237 -7183.71 -1628.53)
(3573.49 -5133.91 -3768.52)
(31642.8 2203.63 -5277.7)
(29357.4 7764.84 -11165.8)
(18569.8 23829.3 11448.5)
(21193.1 15441.2 9315.17)
(11245.6 318.855 6488.04)
(6281.16 -6138.51 3488.22)
(3186.53 -4819.43 2542.88)
(-2088.92 -3672.17 1851.09)
(-9541.92 -758.732 2135.83)
(-8103.87 8276.55 1233.8)
(7971.49 26446.6 -1620.29)
(25032.1 35315.3 -7803.93)
(7460.93 -11248.9 -14380.1)
(6639.21 -11829.6 -19691.5)
(-2342.76 -10836.8 -19844.4)
(-305.284 2532.81 -18614.4)
(5325.63 12914.4 -15774.4)
(5503.43 14869.3 -10504.1)
(-2215.57 13481.8 -7041.62)
(-8446.09 7962.77 3252.45)
(2722.11 8513.9 3667.22)
(11415.9 8828.17 2875.73)
(-1145.73 38717.9 -23074.1)
(3707.25 47894.7 -29350.2)
(14692.5 74488 -28718.8)
(19305.3 93903.5 -27538.2)
(29139.4 104650 -21214.4)
(25855.9 74659.4 -14880.2)
(34479 27034.1 -1777.75)
(26164.4 5083.87 9433.27)
(6766 1437.2 16155.8)
(7401.5 -9182.94 13758.3)
(-30029.7 28004.6 -695.879)
(-11424 50333.2 -3367.98)
(3455.66 66204.6 -5424.39)
(23708.8 69670.5 -6879.48)
(45831.3 86338.3 -4048.3)
(67700.8 71613.1 -1663.28)
(75587.6 44960.6 9028.23)
(48941.4 -1800.4 11183.1)
(16562.3 -37936.7 16146)
(-8596.05 -25611.4 14244.5)
)
;
    }
    procBoundary13to12
    {
        type            processor;
        value           nonuniform List<vector> 
20
(
(3653.15 10092.3 3217.55)
(2278.4 6135.59 -813.45)
(6108.92 8727.78 -2305.79)
(-3174.89 7628.63 -3584.07)
(14138.7 4356.06 5465.83)
(10699.7 -2701.74 977.308)
(8114.02 4294.78 -2483.71)
(10176.5 5668.5 -6530.43)
(5991.82 -8398.32 -6095.27)
(7631.37 -6583.67 -2743.93)
(6229.09 -3284.61 -1830.3)
(877.045 2280.35 -5172.31)
(266.824 21614.4 -7618.26)
(252.937 4122.22 -2353.09)
(1176.85 409.385 1343.75)
(763.726 1009.4 1577.62)
(-2458.24 16051.8 725.304)
(1695.53 7755.53 2181.6)
(3193.54 3004.53 2996.12)
(5825.72 2884.03 3803.57)
)
;
    }
    procBoundary13to14
    {
        type            processor;
        value           nonuniform List<vector> 
20
(
(3793.85 -15148.2 -2288.01)
(-3735.71 -23589.9 3894.71)
(-9244.35 -15864.6 -2758.06)
(-1690.57 1516.65 854.462)
(-13446.6 1690.32 -8078.84)
(-21546.5 -24341.9 619.037)
(-1449.52 -20729 1994.8)
(615.486 -9362.79 4153.83)
(1990.8 -2594.56 -7509.8)
(-8656.79 -7472.04 -6159.77)
(-1943.4 -10208.9 3546.74)
(3950.33 -6861.36 3102.29)
(1433.95 -5217.6 7508.28)
(-3691.67 -6651.48 3906.94)
(-2144.66 -5909.66 2196.91)
(-674.828 -2258.24 12074.1)
(-23141.7 -12186.8 9227.25)
(-2587.24 -15970.2 6791.04)
(3790.18 2858.51 3403.03)
(2424.9 2221.57 12271.1)
)
;
    }
    procBoundary13to21
    {
        type            processor;
        value           nonuniform List<vector> 
50
(
(22.3702 570.325 -5518.2)
(-6883.53 6951.12 -4449.92)
(-4861.28 5990.12 -2335.21)
(-9259.32 4458.27 -382.545)
(-16458.1 482.108 -1830.64)
(-7323.57 -3224.14 -1126.33)
(-2705.33 -4780.96 -3143)
(6841.25 -2065.25 -1710.12)
(4066.63 -1728.44 -6620.95)
(10718.9 2044.04 -1827.49)
(-2918.57 -1652.42 -8913.4)
(3302.03 741.26 -7641)
(8154.31 1242.81 -5085.36)
(-7644.68 -2537.82 -4277.92)
(-18838.2 -5997.77 -3761.06)
(-11523.1 -9459.38 -1747.7)
(-4573.46 -9392.42 -1821.12)
(-4288.21 -8790.12 1866.41)
(3691.04 -4265.28 -1192.81)
(1321.29 -2480.35 1895.66)
(-5784.39 -2091.56 -3974.6)
(5366.2 -2605.99 -3533.53)
(5900.56 -3164.48 -4373.05)
(-5021.56 -3788.72 -8218.92)
(-8361.34 -5705.8 -5958.2)
(-1115.75 -5426.3 -8120.03)
(8859.81 -1185.15 -6890.57)
(8851.84 -583.487 -3277.18)
(4160.23 -2124.81 7829.82)
(4163.24 -1862.76 5358.27)
(949.266 -526.97 4235.34)
(2027.01 -888.095 6142.82)
(-6838.94 -3553.86 5376.63)
(-12717.2 -8031.61 6144.83)
(-18521.7 -13952.3 7089.66)
(-14506.7 -10227.1 7272.18)
(10923.7 -3238.75 8728.61)
(42817 6790.82 6585.47)
(31324.5 2727.7 7714.09)
(1824.53 -2563.49 13881)
(8365.27 2663.6 4814.75)
(9018.32 3873.19 6485.27)
(5907.01 4700.75 6999.53)
(460.119 163.205 10468.4)
(-4753.81 -5129.78 11117.4)
(4128.89 -9504.42 14770.8)
(6662.32 -9041.55 16941.1)
(5605.4 -10906.3 13439.2)
(27506 -8753.83 5312.42)
(4674.13 -11467.6 12245.9)
)
;
    }
}


// ************************************************************************* //
