/*--------------------------------*- C++ -*----------------------------------*\
| =========                 |                                                 |
| \\      /  F ield         | OpenFOAM: The Open Source CFD Toolbox           |
|  \\    /   O peration     | Version:  2.4.0                                 |
|   \\  /    A nd           | Web:      www.OpenFOAM.org                      |
|    \\/     M anipulation  |                                                 |
\*---------------------------------------------------------------------------*/
FoamFile
{
    version     2.0;
    format      ascii;
    class       volScalarField;
    location    "0.02";
    object      p;
}
// * * * * * * * * * * * * * * * * * * * * * * * * * * * * * * * * * * * * * //

dimensions      [1 -1 -2 0 0 0 0];

internalField   nonuniform List<scalar> 
200
(
-59.1633
-55.7551
-49.0367
-49.3871
-37.2786
-32.5837
-27.8466
-23.3408
-9.35254
2.43194
-58.0544
-50.3953
-52.785
-48.9215
-47.4157
-41.1433
-41.2958
-45.2896
-28.7584
-17.7683
-54.6401
-55.4856
-55.0427
-57.0859
-52.6922
-50.5156
-50.457
-47.6532
-48.6121
-50.0162
-36.3575
-48.8821
-52.2028
-53.853
-55.8748
-55.0711
-57.9238
-53.9702
-56.6429
-41.6299
-49.2321
-41.8616
-41.7765
-37.2221
-34.7166
-29.3571
-28.3402
-23.1961
-9.47779
15.31
-49.0671
-47.3631
-46.3544
-42.6796
-37.4503
-33.3195
-28.6055
-16.5654
-1.94988
0.245659
-58.6404
-56.3661
-52.3192
-45.16
-44.2047
-42.2972
-41.9935
-39.0067
-34.6354
-50.0476
-54.5712
-56.0379
-50.722
-48.5246
-48.5002
-52.6507
-55.521
-57.9559
-64.5688
-71.1089
-39.6518
-34.4979
-31.973
-28.0477
-23.6932
-23.7014
-24.3196
-25.8008
-20.7542
-15.6416
-53.8881
-48.1642
-40.5612
-35.7018
-31.3585
-28.4394
-28.8682
-27.5038
-17.7238
-11.7333
-57.5561
-60.0558
-52.3348
-45.8404
-44.4541
-41.1443
-42.3183
-41.3235
-35.0975
-31.8459
-65.1377
-61.9356
-62.8147
-56.206
-54.066
-60.7457
-62.3831
-58.7844
-49.2845
-46.6582
-81.1369
-71.6003
-64.7842
-58.7244
-51.97
-54.6771
-37.915
-39.5418
-24.1689
-24.9331
-69.1401
-67.0573
-61.0608
-55.9184
-56.5998
-49.0643
-53.3424
-42.1138
-36.046
-29.1151
-71.7098
-68.1559
-66.1017
-59.5467
-52.0063
-55.2776
-49.7777
-53.4818
-46.8784
-39.0791
-70.8868
-69.9575
-64.0764
-60.6216
-68.5328
-75.6427
-82.2369
-86.3716
-63.5298
-42.0553
-78.5904
-75.5286
-74.5231
-60.5595
-53.581
-33.6872
-25.7058
-2.39481
11.4101
28.6857
-60.4561
-57.1713
-50.8195
-48.2346
-40.8697
-40.9015
-31.4786
-24.7854
-19.0306
-6.93056
-57.0748
-51.965
-44.7147
-38.3895
-36.7364
-37.1403
-35.7152
-44.5193
-29.619
-26.8551
-49.8839
-44.9412
-38.5107
-34.2397
-29.4577
-25.9634
-30.522
-19.5827
-21.0123
-19.0471
)
;

boundaryField
{
    inlet
    {
        type            zeroGradient;
    }
    outlet
    {
        type            fixedValue;
        value           nonuniform 0();
    }
    bottom
    {
        type            zeroGradient;
    }
    top
    {
        type            symmetryPlane;
    }
    side1
    {
        type            symmetryPlane;
    }
    side2
    {
        type            symmetryPlane;
    }
    procBoundary13to5
    {
        type            processor;
        value           nonuniform List<scalar> 
50
(
-76.9346
-60.4085
-48.7936
-40.0291
-33.3945
-26.8236
-24.8871
-27.1239
-20.4202
12.4297
-63.1328
-48.3107
-36.6415
-34.2537
-28.79
-30.2706
-31.4012
-42.198
-41.531
-32.2336
-31.1404
-23.1478
-22.8414
-26.0763
-23.223
-19.4192
-16.3438
-22.1887
-26.9014
-18.786
-120.653
-127.077
-116.019
-108.711
-91.8876
-72.2869
-59.5677
-29.1882
-26.8621
-20.7307
-123.437
-140.549
-137.717
-136.229
-108.081
-78.9401
-23.4548
15.5444
37.7219
36.2472
)
;
    }
    procBoundary13to12
    {
        type            processor;
        value           nonuniform List<scalar> 
20
(
-70.0906
-57.379
-54.7516
-35.5595
-57.2204
-60.6328
-63.9747
-49.8958
-48.2272
-53.4697
-64.6864
-61.6813
-81.6015
-71.6085
-71.2959
-70.585
-78.7003
-62.8821
-59.3114
-55.3708
)
;
    }
    procBoundary13to14
    {
        type            processor;
        value           nonuniform List<scalar> 
20
(
17.4644
-21.594
-41.5103
-61.2554
8.31232
-6.01515
-52.5425
-57.8375
-14.851
-19.1179
-33.5311
-44.6401
-21.7269
-30.6542
-38.3556
-45.4284
15.1821
-3.4901
-24.7434
3.65617
)
;
    }
    procBoundary13to21
    {
        type            processor;
        value           nonuniform List<scalar> 
50
(
-30.3358
-35.652
-38.9403
-41.7286
-50.5144
-62.3012
-59.6689
-65.6829
-51.1173
-60.5996
-52.4087
-53.4517
-48.2811
-43.2588
-57.837
-66.8065
-72.2409
-72.5234
-77.6011
-67.9096
-65.9895
-66.216
-59.2817
-58.8403
-65.5587
-69.292
-66.9533
-58.2172
-55.8885
-53.017
-68.3071
-67.5858
-65.7733
-76.1345
-81.6698
-99.2867
-99.8031
-85.6321
-46.2818
-46.4765
-49.0481
-41.6448
-37.7752
-34.261
-37.2
-40.2033
-32.0389
-31.8754
-25.0322
2.50713
)
;
    }
}


// ************************************************************************* //
