/*--------------------------------*- C++ -*----------------------------------*\
| =========                 |                                                 |
| \\      /  F ield         | OpenFOAM: The Open Source CFD Toolbox           |
|  \\    /   O peration     | Version:  2.4.0                                 |
|   \\  /    A nd           | Web:      www.OpenFOAM.org                      |
|    \\/     M anipulation  |                                                 |
\*---------------------------------------------------------------------------*/
FoamFile
{
    version     2.0;
    format      ascii;
    class       volVectorField;
    location    "0.09";
    object      Ur;
}
// * * * * * * * * * * * * * * * * * * * * * * * * * * * * * * * * * * * * * //

dimensions      [0 1 -1 0 0 0 0];

internalField   nonuniform List<vector> 
200
(
(1.91349e+06 1.16795e+06 -2.86842e+06)
(1.10462e+06 -1.7538e+06 6.99174e+06)
(2.06956e+06 1.46073e+06 -1.80339e+06)
(1.71075e+06 1.76967e+06 -1.2549e+06)
(2.78139e+06 -668316 -68542.7)
(2.62517e+06 920484 -2.02177e+06)
(3.85433e+06 -2.20964e+06 1.1327e+06)
(3.61149e+06 -344767 -430731)
(5.02807e+06 -2.86973e+06 3.41226e+06)
(3.89739e+06 -4.31554e+06 1.08608e+06)
(792051 -3.22428e+06 9.54784e+06)
(1.44212e+06 726767 -3.35773e+06)
(322400 -1.49315e+06 5.99089e+06)
(918683 510863 -2.62922e+06)
(1.13332e+06 604973 35159.1)
(2.23753e+06 -725275 -464200)
(2.1008e+06 190873 -1.94396e+06)
(2.64719e+06 -2.91853e+06 709715)
(2.38359e+06 -1.09452e+06 -937947)
(2.34078e+06 -3.81809e+06 1.58854e+06)
(-2.05635e+06 -2.95392e+06 28905.6)
(71585.7 -240688 1.08422e+06)
(-1.04614e+06 -466886 -2.18574e+06)
(-400317 -749873 2.86977e+06)
(-1.3538e+06 -105798 -1.89474e+06)
(70490.1 700857 -2.37636e+06)
(758705 -1.14368e+06 -647064)
(500037 -69804.6 -2.09205e+06)
(592542 -2.827e+06 177775)
(293761 -1.04677e+06 -1.57251e+06)
(-1.23823e+06 1.47303e+06 -1.86782e+06)
(-3.6993e+06 -556874 31342.9)
(-1.68375e+06 761782 -1.24881e+06)
(-2.48159e+06 241043 -663567)
(-1.71565e+06 716471 -1.56219e+06)
(-2.08565e+06 1.04406e+06 -593377)
(-1.53398e+06 813534 -1.17179e+06)
(-1.14674e+06 -181711 -843021)
(-1.431e+06 287797 -1.87864e+06)
(-1.54523e+06 -1.39383e+06 -297003)
(3.23606e+06 -1.67278e+06 5.83325e+06)
(3.74218e+06 2.36934e+06 -2.40841e+06)
(2.96956e+06 4.31151e+06 -5.7573e+06)
(2.38057e+06 -3.27276e+06 507147)
(2.72507e+06 2.86005e+06 -4.75802e+06)
(3.2142e+06 -1.8235e+06 99472.7)
(2.97235e+06 477289 -1.95786e+06)
(5.37446e+06 -3.55963e+06 3.2084e+06)
(4.41655e+06 -4.66911e+06 826912)
(8.58472e+06 1.21751e+07 9.22275e+06)
(3.08767e+06 596476 -3.90265e+06)
(1.66111e+06 -1.40742e+06 2.3218e+06)
(2.62431e+06 -290549 1.56732e+06)
(2.00305e+06 1.26313e+06 -1.35351e+06)
(1.95953e+06 450362 -1.79736e+06)
(1.46999e+06 1.27694e+06 -3.3461e+06)
(1.8948e+06 -1.68313e+06 -793005)
(1.26641e+06 -306486 -2.34106e+06)
(1.13954e+06 -4.3185e+06 934747)
(600464 -4.57026e+06 -926030)
(2.23457e+06 -513921 285155)
(1.41744e+06 -277846 -2.32441e+06)
(421881 264461 -641913)
(81655.9 45593.4 -346383)
(65539.7 1.3939e+06 -2.19237e+06)
(267531 694506 -1.65467e+06)
(-414068 613892 -2.72148e+06)
(-631024 -840196 -1.34651e+06)
(-1.33663e+06 81842.4 -2.79163e+06)
(-2.41833e+06 -2.48084e+06 -594394)
(-2.16027e+06 -2.25017e+06 -6338.91)
(2.12976e+06 2.09169e+06 -2.83627e+06)
(-1.35717e+06 -25032.1 -1.25316e+06)
(-74420.7 1.41685e+06 -2.09823e+06)
(-1.32364e+06 658100 -1.33828e+06)
(-956427 1.14301e+06 -2.04962e+06)
(-1.13661e+06 1.00989e+06 -1.94926e+06)
(-1.48297e+06 1.20647e+06 -2.15876e+06)
(-1.837e+06 654618 -1.59021e+06)
(-2.49328e+06 1.39534e+06 -2.47384e+06)
(4.45481e+06 2.49484e+06 -728106)
(5.26115e+06 -1.11901e+06 979682)
(6.12729e+06 -1.1646e+06 734245)
(4.1552e+06 4.48801e+06 -5.85819e+06)
(4.86499e+06 -2.70571e+06 -232643)
(4.02526e+06 3.08838e+06 -5.65414e+06)
(5.45697e+06 -4.47677e+06 -176006)
(6.11491e+06 -3.14367e+06 -3.21961e+06)
(1.17023e+07 1.71687e+07 1.16096e+07)
(2.66058e+06 -1.05902e+07 -1.64201e+06)
(3.36028e+06 -1.74986e+06 2.29089e+06)
(4.86242e+06 -5.71097e+06 1.63072e+07)
(2.3654e+06 1.36538e+06 -908219)
(4.76418e+06 -750032 1.6902e+06)
(2.52931e+06 3.85598e+06 -5.07688e+06)
(2.8042e+06 -700815 -734971)
(1.06941e+06 1.43244e+06 -3.87542e+06)
(-422600 -3.768e+06 -915787)
(739278 -2.33412e+06 -3.3826e+06)
(4.44713e+06 1.17958e+07 8.20667e+06)
(2.96645e+06 332466 -2.046e+06)
(1.989e+06 384436 -77460.9)
(1.64801e+06 -2.84953e+06 1.11434e+07)
(1.18473e+06 1.63663e+06 -1.78607e+06)
(1.30702e+06 1.03511e+06 1.17142e+06)
(-135641 2.61042e+06 -2.3726e+06)
(-249153 1.27381e+06 -1.45016e+06)
(-1.81355e+06 1.44728e+06 -2.58032e+06)
(-3.00932e+06 840089 -1.3969e+06)
(-2.74872e+06 883020 -3.03399e+06)
(3.95604e+06 2.68799e+06 -2.65922e+06)
(462201 745525 -1.4249e+06)
(1.42546e+06 2.27274e+06 -2.74574e+06)
(-701172 1.47649e+06 -1.91124e+06)
(-131543 2.2803e+06 -1.89649e+06)
(-556817 2.31333e+06 -1.47768e+06)
(-850197 2.34861e+06 -1.96199e+06)
(-1.36761e+06 1.97628e+06 -1.62601e+06)
(-1.97072e+06 2.49196e+06 -1.99375e+06)
(-2.23009e+06 2.57357e+06 -1.40401e+06)
(4.63788e+06 -593798 315655)
(4.20153e+06 -554662 1.23803e+06)
(4.78767e+06 -1.88176e+06 286985)
(6.25266e+06 -2.71348e+06 -58481.4)
(3.93882e+06 8.47567e+06 -9.96109e+06)
(4.45757e+06 -3.72973e+06 -476080)
(3.10229e+06 3.32822e+06 -6.27686e+06)
(4.62908e+06 -5.95859e+06 -1.27464e+06)
(5.54406e+06 -2.99791e+06 -5.2239e+06)
(1.17096e+07 2.26068e+07 1.05693e+07)
(2.68539e+06 815197 -806517)
(3.8939e+06 -43367.6 -251843)
(4.20727e+06 -371822 966277)
(2.63977e+06 -1.69378e+06 717617)
(3.75166e+06 -1.76393e+06 741890)
(2.13076e+06 4.14027e+06 -5.21298e+06)
(1.7858e+06 -1.21197e+06 -129284)
(-172706 1.88276e+06 -3.55446e+06)
(-2.7005e+06 -3.85174e+06 9949.72)
(284392 -1.88541e+06 -3.52158e+06)
(3.70309e+06 2.18809e+06 -1.53237e+06)
(2.61538e+06 1.79838e+06 -1.13695e+06)
(2.41741e+06 1.32225e+06 -587291)
(2.35209e+06 703310 2.89293e+06)
(-640407 1.46179e+06 768631)
(411278 1.30336e+06 280683)
(-761017 2.85935e+06 -1.44397e+06)
(-1.06449e+06 1.48702e+06 -80152.8)
(-2.7438e+06 2.68009e+06 -1.2838e+06)
(-3.77546e+06 2.22111e+06 220390)
(2.34838e+06 1.892e+06 -420883)
(2.66536e+06 2.94732e+06 -1.25544e+06)
(1.79961e+06 2.67162e+06 -802544)
(949757 3.24063e+06 -1.36995e+06)
(-257960 3.30046e+06 -1.30324e+06)
(-318642 2.64562e+06 -927294)
(-888791 2.84564e+06 -612183)
(-1.48209e+06 2.95473e+06 -804169)
(-1.77996e+06 2.70404e+06 -316716)
(-2.32367e+06 3.06626e+06 -721138)
(3.23928e+06 166127 1.33485e+06)
(4.05437e+06 -35770 -843235)
(3.44393e+06 -487040 1.25717e+06)
(4.59884e+06 -1.87826e+06 59205.3)
(5.10443e+06 -1.77936e+06 394572)
(3.41615e+06 3.8384e+06 -6.15459e+06)
(3.00552e+06 -4.15365e+06 -421487)
(1.30027e+06 3.09611e+06 -5.99513e+06)
(1.0875e+06 -5.72658e+06 -1.40601e+06)
(1.39952e+06 -646952 -5.68302e+06)
(4.17556e+06 1.54779e+06 -1.66434e+06)
(2.64824e+06 320592 1.20943e+06)
(3.35936e+06 134520 -669819)
(2.44376e+06 -960748 1.2937e+06)
(2.23247e+06 -2.17089e+06 430868)
(3.15588e+06 -2.18744e+06 567017)
(1.61162e+06 3.46802e+06 -5.67788e+06)
(733668 -2.34903e+06 225000)
(-1.16785e+06 2.57083e+06 -4.35294e+06)
(-3.58022e+06 -3.53245e+06 656711)
(2.82978e+06 1.45969e+06 463122)
(3.07738e+06 1.91874e+06 -946043)
(1.87074e+06 829699 808855)
(2.039e+06 819195 -322898)
(1.19335e+06 -143180 1.25512e+06)
(37890.6 -466521 437137)
(594738 -1.00731e+06 759238)
(-641818 3.09419e+06 -3.84346e+06)
(-1.74804e+06 860752 562245)
(-2.79292e+06 3.14263e+06 -1.09885e+06)
(3.04399e+06 2.90293e+06 -399068)
(2.22823e+06 2.0342e+06 391291)
(1.95496e+06 2.28767e+06 -435573)
(1.25655e+06 1.83966e+06 461177)
(619164 2.08751e+06 -262390)
(-370222 2.19544e+06 435316)
(-1.18844e+06 2.61251e+06 -133653)
(-1.46629e+06 2.33221e+06 438011)
(-1.92242e+06 2.80418e+06 -299879)
(-2.05118e+06 2.31806e+06 560516)
)
;

boundaryField
{
    inlet
    {
        type            calculated;
        value           nonuniform 0();
    }
    outlet
    {
        type            calculated;
        value           nonuniform 0();
    }
    bottom
    {
        type            calculated;
        value           uniform (0 0 0);
    }
    top
    {
        type            symmetryPlane;
    }
    side1
    {
        type            symmetryPlane;
    }
    side2
    {
        type            symmetryPlane;
    }
    procBoundary1to0
    {
        type            processor;
        value           nonuniform List<vector> 
20
(
(1.34924e+06 -2.89195e+06 9.89635e+06)
(1.64975e+06 -2.38902e+06 -4.97954e+06)
(1.57352e+06 1.33711e+06 -3.03103e+06)
(-5.01463e+06 -3.40205e+06 2.62889e+06)
(2.80748e+06 531150 -3.03632e+06)
(2.2193e+06 -2.57715e+06 6.24635e+06)
(1.21029e+06 -2.28884e+06 -1.93768e+06)
(3.93599e+06 2.92318e+06 -3.88883e+06)
(3.77921e+06 -1.30681e+06 5.12546e+06)
(3.26897e+06 -697735 -2.70863e+06)
(4.88141e+06 1.55776e+06 -3.23271e+06)
(-71580.2 -794338 -25055.6)
(4.08408e+06 312855 -85219.7)
(4.20023e+06 1.51353e+06 -1.27765e+06)
(2.94659e+06 1.18225e+06 -683830)
(4.51953e+06 3.11699e+06 -1.1243e+06)
(4.42551e+06 523500 -1.91744e+06)
(3.68627e+06 905184 673329)
(4.4141e+06 2.81459e+06 -1.28646e+06)
(2.77799e+06 2.55168e+06 548516)
)
;
    }
    procBoundary1to2
    {
        type            processor;
        value           nonuniform List<vector> 
20
(
(6.20387e+06 7.27814e+06 6.64715e+06)
(1.45576e+06 -5.02575e+06 -3905.73)
(-266120 -3.28724e+06 414121)
(-1.94181e+06 -44019.6 -1.80316e+06)
(1.75022e+06 -1.04565e+07 -218328)
(5.03979e+06 1.16229e+07 7.32399e+06)
(-2.21566e+06 -1.91254e+06 -2.05165e+06)
(-3.09049e+06 949578 -1.23501e+06)
(8.27746e+06 1.63461e+07 9.62052e+06)
(-933919 -2.65245e+06 -3.1197e+06)
(-2.61081e+06 2.81012e+06 58838.6)
(-2.88679e+06 2.81808e+06 -1.82569e+06)
(214680 -1.09479e+07 -1.85368e+06)
(4.04759e+06 1.40445e+07 8.03887e+06)
(-3.18873e+06 2.71773e+06 -1.50176e+06)
(-2.38725e+06 3.5161e+06 -215510)
(3.6813e+06 1.25646e+07 6.29771e+06)
(-1.73544e+06 645377 -4.24199e+06)
(-3.0635e+06 1.65637e+06 1.16092e+06)
(-2.5378e+06 2.7834e+06 -144274)
)
;
    }
    procBoundary1to9
    {
        type            processor;
        value           nonuniform List<vector> 
50
(
(-4.27588e+06 -734840 592723)
(-2.67499e+06 736309 -1.04723e+06)
(-2.93546e+06 239098 -83661.3)
(-2.4236e+06 776594 -1.05636e+06)
(-2.29726e+06 900275 -510367)
(-2.02686e+06 1.11455e+06 -825172)
(-1.80623e+06 1.13313e+06 -415798)
(-1.83481e+06 1.09146e+06 -801888)
(-1.91466e+06 1.08157e+06 -475417)
(-2.24903e+06 1.31559e+06 -1.10487e+06)
(907670 3.15046e+06 -2.68115e+06)
(-3.67598e+06 -140054 -535656)
(-734193 2.13647e+06 -2.08711e+06)
(-1.94106e+06 1.03484e+06 -1.08058e+06)
(-1.2751e+06 1.6761e+06 -1.8528e+06)
(-1.57318e+06 1.40118e+06 -1.23638e+06)
(-1.58174e+06 1.58518e+06 -1.65714e+06)
(-1.6929e+06 1.70765e+06 -1.26164e+06)
(-1.90583e+06 1.93602e+06 -1.46449e+06)
(-2.1428e+06 1.83558e+06 -1.10037e+06)
(-1.79837e+06 -192989 297572)
(2.52916e+06 3.05268e+06 -2.36823e+06)
(-416009 1.56449e+06 -1.44688e+06)
(89007.4 2.45864e+06 -2.09271e+06)
(-824348 2.14396e+06 -1.48367e+06)
(-657610 2.48906e+06 -1.75586e+06)
(-1.05802e+06 2.56615e+06 -1.35253e+06)
(-1.31072e+06 2.56633e+06 -1.59704e+06)
(-1.62418e+06 2.63033e+06 -1.27136e+06)
(-1.95989e+06 2.63434e+06 -1.54059e+06)
(2.9825e+06 3.61771e+06 -1.21355e+06)
(1.25643e+06 2.46222e+06 -627483)
(1.61058e+06 3.32341e+06 -1.19454e+06)
(-131891 3.47343e+06 -574337)
(489313 3.02166e+06 -1.03986e+06)
(-342530 2.95662e+06 -613450)
(-702629 2.96768e+06 -933234)
(-1.02416e+06 2.89769e+06 -517321)
(-1.40157e+06 2.90844e+06 -862316)
(-1.68562e+06 3.00661e+06 -430975)
(1.84888e+06 3.06084e+06 263700)
(1.52247e+06 3.24002e+06 -263275)
(1.05978e+06 3.00688e+06 299841)
(564874 2.9149e+06 -169567)
(123275 2.98509e+06 186443)
(-390458 2.96589e+06 -356519)
(-688845 3.08707e+06 166767)
(-1.085e+06 3.02459e+06 -358579)
(-1.30057e+06 3.08232e+06 190323)
(-1.64419e+06 3.09772e+06 -337905)
)
;
    }
}


// ************************************************************************* //
