/*--------------------------------*- C++ -*----------------------------------*\
| =========                 |                                                 |
| \\      /  F ield         | OpenFOAM: The Open Source CFD Toolbox           |
|  \\    /   O peration     | Version:  2.4.0                                 |
|   \\  /    A nd           | Web:      www.OpenFOAM.org                      |
|    \\/     M anipulation  |                                                 |
\*---------------------------------------------------------------------------*/
FoamFile
{
    version     2.0;
    format      ascii;
    class       volScalarField;
    location    "0.01";
    object      alpha;
}
// * * * * * * * * * * * * * * * * * * * * * * * * * * * * * * * * * * * * * //

dimensions      [0 0 0 0 0 0 0];

internalField   nonuniform List<scalar> 
200
(
8.21716e-34
5.59708e-36
3.70818e-38
2.39697e-40
1.51565e-42
9.39575e-45
5.72116e-47
3.4274e-49
2.02297e-51
1.17784e-53
4.54974e-36
3.24475e-38
2.24554e-40
1.51301e-42
9.95316e-45
6.40799e-47
4.04595e-49
2.50975e-51
1.53188e-53
9.21262e-56
2.11196e-38
1.57417e-40
1.13619e-42
7.9686e-45
5.4466e-47
3.63738e-49
2.37863e-51
1.52606e-53
9.6216e-56
5.97013e-58
8.54233e-41
6.64285e-43
4.99292e-45
3.64015e-47
2.58215e-49
1.78687e-51
1.20909e-53
8.01591e-56
5.21609e-58
3.33662e-60
7.08209e-36
5.05234e-38
3.49855e-40
2.35922e-42
1.55358e-44
1.00138e-46
6.33061e-49
3.93211e-51
2.40323e-53
1.44718e-55
4.10703e-38
3.06131e-40
2.21012e-42
1.55078e-44
1.0607e-46
7.08987e-49
4.64118e-51
2.98111e-53
1.8819e-55
1.16923e-57
1.99268e-40
1.54941e-42
1.1646e-44
8.49221e-47
6.02615e-49
4.17239e-51
2.82524e-53
1.87464e-55
1.22104e-57
7.8191e-60
8.40854e-43
6.80937e-45
5.32132e-47
4.02768e-49
2.96206e-51
2.12242e-53
1.48528e-55
1.01726e-57
6.83138e-60
4.50538e-62
3.20606e-38
2.39087e-40
1.72738e-42
1.21326e-44
8.30822e-47
5.56066e-49
3.64526e-51
2.34484e-53
1.48242e-55
9.22375e-58
1.94358e-40
1.5115e-42
1.13655e-44
8.29283e-47
5.88961e-49
4.08206e-51
2.76736e-53
1.83865e-55
1.19928e-57
7.69087e-60
9.83922e-43
7.96815e-45
6.22789e-47
4.71541e-49
3.46959e-51
2.48778e-53
1.74244e-55
1.19458e-57
8.0311e-60
5.30303e-62
4.32454e-45
3.64166e-47
2.9549e-49
2.31907e-51
1.76618e-53
1.30901e-55
9.46471e-58
6.69073e-60
4.63305e-62
3.14783e-64
1.01228e-40
7.87648e-43
5.92734e-45
4.32941e-47
3.07856e-49
2.13666e-51
1.45063e-53
9.65256e-56
6.30554e-58
4.04974e-60
6.40303e-43
5.18654e-45
4.05556e-47
3.0727e-49
2.26289e-51
1.6243e-53
1.13906e-55
7.81981e-58
5.2648e-60
3.48161e-62
3.3764e-45
2.84341e-47
2.30765e-49
1.81177e-51
1.38058e-53
1.02396e-55
7.41032e-58
5.2439e-60
3.63538e-62
2.47309e-64
1.5433e-47
1.34945e-49
1.1354e-51
9.22823e-54
7.2698e-56
5.56711e-58
4.15478e-60
3.02863e-62
2.16059e-64
1.51105e-66
2.5072e-43
2.03216e-45
1.59048e-47
1.20642e-49
8.89668e-52
6.39549e-54
4.49197e-56
3.08876e-58
2.08293e-60
1.37964e-62
1.65203e-45
1.3917e-47
1.13008e-49
8.87932e-52
6.77286e-54
5.02931e-56
3.64456e-58
2.58284e-60
1.79335e-62
1.22194e-64
9.06027e-48
7.92351e-50
6.66871e-52
5.4227e-54
4.27467e-56
3.27621e-58
2.4475e-60
1.78614e-62
1.27582e-64
8.93481e-67
4.30082e-50
3.89988e-52
3.39848e-54
2.85744e-56
2.32607e-58
1.83875e-60
1.41518e-62
1.06288e-64
7.80569e-67
5.6152e-69
)
;

boundaryField
{
    inlet
    {
        type            zeroGradient;
    }
    outlet
    {
        type            zeroGradient;
    }
    bottom
    {
        type            fixedValue;
        value           uniform 0;
    }
    top
    {
        type            symmetryPlane;
    }
    side1
    {
        type            symmetryPlane;
    }
    side2
    {
        type            symmetryPlane;
    }
    procBoundary13to5
    {
        type            processor;
        value           nonuniform List<scalar> 
50
(
1.16989e-31
7.59547e-34
4.80814e-36
2.97611e-38
1.80552e-40
1.07577e-42
6.30583e-45
3.64187e-47
2.07502e-49
1.1677e-51
9.60598e-34
6.54694e-36
4.34076e-38
2.80831e-40
1.7774e-42
1.10289e-44
6.72197e-47
4.03064e-49
2.38107e-51
1.38748e-53
4.15175e-36
2.96409e-38
2.0544e-40
1.38679e-42
9.14203e-45
5.89912e-47
3.73341e-49
2.32135e-51
1.42019e-53
8.56028e-56
1.25406e-38
9.35964e-41
6.7688e-43
4.75929e-45
3.26277e-47
2.18625e-49
1.4348e-51
9.2395e-54
5.84732e-56
3.64183e-58
2.97678e-41
2.31839e-43
1.74657e-45
1.27723e-47
9.09332e-50
6.31904e-52
4.2954e-54
2.86157e-56
1.87144e-58
1.20323e-60
)
;
    }
    procBoundary13to12
    {
        type            processor;
        value           nonuniform List<scalar> 
20
(
1.1695e-31
6.16883e-34
2.73367e-36
1.05767e-38
9.6026e-34
5.31715e-36
2.46791e-38
9.98027e-41
4.15022e-36
2.40726e-38
1.168e-40
4.92837e-43
1.25358e-38
7.60121e-41
3.84824e-43
1.69134e-45
2.97559e-41
1.88279e-43
9.92953e-46
4.53893e-48
)
;
    }
    procBoundary13to14
    {
        type            processor;
        value           nonuniform List<scalar> 
20
(
6.4584e-56
5.2542e-58
3.54157e-60
2.05409e-62
8.19312e-58
6.87874e-60
4.78055e-62
2.85622e-64
5.38694e-60
4.66354e-62
3.33905e-64
2.05357e-66
2.43768e-62
2.1741e-64
1.60237e-66
1.01364e-68
8.55233e-65
7.85203e-67
5.95292e-69
3.87066e-71
)
;
    }
    procBoundary13to21
    {
        type            processor;
        value           nonuniform List<scalar> 
50
(
2.99649e-43
2.413e-45
1.87912e-47
1.41946e-49
1.04289e-51
7.47051e-54
5.22873e-56
3.58268e-58
2.40731e-60
1.58862e-62
3.06982e-45
2.57018e-47
2.07796e-49
1.62739e-51
1.23807e-53
9.1724e-56
6.63245e-58
4.6901e-60
3.24921e-62
2.20872e-64
1.64086e-47
1.42642e-49
1.1958e-51
9.69853e-54
7.63203e-56
5.84224e-58
4.36036e-60
3.17951e-62
2.26928e-64
1.58785e-66
6.07732e-50
5.47809e-52
4.75599e-54
3.99005e-56
3.24433e-58
2.56347e-60
1.97294e-62
1.48217e-64
1.08892e-66
7.83672e-69
1.75552e-52
1.63891e-54
1.47195e-56
1.27608e-58
1.07109e-60
8.72794e-63
6.92119e-65
5.35271e-67
4.04512e-69
2.99221e-71
)
;
    }
}


// ************************************************************************* //
