/*--------------------------------*- C++ -*----------------------------------*\
| =========                 |                                                 |
| \\      /  F ield         | OpenFOAM: The Open Source CFD Toolbox           |
|  \\    /   O peration     | Version:  2.4.0                                 |
|   \\  /    A nd           | Web:      www.OpenFOAM.org                      |
|    \\/     M anipulation  |                                                 |
\*---------------------------------------------------------------------------*/
FoamFile
{
    version     2.0;
    format      ascii;
    class       surfaceScalarField;
    location    "0.01";
    object      phib;
}
// * * * * * * * * * * * * * * * * * * * * * * * * * * * * * * * * * * * * * //

dimensions      [0 3 -1 0 0 0 0];

internalField   nonuniform List<scalar> 
82
(
3558.35
478.026
-275.557
3158.91
630.434
-230.772
2584.12
879.215
-304.333
1552.65
1259.26
-227.715
433.12
8.12141
2475.15
212.004
-52.0925
3012.85
231.93
-139.111
3531.02
590.833
-229.69
3728.05
1166.72
-104.445
928.766
-116.6
962.243
293.263
-42.5084
928.776
316.623
-51.1959
1230.35
386.554
-97.2946
2042.76
462.836
-108.631
782.09
-140.02
517.474
-55.3054
475.103
-73.0633
436.701
-74.3556
463.599
-48.4445
-29.6502
4604.53
498.117
4023.52
650.376
3364.37
690.746
2784.08
615.238
496.821
1682.81
273.879
1970.41
320.559
2331.67
334.938
2883.47
188.161
395.243
1185.15
399.194
1151.42
396.888
1072.25
477.215
904.472
356.373
324.681
886.928
790.012
756.919
639.177
)
;

boundaryField
{
    inlet
    {
        type            fixedValue;
        value           nonuniform 0();
    }
    outlet
    {
        type            calculated;
        value           nonuniform 0();
    }
    bottom
    {
        type            fixedValue;
        value           uniform 0;
    }
    top
    {
        type            symmetryPlane;
        value           nonuniform 0();
    }
    side1
    {
        type            symmetryPlane;
        value           uniform 0;
    }
    side2
    {
        type            symmetryPlane;
        value           nonuniform 0();
    }
    procBoundary13to12
    {
        type            processor;
        value           nonuniform List<scalar> 8(-3758.52 -2156.23 -1000.71 -550.192 -5201.59 -1488.91 -1281.64 -946.116);
    }
    procBoundary13to14
    {
        type            processor;
        value           nonuniform List<scalar> 8(1111.29 3347.89 2327.21 693.396 2521.6 3243.63 917.904 465.07);
    }
    procBoundary13to29
    {
        type            processor;
        value           nonuniform List<scalar> 10(381.45 432.062 499.257 484.239 580.015 511.871 517.743 515.079 500.381 540.648);
    }
    procBoundary13to77
    {
        type            processor;
        value           nonuniform List<scalar> 
20
(
-171.665
-299.724
-335.709
-262.58
-226.678
-20.9043
-96.7474
-235.071
-229.217
-377.153
-70.8318
-93.7516
-160.396
-109.143
-83.3213
-108.426
-96.9445
-79.1509
-74.8078
-72.0133
)
;
    }
}


// ************************************************************************* //
