/*--------------------------------*- C++ -*----------------------------------*\
| =========                 |                                                 |
| \\      /  F ield         | OpenFOAM: The Open Source CFD Toolbox           |
|  \\    /   O peration     | Version:  2.4.0                                 |
|   \\  /    A nd           | Web:      www.OpenFOAM.org                      |
|    \\/     M anipulation  |                                                 |
\*---------------------------------------------------------------------------*/
FoamFile
{
    version     2.0;
    format      ascii;
    class       volVectorField;
    location    "0.01";
    object      Ur;
}
// * * * * * * * * * * * * * * * * * * * * * * * * * * * * * * * * * * * * * //

dimensions      [0 1 -1 0 0 0 0];

internalField   nonuniform List<vector> 
40
(
(-1.46761e+09 -2.63417e+08 1.53338e+08)
(-1.35573e+09 -2.88418e+08 1.54876e+08)
(-1.21919e+09 -3.66008e+08 1.98089e+08)
(-7.1792e+08 -4.65734e+08 8.78871e+07)
(-5.42475e+08 -1.71913e+08 -4.00559e+07)
(-9.45214e+08 -2.68727e+08 3.63851e+07)
(-1.09288e+09 -3.56503e+08 1.00571e+08)
(-1.33256e+09 -6.87772e+08 1.43648e+08)
(-1.46192e+09 -1.06947e+09 -1.40065e+07)
(-1.39115e+09 -4.74516e+08 7.87461e+07)
(-3.97643e+08 -1.92195e+08 2.12235e+07)
(-3.6647e+08 -2.09863e+08 3.66852e+07)
(-4.31248e+08 -3.53892e+08 6.44709e+07)
(-6.65061e+08 -6.27768e+08 7.48513e+07)
(-9.00071e+08 -7.40991e+08 9.11728e+07)
(-2.12104e+08 -2.71367e+08 3.68266e+07)
(-1.99285e+08 -2.9536e+08 4.93004e+07)
(-1.79201e+08 -3.36917e+08 4.86648e+07)
(-1.8088e+08 -3.68845e+08 2.99386e+07)
(-2.45027e+08 -5.50414e+08 1.80217e+07)
(-1.8905e+09 -3.27743e+08 4.00802e+08)
(-1.77176e+09 -3.12361e+08 3.27223e+08)
(-1.48458e+09 -3.07008e+08 4.12914e+08)
(-1.21586e+09 -2.63895e+08 3.29359e+08)
(-1.06466e+09 -1.85337e+08 1.48708e+08)
(-6.28725e+08 -2.85311e+08 5.55286e+07)
(-7.17194e+08 -3.90361e+08 1.58302e+08)
(-8.8957e+08 -4.12095e+08 3.01494e+08)
(-1.04015e+09 -3.28628e+08 2.36812e+08)
(-1.2813e+09 -3.65998e+08 3.47166e+08)
(-4.82573e+08 -2.54203e+08 8.49019e+07)
(-4.62047e+08 -2.77807e+08 9.47839e+07)
(-4.6333e+08 -3.22922e+08 1.70884e+08)
(-3.81428e+08 -2.13725e+08 1.44263e+08)
(-3.68236e+08 -2.9991e+08 1.48687e+08)
(-3.66954e+08 -3.68046e+08 1.06942e+08)
(-3.32826e+08 -3.67091e+08 1.12445e+08)
(-3.06012e+08 -3.93156e+08 1.00511e+08)
(-2.8585e+08 -3.37825e+08 8.20933e+07)
(-2.13884e+08 -3.39599e+08 6.35513e+07)
)
;

boundaryField
{
    inlet
    {
        type            calculated;
        value           nonuniform 0();
    }
    outlet
    {
        type            calculated;
        value           nonuniform 0();
    }
    bottom
    {
        type            calculated;
        value           uniform (0 0 0);
    }
    top
    {
        type            symmetryPlane;
    }
    side1
    {
        type            symmetryPlane;
    }
    side2
    {
        type            symmetryPlane;
    }
    procBoundary13to12
    {
        type            processor;
        value           nonuniform List<vector> 8((-1.53418e+09 -1.03792e+08 9.09443e+07) (-8.66966e+08 -1.98706e+08 4.98945e+07) (-4.08568e+08 -2.50616e+08 1.38705e+07) (-2.10678e+08 -2.80678e+08 3.04688e+07) (-2.09618e+09 -1.39509e+08 5.01233e+08) (-6.528e+08 -2.02278e+08 7.05321e+07) (-5.51209e+08 -3.44564e+08 1.66064e+07) (-3.79014e+08 -4.4441e+08 1.31222e+08));
    }
    procBoundary13to14
    {
        type            processor;
        value           nonuniform List<vector> 8((-3.94983e+08 -1.60818e+08 -2.74229e+06) (-1.32634e+09 -4.70375e+08 2.24723e+08) (-8.37033e+08 -7.90965e+08 8.11856e+07) (-2.45636e+08 -1.01165e+09 -6.40262e+06) (-1.03165e+09 -2.22151e+07 1.67631e+08) (-1.16132e+09 -4.48647e+08 5.56636e+08) (-4.54586e+08 -5.37719e+08 1.54633e+08) (-1.87244e+08 -3.40153e+08 4.12595e+07));
    }
    procBoundary13to29
    {
        type            processor;
        value           nonuniform List<vector> 10((-1.47016e+08 -3.81417e+08 6.16821e+07) (-1.09308e+08 -4.05338e+08 4.68223e+07) (-9.02527e+07 -4.44086e+08 3.67852e+07) (-5.97396e+07 -4.19045e+08 3.17767e+07) (-5.69021e+07 -4.87383e+08 2.89251e+07) (-2.74064e+08 -5.02322e+08 2.05758e+08) (-2.18297e+08 -4.90331e+08 1.21432e+08) (-1.74983e+08 -4.55223e+08 1.1572e+08) (-1.71209e+08 -4.35947e+08 1.18047e+08) (-1.65777e+08 -4.52605e+08 9.30766e+07));
    }
    procBoundary13to77
    {
        type            processor;
        value           nonuniform List<vector> 
20
(
(-2.58904e+09 -2.29271e+08 1.58031e+08)
(-2.24356e+09 -3.91024e+08 4.79459e+08)
(-2.09101e+09 -2.57469e+08 4.29859e+08)
(-1.78605e+09 -1.88431e+08 2.83696e+08)
(-1.60491e+09 -1.61516e+08 2.19991e+08)
(-6.09664e+08 -2.21561e+08 6.39547e+06)
(-6.633e+08 -3.63916e+08 8.83256e+07)
(-8.10567e+08 -3.81311e+08 2.5249e+08)
(-9.17049e+08 -2.73932e+08 3.05306e+08)
(-9.88187e+08 -2.37838e+08 3.95605e+08)
(-4.31579e+08 -2.05682e+08 4.97172e+07)
(-3.98673e+08 -2.11325e+08 8.00606e+07)
(-3.41624e+08 -2.81692e+08 1.62751e+08)
(-3.09436e+08 -1.78672e+08 1.25514e+08)
(-2.44921e+08 -1.28789e+08 8.88892e+07)
(-4.16772e+08 -4.2152e+08 7.70238e+07)
(-2.78355e+08 -2.71589e+08 8.11297e+07)
(-2.05483e+08 -3.22068e+08 8.33099e+07)
(-1.69439e+08 -2.79007e+08 9.19593e+07)
(-1.23053e+08 -1.72723e+08 7.3383e+07)
)
;
    }
}


// ************************************************************************* //
