/*--------------------------------*- C++ -*----------------------------------*\
| =========                 |                                                 |
| \\      /  F ield         | OpenFOAM: The Open Source CFD Toolbox           |
|  \\    /   O peration     | Version:  2.4.0                                 |
|   \\  /    A nd           | Web:      www.OpenFOAM.org                      |
|    \\/     M anipulation  |                                                 |
\*---------------------------------------------------------------------------*/
FoamFile
{
    version     2.0;
    format      ascii;
    class       volVectorField;
    location    "0.01";
    object      Ur;
}
// * * * * * * * * * * * * * * * * * * * * * * * * * * * * * * * * * * * * * //

dimensions      [0 1 -1 0 0 0 0];

internalField   nonuniform List<vector> 
200
(
(-8.45027 0.835493 -0.912599)
(-7.85737 0.37123 -1.98748)
(-3.83263 1.23614 -2.17676)
(-4.68732 8.24104 9.05064)
(-2.4989 1.63025 0.909999)
(-1.611 0.387627 -1.56256)
(-1.31085 1.89628 -1.75864)
(-3.91316 4.76486 -1.86097)
(-2.59016 -4.27786 1.24062)
(-2.75638 -6.4339 -2.5984)
(-4.20202 -0.715838 -0.017971)
(-4.93796 0.434578 -1.10754)
(-4.98585 1.58932 -1.30068)
(-4.00911 0.929522 -0.129831)
(-2.78078 0.634809 2.90021)
(-1.53542 1.36403 -0.805203)
(-0.510521 0.914411 -0.443541)
(0.0170967 -0.0616849 -0.462529)
(0.125141 0.762437 6.59803)
(-3.72029 1.96603 0.746969)
(-1.96485 1.86323 0.481692)
(-2.55422 1.70767 -0.174497)
(-2.96603 1.16226 -1.60786)
(-4.11931 1.7258 -0.526287)
(-3.41766 1.35479 -0.53591)
(-2.34722 1.69825 0.290249)
(-1.00595 1.38399 2.34417)
(-2.4706 0.512655 -0.136261)
(-3.32745 0.140644 -0.748266)
(-3.37894 0.859754 -0.360402)
(-3.52754 1.09129 -0.650003)
(-5.01225 -0.0739901 -1.4578)
(-7.25411 3.582 -0.506358)
(-3.8379 1.12793 0.188547)
(-3.23602 0.445564 -0.234294)
(-2.89903 0.612165 -0.00691307)
(-2.86229 0.87149 -0.167233)
(-1.99941 2.1619 2.59085)
(-3.92695 -0.268912 -0.0457899)
(-3.53134 0.404978 -0.269834)
(-6.10875 1.77583 -2.40878)
(-5.27311 2.00917 -0.800381)
(-4.37972 3.76352 -4.96111)
(-3.91963 2.25551 -3.13855)
(-1.5729 3.32686 -11.7612)
(-2.13151 2.71156 -1.964)
(-8.41598 -8.8341 10.4882)
(1.85698 2.90389 6.58722)
(-4.27542 3.98245 -2.31713)
(-3.93695 3.44203 -3.55018)
(-3.53581 3.95355 0.563626)
(-4.21508 2.50809 0.0171242)
(-4.04455 2.3361 0.932694)
(-4.13093 3.14019 -4.57125)
(-2.59697 3.6216 -2.16949)
(-1.10107 4.21777 -19.9414)
(-1.44957 -0.662119 -1.4642)
(-4.17051 -2.53969 2.37894)
(-4.56916 1.69845 -1.14153)
(-5.70741 1.63036 -1.2173)
(-3.97469 1.32215 -1.92973)
(-3.04061 1.94667 0.578648)
(-4.15407 2.95348 4.04856)
(-3.95216 2.1582 0.807303)
(-2.86191 3.24837 -3.26263)
(-1.03152 -1.03441 -5.6097)
(-1.48175 -0.189703 -4.72508)
(-1.89239 -1.88904 10.8523)
(-4.90292 -0.470618 5.43554)
(-4.38002 0.740401 0.154465)
(1.19308 11.0156 25.0074)
(-6.12738 -4.70363 19.3373)
(-4.47675 0.536776 -0.551872)
(-3.16177 1.09823 -0.790702)
(-2.44197 1.45613 -1.8477)
(-2.81568 1.19809 -0.786797)
(-3.77473 0.675435 -0.830166)
(-3.66154 -1.64331 3.92805)
(-4.33355 0.268355 0.357343)
(-4.14856 0.770451 -1.02821)
(-1.70948 7.35571 2.13072)
(-0.69933 6.97314 -9.28562)
(-5.58969 5.08089 -5.55494)
(3.11367 -21.9615 -26.2127)
(-5.59872 -2.18983 -1.0149)
(-11.3958 -1.2981 2.77301)
(-6.92644 1.03616 0.858122)
(-13.0924 -17.3045 18.2187)
(0.105141 -3.09024 14.912)
(-2.68015 3.71108 -0.967555)
(-3.90244 2.90769 1.75296)
(-1.77094 8.97406 1.18138)
(-1.35997 -3.59348 -2.97565)
(-2.02384 1.26015 -0.395885)
(-5.53501 2.15234 -13.1747)
(-7.93754 2.94555 -2.2619)
(-11.0577 -6.64459 8.60234)
(0.11576 -6.6947 5.95593)
(-11.2919 -46.7773 42.1054)
(-4.74402 2.42823 1.26102)
(-4.79758 0.643402 1.49362)
(-4.18717 1.14142 2.41913)
(-1.8341 1.26488 1.5088)
(-3.27104 0.0875496 -1.57178)
(-2.29519 1.17354 -5.65199)
(-5.4984 5.79764 -1.24071)
(0.0846321 -11.7514 7.82936)
(-3.57226 -9.31853 8.07186)
(-4.3282 3.56919 -2.61386)
(-6.93833 1.02111 -1.22836)
(-3.98359 2.89054 -1.55216)
(-2.34359 1.72568 -0.201853)
(-2.03466 0.593412 0.946446)
(-2.10398 2.4835 -1.02548)
(-2.66511 1.36457 -0.500688)
(-1.30208 -2.7265 2.495)
(-0.0721147 -7.80766 3.83928)
(-5.20779 0.0495101 -1.45268)
(-5.59985 -1.5093 -1.02108)
(-4.47509 -1.7485 1.23072)
(-1.4952 4.4507 -2.45733)
(0.99337 4.18736 4.23702)
(-3.51132 -2.2484 -0.190679)
(-4.87025 1.33352 -0.345633)
(-8.29119 2.13551 -1.88005)
(-6.23538 1.06338 0.664497)
(-11.5735 -1.97298 2.77975)
(-5.1362 0.581065 1.07469)
(-3.72801 1.44758 0.835709)
(-2.86072 1.92465 0.359115)
(-2.83486 1.58167 0.294083)
(-4.94884 2.5679 0.612064)
(-4.42706 2.21416 0.157481)
(-5.45596 0.88982 -4.03366)
(-6.26186 1.01055 -0.346218)
(-7.14837 5.67923 -5.77822)
(-6.8499 1.08969 -0.89987)
(-10.0676 0.662521 -14.2904)
(-4.6049 4.02134 -4.04236)
(-2.61599 2.13119 -0.395166)
(-2.89436 16.4715 -0.640306)
(-3.65453 -0.555134 -0.248191)
(-8.85667 -0.595812 0.174114)
(-5.58912 2.46955 -0.421702)
(-12.1133 1.04861 -0.243082)
(-6.15837 1.3721 -1.08256)
(-5.04531 1.43224 -0.974045)
(-4.20562 2.10714 -0.940552)
(-2.9411 5.1208 -8.60607)
(-3.65294 1.42942 -1.47305)
(-1.53258 -4.44211 -0.838564)
(-9.58745 47.2509 0.829204)
(-6.83129 9.08165 -3.08248)
(-5.11942 1.31808 -0.38593)
(-4.62405 1.06672 0.634601)
(-3.48421 0.263997 0.1208)
(-3.87197 0.468865 -1.74019)
(-4.0007 0.995192 -1.39904)
(-3.94493 1.25115 -0.632698)
(-3.84664 1.36322 -0.720771)
(-4.18848 1.74699 -0.0858825)
(-2.75145 2.31072 -0.143122)
(-1.01912 11.4311 1.52269)
(-3.54316 1.18999 -1.28456)
(-3.77791 1.07863 -0.0222167)
(-4.86942 0.242122 -0.222405)
(-3.77038 4.46675 3.46761)
(-4.19517 1.91477 0.620635)
(-4.82909 1.42135 0.509729)
(-4.19208 1.11526 0.305015)
(-6.823 2.66033 0.017195)
(-5.1819 2.64883 -0.0346571)
(-3.36329 1.31401 -1.2926)
(-1.68516 2.22692 -1.431)
(-3.09939 2.07191 -3.74714)
(-4.80092 0.915789 0.210454)
(-4.42062 1.60343 -0.228244)
(-4.31344 1.49291 0.865158)
(-4.24028 0.64787 -0.457883)
(-7.42033 5.32137 0.101752)
(-2.76135 3.75615 0.178051)
(-3.51465 1.22208 -1.57264)
(-5.04529 0.9713 -1.01759)
(-6.34254 -0.0927161 0.477002)
(-4.97943 5.77907 -12.5657)
(-3.33119 1.62578 -2.19585)
(-4.08494 0.806185 0.155241)
(-3.84583 0.750869 0.257315)
(-4.23456 1.20637 0.416206)
(-4.11596 1.22696 0.100666)
(-7.89751 -5.15114 6.54173)
(-3.01948 6.42543 1.8504)
(-4.71547 3.81044 1.16197)
(-3.68521 1.16237 0.0530956)
(-3.66217 -7.83337 -5.84398)
(-4.03167 -0.581431 -1.1933)
(-3.96756 1.0279 0.117492)
(-4.05589 1.06779 0.0426903)
(-4.2267 0.866166 0.016456)
(-4.1763 0.976177 0.0456695)
)
;

boundaryField
{
    inlet
    {
        type            calculated;
        value           nonuniform 0();
    }
    outlet
    {
        type            calculated;
        value           nonuniform 0();
    }
    bottom
    {
        type            calculated;
        value           uniform (0 0 0);
    }
    top
    {
        type            symmetryPlane;
    }
    side1
    {
        type            symmetryPlane;
    }
    side2
    {
        type            symmetryPlane;
    }
    procBoundary13to5
    {
        type            processor;
        value           nonuniform List<vector> 
50
(
(-8.35128 -7.33566 -4.22061)
(-4.188 4.20303 -1.61208)
(-3.86231 7.61137 1.09063)
(-2.96962 0.944258 1.20632)
(-2.65026 -1.75501 -2.7109)
(-1.83145 -0.729288 -2.93301)
(-2.683 0.170753 -0.677764)
(-3.04004 0.329075 -2.14238)
(-3.32907 0.496111 -2.17214)
(-0.965845 -0.85424 -0.694289)
(-5.05044 2.46633 -3.0155)
(-4.88847 6.55396 -5.99415)
(-3.85264 1.57605 -3.72306)
(-2.89692 0.380532 -6.73718)
(-0.619897 2.85478 -5.2782)
(-4.20231 -3.76233 1.75716)
(8.02013 9.16034 -9.37365)
(-0.53374 6.66025 -5.06117)
(-0.989364 2.04978 -1.57797)
(-1.61167 0.986976 -0.580331)
(-2.17434 6.2534 -10.878)
(-4.34927 3.35266 -4.6375)
(-7.88079 -0.837516 -5.38582)
(-4.39944 1.72364 -1.20355)
(-1.7248 -13.5943 -18.4513)
(-3.4632 -0.751688 -13.1389)
(-7.61088 -5.14832 2.20754)
(-3.30412 -0.217278 2.7096)
(-1.8878 -0.292529 1.93274)
(-2.55104 -0.861355 -0.00640218)
(-2.52841 1.46557 -5.45979)
(-4.34204 1.27476 -3.13022)
(-2.95684 4.56853 -2.81949)
(-3.87139 -6.58194 -6.5698)
(-5.24338 0.605797 -0.524205)
(-8.62273 2.50053 1.17223)
(-5.43565 2.17864 1.00003)
(-5.28674 0.314681 1.90645)
(-4.88577 -0.203671 1.35157)
(-3.71311 -0.67618 0.52346)
(-1.08374 1.85216 -0.273144)
(-1.2999 8.99969 0.822833)
(-4.7506 -2.14396 0.245558)
(-5.19265 -0.823535 0.150601)
(-4.6152 0.318273 0.0493932)
(-4.86856 0.251961 0.403862)
(-4.36125 0.204718 0.886721)
(-5.22512 0.0848028 0.633886)
(-4.14366 -0.093735 0.444805)
(-4.67026 1.43098 0.906608)
)
;
    }
    procBoundary13to12
    {
        type            processor;
        value           nonuniform List<vector> 
20
(
(-3.50837 1.59681 -1.05534)
(-3.46575 -1.89683 -0.269171)
(-3.77723 1.28506 0.98189)
(-2.04208 2.73157 3.74636)
(-4.19531 1.92271 -0.975744)
(-3.57225 2.83083 -0.632067)
(-3.01545 -2.14587 -35.0295)
(-4.52782 1.93835 -5.29478)
(-2.5768 3.59327 -2.05975)
(-3.46971 2.77196 0.910918)
(-3.80242 1.80161 0.840151)
(-4.95419 -0.74162 -1.63964)
(-1.15004 1.35076 -0.0309035)
(-1.87174 7.67226 -0.110418)
(-2.33629 0.0888609 -1.58029)
(-7.04195 10.3141 -4.17392)
(-1.16749 -14.6652 -4.09251)
(-3.16266 2.84825 -0.506192)
(-5.46176 1.54157 -0.0165551)
(-4.80734 0.59938 0.0664414)
)
;
    }
    procBoundary13to14
    {
        type            processor;
        value           nonuniform List<vector> 
20
(
(-3.47586 1.87894 -0.942446)
(-3.36033 1.60377 -0.625444)
(-2.97605 1.6111 0.798052)
(-3.41017 0.272703 -0.324713)
(-3.95895 2.08575 -1.48631)
(-4.69284 1.37278 -0.328311)
(-4.49763 0.679027 -3.41044)
(-3.99397 0.728647 -0.80688)
(-3.47008 1.77933 -1.35192)
(-4.62031 1.95857 -1.15587)
(-5.57622 1.2551 -0.606834)
(-7.14713 -0.0332238 -1.54308)
(-3.43935 1.47303 0.257191)
(-3.58898 1.67149 -0.129298)
(-3.49269 1.43385 -0.342083)
(-3.03523 1.58619 -1.06197)
(-6.61483 3.80794 1.07494)
(-3.51857 2.13999 -0.190092)
(-3.67795 0.947107 0.0339512)
(-3.47856 0.706426 -0.185075)
)
;
    }
    procBoundary13to21
    {
        type            processor;
        value           nonuniform List<vector> 
50
(
(-3.61284 0.0540083 -0.343144)
(-3.48246 0.56693 0.396141)
(-2.22434 -1.25605 0.0211789)
(-2.00497 -0.910441 -0.619103)
(-2.67943 0.475165 -0.145492)
(-2.89999 0.884345 -0.244873)
(-3.22804 0.851865 -0.142241)
(-3.23403 0.0731318 -0.121923)
(-3.21555 0.353317 -0.178142)
(-3.37479 0.736639 -0.299035)
(-1.75311 -1.19732 1.17687)
(-4.5397 20.6511 -16.7343)
(-1.88111 -4.2016 -5.44645)
(-2.8793 0.277714 -0.185387)
(-3.18135 0.64351 -0.0698144)
(-3.22339 0.552002 0.394882)
(-3.3989 0.489694 -0.152736)
(-3.64855 0.343609 -0.260779)
(-3.92457 0.316451 -0.805581)
(-3.91643 0.681671 -0.454918)
(-3.01621 2.90651 -1.2888)
(-1.23814 5.87314 -0.759319)
(-3.53535 0.822545 -4.27513)
(-2.81559 0.733125 -1.22722)
(-2.67009 0.229 -0.24737)
(-2.51234 1.19602 0.668851)
(-3.33373 -1.92971 -1.43733)
(-4.61335 0.114474 -0.630197)
(-3.88341 0.778915 0.195995)
(-6.06721 -2.17685 0.163237)
(-8.31739 9.30997 1.46351)
(-2.95359 5.44302 -5.62165)
(-1.68102 -11.4883 2.80831)
(-0.893405 -7.35304 5.51843)
(-3.507 1.55431 0.118385)
(-3.40607 1.16351 -0.526751)
(-3.76311 1.71168 -0.494738)
(-3.36381 1.52694 -0.601394)
(-3.74183 1.19367 -0.614967)
(-2.80848 -0.266239 -1.51501)
(-3.69551 1.25102 -1.231)
(-13.1704 4.25075 30.5856)
(0.215096 -0.628385 1.37946)
(-3.26587 -1.51894 -2.4308)
(-2.8818 1.00986 0.302655)
(-4.70248 0.985304 0.255705)
(-4.10724 0.368084 0.273175)
(-4.03816 0.950484 0.00890825)
(-3.93104 1.01509 -0.0794789)
(-3.93265 0.972093 0.000829301)
)
;
    }
}


// ************************************************************************* //
