/*--------------------------------*- C++ -*----------------------------------*\
| =========                 |                                                 |
| \\      /  F ield         | OpenFOAM: The Open Source CFD Toolbox           |
|  \\    /   O peration     | Version:  2.4.0                                 |
|   \\  /    A nd           | Web:      www.OpenFOAM.org                      |
|    \\/     M anipulation  |                                                 |
\*---------------------------------------------------------------------------*/
FoamFile
{
    version     2.0;
    format      ascii;
    class       volVectorField;
    location    "0.04";
    object      A_Source;
}
// * * * * * * * * * * * * * * * * * * * * * * * * * * * * * * * * * * * * * //

dimensions      [1 -2 -2 0 0 0 0];

internalField   nonuniform List<vector> 
200
(
(3.74546e-06 -5.9908e-06 8.06095e-06)
(0.000399358 -0.000638767 0.000859495)
(0.037382 -0.0597919 0.0804532)
(2.90623 -4.64847 6.25475)
(168.633 -269.727 362.931)
(5550.27 -8877.58 11945.2)
(168.633 -269.727 362.931)
(2.90822 -4.64944 6.25531)
(0.140944 -0.110549 0.109557)
(3.05123 -1.49591 0.858163)
(2.17188e-08 -3.4726e-08 4.67292e-08)
(2.10401e-06 -3.36536e-06 4.5285e-06)
(0.000177232 -0.000283481 0.000381451)
(0.012246 -0.0195873 0.026356)
(0.621628 -0.994284 1.33786)
(17.5331 -28.0439 37.7345)
(0.621628 -0.994283 1.33786)
(0.0122556 -0.0195922 0.0263587)
(0.000615142 -0.000498073 0.000504653)
(0.0113152 -0.00554714 0.00318697)
(1.80643e-09 -7.54517e-10 1.07891e-09)
(8.13787e-09 -1.29807e-08 1.74687e-08)
(6.21934e-07 -9.94783e-07 1.3386e-06)
(3.87028e-05 -6.19048e-05 8.3298e-05)
(0.00174594 -0.0027926 0.00375758)
(0.0430808 -0.068907 0.0927178)
(0.00174592 -0.00279261 0.00375757)
(3.84412e-05 -6.23459e-05 8.32202e-05)
(1.99957e-06 -1.69431e-06 1.72769e-06)
(3.19884e-05 -1.5681e-05 9.0275e-06)
(1.48628e-07 -5.22003e-08 7.64968e-08)
(2.32532e-09 -8.46757e-10 1.23885e-09)
(1.83367e-09 -2.88212e-09 3.89919e-09)
(1.02171e-07 -1.62666e-07 2.19899e-07)
(4.14633e-06 -6.6041e-06 8.92367e-06)
(9.09084e-05 -0.000144856 0.000195652)
(4.14618e-06 -6.6043e-06 8.92362e-06)
(9.9138e-08 -1.6717e-07 2.19016e-07)
(5.34817e-09 -4.88077e-09 4.89072e-09)
(7.65121e-08 -3.73478e-08 2.16487e-08)
(1.86557e-08 -2.98055e-08 4.01083e-08)
(1.82436e-06 -2.91806e-06 3.92657e-06)
(0.000155655 -0.00024897 0.000335011)
(0.0109306 -0.0174833 0.023525)
(0.56671 -0.906443 1.21966)
(16.4514 -26.3137 35.4063)
(0.573468 -0.909753 1.22157)
(0.537597 -0.275544 0.171751)
(30.6967 -15.0418 8.63784)
(1023.55 -501.562 287.952)
(6.68212e-09 -2.52753e-09 3.63129e-09)
(1.06585e-08 -1.6911e-08 2.27607e-08)
(8.19317e-07 -1.3105e-06 1.76346e-06)
(5.18152e-05 -8.28781e-05 0.00011152)
(0.00238756 -0.00381887 0.00513851)
(0.0606412 -0.0969942 0.13051)
(0.00241965 -0.00383484 0.00514757)
(0.00227912 -0.00117945 0.000740457)
(0.113795 -0.0557316 0.032123)
(3.25913 -1.59623 0.919663)
(1.13355e-06 -4.02764e-07 5.83419e-07)
(1.75724e-08 -6.29235e-09 9.11737e-09)
(3.38025e-09 -5.13296e-09 6.91437e-09)
(1.8185e-07 -2.91017e-07 3.91484e-07)
(7.54043e-06 -1.20728e-05 1.62359e-05)
(0.000170062 -0.000272783 0.000366476)
(-4.38536e-06 -2.9531e-05 1.28306e-05)
(-0.00031012 -0.000462543 -8.82381e-05)
(0.000309879 -0.000174952 8.78463e-05)
(0.00808519 -0.00395741 0.00229166)
(0.000107993 -3.80086e-05 5.55812e-05)
(1.51992e-06 -5.33824e-07 7.823e-07)
(1.76443e-08 -6.19639e-09 9.09802e-09)
(7.05968e-10 -9.03917e-10 1.22842e-09)
(1.9864e-08 -3.17743e-08 4.28423e-08)
(4.01507e-07 -6.48455e-07 8.69645e-07)
(-1.07527e-07 -2.14422e-07 6.47654e-09)
(-3.01012e-06 -4.3431e-06 -8.5847e-07)
(6.43684e-07 -5.58112e-07 1.83596e-07)
(1.72579e-05 -8.41073e-06 4.92142e-06)
(1.12419e-08 -4.07775e-09 5.86817e-09)
(4.72378e-09 -7.32103e-09 9.85824e-09)
(3.55894e-07 -5.69179e-07 7.65908e-07)
(2.27963e-05 -3.64535e-05 4.90515e-05)
(0.00106796 -0.00170712 0.002297)
(0.0277745 -0.0443095 0.0596166)
(0.0103428 -0.0055945 0.00714695)
(0.734351 -0.307747 0.384092)
(43.6929 -18.3066 22.8542)
(1498.17 -627.673 783.759)
(2.89624e-06 -1.03306e-06 1.49065e-06)
(4.48055e-08 -1.60062e-08 2.3109e-08)
(2.61909e-09 -3.49837e-09 4.71835e-09)
(1.19707e-07 -1.92503e-07 2.58182e-07)
(5.03942e-06 -8.13887e-06 1.08837e-05)
(0.0001158 -0.000189824 0.000251021)
(1.03186e-05 -0.000182786 3.56536e-05)
(0.00453224 -0.0064445 0.00295204)
(0.368891 -0.154701 0.193082)
(11.096 -4.64799 5.80756)
(0.000550007 -0.00019563 0.000283074)
(7.73686e-06 -2.74903e-06 3.98213e-06)
(8.9419e-08 -3.22998e-08 4.61091e-08)
(-2.88076e-08 -4.46856e-08 -7.14164e-09)
(-2.58348e-06 -3.78853e-06 -7.03749e-07)
(-0.000184615 -0.000267988 -5.19858e-05)
(-0.00974505 -0.0140871 -0.00278111)
(-0.288856 -0.417596 -0.0824547)
(-0.00799145 -0.0148217 -0.00186321)
(0.0468068 -0.0199554 0.0245468)
(0.0581907 -0.0205236 0.0299488)
(0.000737111 -0.000259429 0.000379374)
(7.78118e-06 -2.73287e-06 4.00484e-06)
(7.1902e-08 -2.58848e-08 3.70978e-08)
(-2.97094e-08 -4.36445e-08 -8.23567e-09)
(-1.96154e-06 -2.80561e-06 -5.57699e-07)
(-9.30056e-05 -0.000133029 -2.65362e-05)
(-0.00244967 -0.00350768 -0.000699111)
(-8.68116e-05 -0.000135609 -2.32936e-05)
(0.000147705 -6.52174e-05 7.78008e-05)
(2.46899e-06 -8.82411e-07 1.27081e-06)
(3.82558e-08 -1.36851e-08 1.97059e-08)
(1.26915e-08 -6.16533e-09 7.43264e-09)
(1.6031e-06 -7.23954e-07 8.86049e-07)
(0.000201858 -8.68557e-05 0.000107694)
(0.023684 -0.00997949 0.0124492)
(2.49142 -1.04389 1.30466)
(221.892 -92.9435 116.193)
(15083.8 -6317.31 7898.43)
(603244 -252647 315881)
(0.000702771 -0.000250846 0.000361698)
(9.884e-06 -3.52557e-06 5.08726e-06)
(1.13186e-07 -4.31807e-08 5.8625e-08)
(-1.33703e-07 -2.32467e-07 -3.27731e-08)
(-1.10051e-05 -2.02478e-05 -2.56802e-06)
(-0.000698181 -0.00147466 -0.000139116)
(-0.026252 -0.0820807 -0.00183485)
(0.394877 -2.92428 0.55968)
(111.536 -46.806 58.4165)
(3827.46 -1603 2004.2)
(0.148262 -0.05279 0.0763054)
(0.00187706 -0.000667646 0.00096608)
(1.96807e-05 -7.21554e-06 1.01578e-05)
(-1.31433e-05 -1.93293e-05 -3.70113e-06)
(-0.00126352 -0.00182638 -0.000360016)
(-0.0998291 -0.144301 -0.0284561)
(-5.91588 -8.55133 -1.68699)
(-200.376 -289.651 -57.1625)
(-5.44428 -8.74887 -1.44004)
(14.0873 -6.08844 7.40077)
(17.6374 -6.23378 9.07739)
(0.198599 -0.0700453 0.102213)
(0.00188687 -0.000664095 0.000971114)
(1.57797e-05 -5.81878e-06 8.1571e-06)
(-1.32818e-05 -1.91963e-05 -3.7545e-06)
(-0.000952741 -0.0013627 -0.000271466)
(-0.0501626 -0.0718233 -0.0142988)
(-1.4861 -2.13009 -0.423782)
(-0.0486635 -0.0724481 -0.0135138)
(0.0392041 -0.0181257 0.0207594)
(-7.07123e-09 -7.13844e-09 8.44867e-09)
(-7.55925e-10 -2.52958e-10 2.28729e-10)
(-1.96874e-09 -2.93814e-09 -5.30455e-10)
(-1.90588e-07 -2.90174e-07 -5.21132e-08)
(-1.61851e-05 -2.51007e-05 -4.37133e-06)
(-0.00111781 -0.00179813 -0.000293952)
(-0.0547559 -0.0964234 -0.0133496)
(-1.16364 -3.04983 -0.156509)
(43.5976 -18.3786 22.7693)
(1497.29 -627.089 781.771)
(2.90275e-06 -1.03544e-06 1.4873e-06)
(4.21974e-08 -1.98697e-08 2.22277e-08)
(-3.16874e-07 -4.59049e-07 -8.9639e-08)
(-3.41928e-05 -4.94242e-05 -9.69463e-06)
(-0.00324112 -0.0046849 -0.000919707)
(-0.256027 -0.370076 -0.0727105)
(-15.1693 -21.9266 -4.31155)
(-513.708 -742.552 -146.13)
(-14.8002 -22.0812 -4.11898)
(10.8438 -5.0249 5.72116)
(0.000551135 -0.000196033 0.00028249)
(7.5427e-06 -3.06111e-06 3.91306e-06)
(-2.72642e-05 -3.95711e-05 -7.70962e-06)
(-0.00324101 -0.00468472 -0.000919679)
(-0.341342 -0.493393 -0.0969401)
(-30.3335 -43.8455 -8.62171)
(-2053.96 -2968.89 -584.279)
(-81263 -117462 -23135.5)
(-2053.96 -2968.9 -584.279)
(-30.6278 -44.3586 -8.6941)
(0.0582986 -0.0205616 0.0298933)
(0.000738643 -0.000259971 0.000378592)
(7.47963e-06 -3.19506e-06 3.90527e-06)
(-3.43189e-05 -4.91628e-05 -9.7138e-06)
(-0.00325823 -0.00466018 -0.000924561)
(-0.257244 -0.368319 -0.0730561)
(-15.2334 -21.834 -4.32978)
(-515.612 -739.806 -146.673)
(-15.2334 -21.8341 -4.32979)
(-0.260352 -0.373041 -0.0739024)
)
;

boundaryField
{
    inlet
    {
        type            zeroGradient;
    }
    outlet
    {
        type            zeroGradient;
    }
    bottom
    {
        type            zeroGradient;
    }
    top
    {
        type            symmetryPlane;
    }
    side1
    {
        type            symmetryPlane;
    }
    side2
    {
        type            symmetryPlane;
    }
    procBoundary31to23
    {
        type            processor;
        value           nonuniform List<vector> 
50
(
(0.000355415 -0.000568481 0.000764919)
(0.0421107 -0.0673555 0.0906301)
(4.43509 -7.09386 9.54514)
(394.126 -630.398 848.232)
(26687.3 -42686 57436.1)
(1.05586e+06 -1.68883e+06 2.27241e+06)
(26687.3 -42686 57436.1)
(394.361 -630.514 848.298)
(18.4366 -13.9571 13.477)
(480.199 -235.428 134.926)
(1.6073e-06 -2.57085e-06 3.45921e-06)
(0.000173163 -0.000276971 0.000372678)
(0.0164172 -0.0262591 0.0353329)
(1.29711 -2.0747 2.79161)
(76.8673 -122.948 165.432)
(2603.64 -4164.47 5603.5)
(77.6662 -123.34 165.657)
(72.4564 -36.9551 22.7741)
(4837.14 -2371.06 1358.37)
(193450 -94824.4 54323.6)
(3.90203e-09 -6.38049e-09 8.57808e-09)
(3.92121e-07 -6.27193e-07 8.43918e-07)
(3.37999e-05 -5.40617e-05 7.27423e-05)
(0.00240365 -0.00384456 0.00517301)
(0.126628 -0.202538 0.272523)
(3.7537 -6.00391 8.0785)
(0.129681 -0.204028 0.273402)
(0.243439 -0.121553 0.0743596)
(14.3006 -6.98682 4.09406)
(488.953 -238.995 139.609)
(-3.57828e-08 -9.91824e-09 1.00549e-08)
(6.69504e-10 -2.93763e-09 2.13171e-09)
(2.10504e-07 -2.00262e-07 1.38867e-07)
(1.36233e-05 -1.29515e-05 8.9823e-06)
(0.000647294 -0.000614696 0.000426583)
(0.0172293 -0.0162717 0.011331)
(0.0216669 -0.00942 0.011432)
(1.63851 -0.686308 0.85789)
(95.5209 -40.0072 50.0128)
(3185.71 -1334.27 1667.99)
(-9.64627e-06 -1.65301e-06 1.42904e-06)
(-4.39932e-07 -7.53989e-08 6.51321e-08)
(-9.994e-09 -2.55943e-09 1.87934e-09)
(4.96271e-08 -4.20942e-08 1.63355e-08)
(2.12377e-06 -1.85918e-06 6.97921e-07)
(4.84512e-05 -4.83395e-05 1.61991e-05)
(-0.00011251 -0.000331546 -1.09415e-05)
(0.000853781 -0.0103119 0.00171301)
(0.322488 -0.135443 0.168272)
(9.50681 -3.98165 4.96115)
)
;
    }
    procBoundary31to30
    {
        type            processor;
        value           nonuniform List<vector> 
20
(
(3.18704e-08 -5.09763e-08 6.86063e-08)
(6.27568e-10 -4.71583e-10 6.49645e-10)
(7.39152e-08 -2.62639e-08 3.80432e-08)
(7.04048e-06 -2.47791e-06 3.6235e-06)
(1.26281e-09 -6.61337e-10 9.27209e-10)
(2.82959e-07 -1.00929e-07 1.45632e-07)
(5.37301e-05 -1.9111e-05 2.76531e-05)
(0.00568422 -0.0020048 0.00292548)
(4.82446e-07 -1.72416e-07 2.483e-07)
(0.000137306 -4.90097e-05 7.06669e-05)
(0.028965 -0.0103133 0.0149073)
(3.44553 -1.21779 1.7733)
(0.000117065 -4.18584e-05 6.02496e-05)
(0.0370165 -0.0132219 0.0190511)
(8.78336 -3.1307 4.5205)
(1193.52 -422.73 614.265)
(4.82767e-07 -1.72936e-07 2.47849e-07)
(0.000137589 -4.91105e-05 7.05212e-05)
(0.0290187 -0.0103324 0.0148796)
(3.45122 -1.2198 1.77037)
)
;
    }
}


// ************************************************************************* //
