/*--------------------------------*- C++ -*----------------------------------*\
| =========                 |                                                 |
| \\      /  F ield         | OpenFOAM: The Open Source CFD Toolbox           |
|  \\    /   O peration     | Version:  2.4.0                                 |
|   \\  /    A nd           | Web:      www.OpenFOAM.org                      |
|    \\/     M anipulation  |                                                 |
\*---------------------------------------------------------------------------*/
FoamFile
{
    version     2.0;
    format      ascii;
    class       surfaceScalarField;
    location    "0.04";
    object      phia;
}
// * * * * * * * * * * * * * * * * * * * * * * * * * * * * * * * * * * * * * //

dimensions      [0 3 -1 0 0 0 0];

internalField   nonuniform List<scalar> 
490
(
-2.68152e-05
1.46798e-05
2.00861e-06
-2.20413e-05
1.4894e-05
2.17348e-06
2.2159e-08
1.55285e-05
2.72456e-06
1.8635e-05
1.88041e-05
5.71777e-06
1.87874e-05
1.891e-05
5.49527e-06
4.96041e-05
1.8894e-05
5.33818e-06
0.000111287
1.21997e-05
3.17615e-06
0.000142203
5.08869e-06
-9.82742e-08
0.000142231
-7.67943e-06
-9.91698e-08
-7.83668e-06
-1.0162e-07
1.87617e-05
1.88183e-05
3.88044e-06
1.87652e-05
1.88352e-05
4.3969e-06
1.8767e-05
1.88519e-05
4.34331e-06
1.87675e-05
1.88686e-05
4.29056e-06
1.87675e-05
1.88852e-05
4.24143e-06
1.87682e-05
1.88686e-05
4.2414e-06
2.06328e-05
1.88519e-05
4.24133e-06
8.14089e-05
1.84315e-05
4.08524e-06
0.000141047
5.6479e-06
-1.52903e-07
5.43859e-06
-2.10227e-07
1.87675e-05
1.87004e-05
3.89773e-06
1.87675e-05
1.87299e-05
4.24129e-06
1.87675e-05
1.87596e-05
4.24134e-06
1.87675e-05
1.87892e-05
4.24134e-06
1.87675e-05
1.88189e-05
4.24134e-06
1.87675e-05
1.87892e-05
4.24134e-06
1.87676e-05
1.87596e-05
4.24134e-06
1.88156e-05
1.87299e-05
4.24134e-06
1.90584e-05
1.869e-05
4.23681e-06
1.86182e-05
4.21836e-06
1.87675e-05
4.24128e-06
1.87675e-05
4.24134e-06
1.87675e-05
4.24134e-06
1.87675e-05
4.24134e-06
1.87675e-05
4.24134e-06
1.87675e-05
4.24134e-06
1.87675e-05
4.24134e-06
1.87675e-05
4.24134e-06
1.87675e-05
4.24134e-06
4.24134e-06
9.5985e-06
1.50743e-05
7.40591e-06
9.51947e-06
1.24913e-05
7.32674e-06
9.40976e-06
1.26726e-05
7.22642e-06
1.0239e-05
1.28705e-05
7.09741e-06
1.17539e-05
1.42221e-05
6.96052e-06
2.94476e-05
1.49481e-05
6.86157e-06
8.34767e-05
1.21771e-05
5.11504e-06
0.000120497
4.29088e-06
-1.61661e-06
0.000120543
-9.20873e-06
-1.60244e-06
-9.42052e-06
-1.62816e-06
1.40095e-05
2.22688e-05
2.87917e-06
1.76739e-05
1.80627e-05
5.55045e-06
1.80713e-05
1.83009e-05
5.40524e-06
1.85244e-05
1.85675e-05
5.23701e-06
1.87669e-05
1.88682e-05
5.25341e-06
1.87678e-05
1.88518e-05
5.29192e-06
2.04389e-05
1.88351e-05
4.79708e-06
6.26783e-05
1.82601e-05
7.12868e-07
0.000103671
4.7279e-06
-1.52444e-06
4.45211e-06
-1.59503e-06
1.64411e-05
2.03442e-05
1.77841e-06
1.87672e-05
1.87006e-05
2.82482e-06
1.87675e-05
1.873e-05
4.46045e-06
1.87675e-05
1.87596e-05
4.34646e-06
1.87675e-05
1.87892e-05
4.24159e-06
1.87675e-05
1.87596e-05
4.24152e-06
1.87676e-05
1.873e-05
4.24141e-06
1.88084e-05
1.87004e-05
4.04719e-06
1.90142e-05
1.86541e-05
9.91289e-07
1.85556e-05
9.09771e-07
1.87671e-05
2.47045e-06
1.87675e-05
4.24008e-06
1.87675e-05
4.24134e-06
1.87675e-05
4.24134e-06
1.87675e-05
4.24134e-06
1.87675e-05
4.24134e-06
1.87675e-05
4.24134e-06
1.87675e-05
4.24133e-06
1.87675e-05
4.2291e-06
4.17915e-06
9.55561e-06
1.81084e-05
7.33476e-06
9.41986e-06
7.1688e-06
7.23078e-06
9.24715e-06
7.01098e-06
7.09837e-06
9.24662e-06
6.8171e-06
6.92493e-06
9.41769e-06
7.30014e-06
7.09775e-06
7.53827e-06
7.70714e-06
7.22905e-06
-7.98198e-06
5.0609e-06
5.50875e-06
-2.14039e-05
-1.64177e-05
-2.91263e-06
-2.14328e-05
-1.61117e-05
-2.87251e-06
-1.64743e-05
-2.92558e-06
2.41225e-06
3.39959e-05
2.21231e-06
8.41076e-06
1.94402e-05
6.45628e-06
8.14269e-06
1.07813e-05
6.24999e-06
8.38717e-06
1.14306e-05
5.98604e-06
9.11412e-06
1.2997e-05
6.19968e-06
8.03788e-06
1.33356e-05
6.35321e-06
-6.35662e-06
1.22442e-05
4.90725e-06
-1.91057e-05
6.55947e-07
-2.59661e-06
-1.91465e-05
-1.42319e-05
-2.52832e-06
-1.48444e-05
-2.61273e-06
-6.42813e-06
3.749e-05
2.52331e-09
6.23193e-06
2.5336e-05
1.09199e-06
1.6057e-05
1.67903e-05
5.0585e-06
1.77439e-05
1.75776e-05
4.77414e-06
1.87645e-05
1.87574e-05
4.83315e-06
1.87651e-05
1.87287e-05
4.95844e-06
1.77017e-05
1.8699e-05
4.14955e-06
8.51771e-09
1.77077e-05
7.75666e-07
-1.70896e-05
2.55101e-06
-2.22634e-06
1.89866e-06
-2.35235e-06
6.76988e-06
3.50984e-07
1.87588e-05
2.24188e-06
1.87674e-05
4.45189e-06
1.87675e-05
4.3122e-06
1.87675e-05
4.24188e-06
1.87675e-05
4.24182e-06
1.87675e-05
4.24106e-06
1.87016e-05
3.04244e-06
1.83647e-05
1.12401e-06
1.0101e-06
9.42309e-06
1.80329e-05
8.10562e-06
9.24959e-06
7.00896e-06
8.04776e-06
9.02223e-06
6.81289e-06
7.96604e-06
9.02125e-06
6.56055e-06
6.9536e-06
9.24566e-06
6.81636e-06
7.1023e-06
5.88817e-06
7.01121e-06
3.29124e-06
-9.40302e-06
1.80272e-06
1.03795e-06
-2.1032e-05
-1.60939e-05
-2.86244e-06
-2.10457e-05
-1.56612e-05
-2.79786e-06
-1.61186e-05
-2.86684e-06
2.25882e-06
3.39753e-05
5.14826e-06
8.14173e-06
2.07439e-05
7.62278e-06
7.79902e-06
6.01233e-06
7.48536e-06
7.79811e-06
5.66482e-06
6.01898e-06
8.14035e-06
6.09449e-06
6.25537e-06
5.23841e-06
6.44584e-06
2.91458e-06
-8.32973e-06
1.91812e-06
9.50269e-07
-1.85168e-05
-1.43626e-05
-2.51788e-06
-1.85339e-05
-1.37798e-05
-2.41696e-06
-1.43933e-05
-2.52334e-06
-8.75936e-06
3.9194e-05
6.30398e-09
-2.54859e-07
3.61653e-05
3.9955e-06
6.85696e-06
7.60539e-06
7.08789e-06
6.95121e-06
8.39183e-06
5.30445e-06
7.52028e-06
1.22309e-05
5.57544e-06
5.16538e-06
1.24485e-05
2.59851e-06
-7.18812e-06
1.03423e-05
8.79221e-07
-1.65329e-05
-3.3668e-06
-2.246e-06
-1.65539e-05
-1.22582e-05
-2.12631e-06
-1.29658e-05
-2.25256e-06
-9.45519e-06
3.04956e-09
6.77537e-07
2.10666e-06
1.12662e-05
6.61718e-06
1.54746e-05
4.60245e-06
1.87511e-05
4.24235e-06
1.87525e-05
4.18847e-06
1.22928e-05
1.15057e-06
-4.31296e-06
-6.08797e-08
-1.49296e-05
-1.89375e-06
-2.03242e-06
1.38747e-05
-2.23098e-06
1.38393e-05
-2.51551e-06
1.15808e-05
-2.37708e-06
9.39007e-06
6.46759e-06
-2.51045e-06
6.79266e-06
-1.78566e-05
-1.1091e-05
-2.1042e-05
-1.61107e-05
-2.05305e-05
-1.56614e-05
-2.05342e-05
-1.5074e-05
-1.56694e-05
1.26962e-05
1.87503e-05
1.37455e-05
1.38086e-06
1.09348e-05
-2.23923e-06
8.27371e-06
5.74585e-06
-2.32241e-06
6.11945e-06
-1.59411e-05
-9.99734e-06
-1.85279e-05
-1.4382e-05
-1.77483e-05
-1.378e-05
-1.77546e-05
-1.30166e-05
-1.37919e-05
-2.59037e-07
3.91404e-05
1.14628e-05
1.27319e-05
1.04002e-05
-1.98659e-06
7.41666e-06
6.44509e-06
-2.10287e-06
1.21645e-05
-1.43614e-05
4.25295e-06
-1.6546e-05
-1.26022e-05
-1.56251e-05
-1.22727e-05
-1.56336e-05
-1.14277e-05
-1.22877e-05
-4.58702e-06
7.06793e-06
1.11232e-05
1.37689e-05
1.84055e-05
1.76878e-06
-1.45487e-05
-1.3948e-05
-1.39583e-05
)
;

boundaryField
{
    inlet
    {
        type            calculated;
        value           nonuniform 0();
    }
    outlet
    {
        type            calculated;
        value           uniform 0;
    }
    bottom
    {
        type            calculated;
        value           uniform 0;
    }
    top
    {
        type            symmetryPlane;
        value           uniform 0;
    }
    side1
    {
        type            symmetryPlane;
        value           nonuniform 0();
    }
    side2
    {
        type            symmetryPlane;
        value           uniform 0;
    }
    procBoundary31to23
    {
        type            processor;
        value           nonuniform List<scalar> 
50
(
-1.02335e-05
-1.04404e-05
-1.10674e-05
-1.39005e-05
-1.60282e-05
-6.05736e-06
1.17927e-06
7.88076e-06
7.88624e-06
7.88624e-06
-8.11533e-06
-8.07581e-06
-8.02893e-06
-7.97052e-06
-9.03141e-06
-9.7601e-06
-1.32709e-06
8.79778e-06
8.79374e-06
8.80842e-06
-8.06405e-06
-8.02034e-06
-7.96498e-06
-7.89174e-06
-7.96847e-06
-8.02742e-06
-4.66868e-06
1.84037e-05
1.83067e-05
1.84459e-05
-8.00563e-06
-7.95449e-06
-7.88555e-06
-7.78932e-06
-7.89165e-06
-7.9672e-06
-2.02029e-06
1.82908e-05
1.81307e-05
1.83094e-05
2.62098e-06
2.59319e-06
2.51088e-06
-7.29042e-06
-7.60009e-06
1.23977e-05
1.83058e-05
1.81307e-05
1.78958e-05
1.81337e-05
)
;
    }
    procBoundary31to30
    {
        type            processor;
        value           nonuniform List<scalar> 
20
(
2.85116e-05
-1.84121e-05
-1.85932e-05
-1.87675e-05
-6.39704e-06
-3.12063e-07
-2.10555e-06
-1.59708e-05
-6.39365e-06
6.81567e-06
9.92995e-06
7.56912e-06
-6.30534e-06
6.85376e-06
9.93522e-06
9.93532e-06
-1.35397e-05
2.15106e-06
9.92611e-06
9.93412e-06
)
;
    }
}


// ************************************************************************* //
