/*--------------------------------*- C++ -*----------------------------------*\
| =========                 |                                                 |
| \\      /  F ield         | OpenFOAM: The Open Source CFD Toolbox           |
|  \\    /   O peration     | Version:  2.4.0                                 |
|   \\  /    A nd           | Web:      www.OpenFOAM.org                      |
|    \\/     M anipulation  |                                                 |
\*---------------------------------------------------------------------------*/
FoamFile
{
    version     2.0;
    format      ascii;
    class       volVectorField;
    location    "0.14";
    object      A_Source;
}
// * * * * * * * * * * * * * * * * * * * * * * * * * * * * * * * * * * * * * //

dimensions      [1 -2 -2 0 0 0 0];

internalField   nonuniform List<vector> 
200
(
(-1.58158e-23 6.49758e-24 2.82841e-23)
(-9.19922e-26 3.77738e-26 1.64514e-25)
(-5.47408e-28 2.2464e-28 9.78954e-28)
(-3.28497e-30 1.34719e-30 5.87465e-30)
(-1.9686e-32 8.06826e-33 3.52053e-32)
(-1.17124e-34 4.79741e-35 2.09459e-34)
(-6.89697e-37 2.82337e-37 1.23342e-36)
(-4.01416e-39 1.64235e-39 7.1787e-39)
(-2.30833e-41 9.43933e-42 4.12809e-41)
(-1.31172e-43 5.36126e-44 2.34582e-43)
(-1.13172e-25 4.65617e-26 2.0239e-25)
(-6.6102e-28 2.71886e-28 1.18213e-27)
(-3.85149e-30 1.58363e-30 6.88779e-30)
(-2.24429e-32 9.22418e-33 4.01356e-32)
(-1.30836e-34 5.37497e-35 2.33979e-34)
(-7.62431e-37 3.13065e-37 1.36349e-36)
(-4.43498e-39 1.82012e-39 7.93128e-39)
(-2.57126e-41 1.05469e-41 4.5983e-41)
(-1.4838e-43 6.08309e-44 2.65354e-43)
(-8.51331e-46 3.48837e-46 1.52247e-45)
(-6.3245e-28 2.6051e-28 1.13104e-27)
(-3.85649e-30 1.58812e-30 6.89674e-30)
(-2.31705e-32 9.53925e-33 4.14368e-32)
(-1.3768e-34 5.66666e-35 2.46219e-34)
(-8.11362e-37 3.33838e-37 1.451e-36)
(-4.75135e-39 1.95428e-39 8.49706e-39)
(-2.76829e-41 1.13819e-41 4.95066e-41)
(-1.60577e-43 6.59947e-44 2.87167e-43)
(-9.27543e-46 3.81042e-46 1.65877e-45)
(-5.335e-48 2.19068e-48 9.54082e-48)
(-3.07524e-30 1.268e-30 5.49958e-30)
(-1.94575e-32 8.02079e-33 3.47967e-32)
(-1.20974e-34 4.9856e-35 2.16344e-34)
(-7.40847e-37 3.05242e-37 1.32489e-36)
(-4.47885e-39 1.8449e-39 8.00974e-39)
(-2.67841e-41 1.10297e-41 4.78992e-41)
(-1.58705e-43 6.53363e-44 2.8382e-43)
(-9.33055e-46 3.84004e-46 1.66862e-45)
(-5.4486e-48 2.24166e-48 9.74397e-48)
(-3.16266e-50 1.30072e-50 5.65593e-50)
(-1.92456e-25 7.90349e-26 3.44178e-25)
(-1.15667e-27 4.74757e-28 2.06852e-27)
(-7.10807e-30 2.91573e-30 1.27117e-29)
(-4.40172e-32 1.80441e-32 7.87179e-32)
(-2.71964e-34 1.11416e-34 4.86366e-34)
(-1.66672e-36 6.82389e-37 2.98067e-36)
(-1.01003e-38 4.13288e-39 1.80629e-38)
(-6.04442e-41 2.47191e-41 1.08095e-40)
(-3.57094e-43 1.45959e-43 6.38607e-43)
(-2.08311e-45 8.51026e-46 3.72533e-45)
(-1.42607e-27 5.86518e-28 2.5503e-27)
(-8.59371e-30 3.5335e-30 1.53685e-29)
(-5.16188e-32 2.12171e-32 9.23121e-32)
(-3.09847e-34 1.27306e-34 5.54113e-34)
(-1.85941e-36 7.63613e-37 3.32526e-36)
(-1.11461e-38 4.57514e-39 1.99331e-38)
(-6.66483e-41 2.73427e-41 1.1919e-40)
(-3.96932e-43 1.62756e-43 7.09852e-43)
(-2.35138e-45 9.63634e-46 4.20509e-45)
(-1.384e-47 5.66889e-48 2.47507e-47)
(-8.23151e-30 3.3896e-30 1.47208e-29)
(-5.17414e-32 2.13011e-32 9.25314e-32)
(-3.20172e-34 1.31776e-34 5.72579e-34)
(-1.9578e-36 8.05559e-37 3.50121e-36)
(-1.18641e-38 4.88008e-39 2.1217e-38)
(-7.13924e-41 2.93558e-41 1.27674e-40)
(-4.27145e-43 1.7557e-43 7.63882e-43)
(-2.54273e-45 1.04471e-45 4.54728e-45)
(-1.50641e-47 6.18654e-48 2.69398e-47)
(-8.88134e-50 3.64575e-50 1.58829e-49)
(-4.12898e-32 1.70206e-32 7.38405e-32)
(-2.69071e-34 1.10889e-34 4.81192e-34)
(-1.72154e-36 7.09299e-37 3.0787e-36)
(-1.08404e-38 4.46529e-39 1.93863e-38)
(-6.73363e-41 2.77297e-41 1.20421e-40)
(-4.13448e-43 1.70215e-43 7.39388e-43)
(-2.51369e-45 1.03458e-45 4.49535e-45)
(-1.51543e-47 6.23522e-48 2.71011e-47)
(-9.06912e-50 3.73024e-50 1.62187e-49)
(-5.39191e-52 2.21698e-52 9.6426e-52)
(-1.21544e-27 4.98939e-28 2.17363e-27)
(-7.54088e-30 3.09392e-30 1.34857e-29)
(-4.78151e-32 1.96056e-32 8.55098e-32)
(-3.05298e-34 1.25099e-34 5.45979e-34)
(-1.9433e-36 7.95771e-37 3.47529e-36)
(-1.22585e-38 5.01667e-39 2.19224e-38)
(-7.63976e-41 3.12467e-41 1.36625e-40)
(-4.69796e-43 1.9204e-43 8.40156e-43)
(-2.84975e-45 1.16429e-45 5.09634e-45)
(-1.70564e-47 6.96502e-48 3.05028e-47)
(-9.31661e-30 3.83045e-30 1.66613e-29)
(-5.78758e-32 2.37889e-32 1.03502e-31)
(-3.58091e-34 1.47137e-34 6.4039e-34)
(-2.21258e-36 9.08762e-37 3.95685e-36)
(-1.36585e-38 5.60725e-39 2.44261e-38)
(-8.4167e-41 3.45357e-41 1.5052e-40)
(-5.17025e-43 2.12034e-43 9.24619e-43)
(-3.16126e-45 1.29575e-45 5.65342e-45)
(-1.92136e-47 7.87111e-48 3.43606e-47)
(-1.15955e-49 4.74775e-50 2.07367e-49)
(-5.5496e-32 2.28456e-32 9.9246e-32)
(-3.59311e-34 1.47879e-34 6.42573e-34)
(-2.28824e-36 9.41512e-37 4.09216e-36)
(-1.43891e-38 5.91885e-39 2.57327e-38)
(-8.9607e-41 3.68475e-41 1.60248e-40)
(-5.5375e-43 2.27629e-43 9.90296e-43)
(-3.40031e-45 1.39721e-45 6.08092e-45)
(-2.07618e-47 8.52764e-48 3.71293e-47)
(-1.2609e-49 5.17668e-50 2.25492e-49)
(-7.61632e-52 3.12549e-52 1.36206e-51)
(-2.86934e-34 1.1825e-34 5.13137e-34)
(-1.92444e-36 7.9289e-37 3.44156e-36)
(-1.26618e-38 5.21553e-39 2.26437e-38)
(-8.19291e-41 3.37391e-41 1.46517e-40)
(-5.22576e-43 2.15146e-43 9.34546e-43)
(-3.2926e-45 1.35521e-45 5.8883e-45)
(-2.05294e-47 8.44728e-48 3.67137e-47)
(-1.2685e-49 5.21789e-50 2.26852e-49)
(-7.77624e-52 3.19763e-52 1.39066e-51)
(-4.73332e-54 1.94567e-54 8.46481e-54)
(-5.29036e-30 2.17081e-30 9.46099e-30)
(-3.38504e-32 1.38827e-32 6.05362e-32)
(-2.2126e-34 9.06854e-35 3.95689e-34)
(-1.45536e-36 5.96094e-37 2.60268e-36)
(-9.53567e-39 3.90311e-39 1.70531e-38)
(-6.18662e-41 2.53071e-41 1.10638e-40)
(-3.96231e-43 1.61987e-43 7.08598e-43)
(-2.50201e-45 1.0223e-45 4.47445e-45)
(-1.55731e-47 6.35966e-48 2.78501e-47)
(-9.55742e-50 3.90102e-50 1.7092e-49)
(-4.19047e-32 1.72228e-32 7.494e-32)
(-2.68112e-34 1.10165e-34 4.79477e-34)
(-1.70733e-36 7.01292e-37 3.0533e-36)
(-1.08504e-38 4.45498e-39 1.94042e-38)
(-6.88486e-41 2.82547e-41 1.23125e-40)
(-4.35826e-43 1.78766e-43 7.79407e-43)
(-2.74847e-45 1.12675e-45 4.91521e-45)
(-1.72417e-47 7.0645e-48 3.08342e-47)
(-1.0745e-49 4.40018e-50 1.92157e-49)
(-6.64508e-52 2.71978e-52 1.18837e-51)
(-2.57351e-34 1.0591e-34 4.60232e-34)
(-1.71484e-36 7.05553e-37 3.06672e-36)
(-1.12304e-38 4.61948e-39 2.00839e-38)
(-7.257e-41 2.98423e-41 1.2978e-40)
(-4.64087e-43 1.90782e-43 8.29948e-43)
(-2.9433e-45 1.20954e-45 5.26364e-45)
(-1.85372e-47 7.61482e-48 3.3151e-47)
(-1.16025e-49 4.76413e-50 2.07493e-49)
(-7.21919e-52 2.96297e-52 1.29104e-51)
(-4.46526e-54 1.83183e-54 7.98542e-54)
(-1.37033e-36 5.64593e-37 2.45063e-36)
(-9.45156e-39 3.89316e-39 1.69027e-38)
(-6.39026e-41 2.63154e-41 1.1428e-40)
(-4.2459e-43 1.74805e-43 7.59314e-43)
(-2.77907e-45 1.14386e-45 4.96993e-45)
(-1.7957e-47 7.38905e-48 3.21132e-47)
(-1.14751e-49 4.72049e-50 2.05215e-49)
(-7.26301e-52 2.98682e-52 1.29888e-51)
(-4.55838e-54 1.87394e-54 8.15196e-54)
(-2.83924e-56 1.16678e-56 5.07753e-56)
(-1.78748e-32 7.33168e-33 3.17891e-32)
(-1.17854e-34 4.83145e-35 2.09561e-34)
(-7.93469e-37 3.25075e-37 1.41067e-36)
(-5.37246e-39 2.19954e-39 9.5498e-39)
(-3.62083e-41 1.48142e-41 6.43512e-41)
(-2.41449e-43 9.87237e-44 4.29043e-43)
(-1.58817e-45 6.48987e-46 2.82164e-45)
(-1.02918e-47 4.20326e-48 1.8282e-47)
(-6.56942e-50 2.68157e-50 1.16677e-49)
(-4.13191e-52 1.68575e-52 7.3373e-52)
(-1.46174e-34 6.00569e-35 2.59916e-34)
(-9.62511e-37 3.95353e-37 1.71119e-36)
(-6.30371e-39 2.58838e-39 1.12051e-38)
(-4.11761e-41 1.69004e-41 7.31804e-41)
(-2.68386e-43 1.10104e-43 4.76913e-43)
(-1.74417e-45 7.15165e-46 3.09881e-45)
(-1.12856e-47 4.62492e-48 2.00474e-47)
(-7.25963e-50 2.97342e-50 1.28937e-49)
(-4.63649e-52 1.89798e-52 8.23341e-52)
(-2.93688e-54 1.20159e-54 5.2144e-54)
(-9.24785e-37 3.80472e-37 1.64411e-36)
(-6.33741e-39 2.60669e-39 1.1265e-38)
(-4.26514e-41 1.75389e-41 7.58021e-41)
(-2.83037e-43 1.16356e-43 5.02945e-43)
(-1.85763e-45 7.6343e-46 3.30039e-45)
(-1.2084e-47 4.96438e-48 2.14657e-47)
(-7.80173e-50 3.20387e-50 1.38565e-49)
(-5.00306e-52 2.05369e-52 8.88441e-52)
(-3.18775e-54 1.30794e-54 5.65986e-54)
(-2.01807e-56 8.27631e-57 3.58249e-56)
(-5.06751e-39 2.08734e-39 9.00765e-39)
(-3.59198e-41 1.47918e-41 6.38381e-41)
(-2.49398e-43 1.02677e-43 4.43169e-43)
(-1.70057e-45 6.9995e-46 3.02133e-45)
(-1.14155e-47 4.6974e-48 2.02782e-47)
(-7.56033e-50 3.11018e-50 1.34278e-49)
(-4.94919e-52 2.0354e-52 8.78873e-52)
(-3.20722e-54 1.31859e-54 5.69443e-54)
(-2.05987e-56 8.46587e-57 3.65671e-56)
(-1.31232e-58 5.39154e-59 2.32926e-58)
)
;

boundaryField
{
    inlet
    {
        type            zeroGradient;
    }
    outlet
    {
        type            zeroGradient;
    }
    bottom
    {
        type            zeroGradient;
    }
    top
    {
        type            symmetryPlane;
    }
    side1
    {
        type            symmetryPlane;
    }
    side2
    {
        type            symmetryPlane;
    }
    procBoundary10to2
    {
        type            processor;
        value           nonuniform List<vector> 
50
(
(-4.46585e-21 1.82884e-21 7.98648e-21)
(-2.58111e-23 1.05645e-23 4.61592e-23)
(-1.47227e-25 6.02285e-26 2.63293e-25)
(-8.29649e-28 3.39218e-28 1.4837e-27)
(-4.62297e-30 1.8892e-30 8.26747e-30)
(-2.54933e-32 1.04124e-32 4.55907e-32)
(-1.39227e-34 5.6836e-35 2.48987e-34)
(-7.53543e-37 3.07453e-37 1.34759e-36)
(-4.04421e-39 1.64921e-39 7.23245e-39)
(-2.15342e-41 8.77693e-42 3.85107e-41)
(-5.30361e-23 2.17077e-23 9.48469e-23)
(-3.17018e-25 1.29687e-25 5.66937e-25)
(-1.86807e-27 7.638e-28 3.34076e-27)
(-1.08637e-29 4.43952e-30 1.94281e-29)
(-6.24112e-32 2.54912e-32 1.11613e-31)
(-3.54508e-34 1.44719e-34 6.33982e-34)
(-1.99256e-36 8.12984e-37 3.56338e-36)
(-1.10899e-38 4.5224e-39 1.98325e-38)
(-6.11577e-41 2.49267e-41 1.09371e-40)
(-3.34371e-43 1.36212e-43 5.97971e-43)
(-3.27055e-25 1.33793e-25 5.84886e-25)
(-2.01985e-27 8.25855e-28 3.61218e-27)
(-1.22847e-29 5.02021e-30 2.19693e-29)
(-7.36655e-32 3.00879e-32 1.31739e-31)
(-4.35978e-34 1.77977e-34 7.7968e-34)
(-2.54901e-36 1.04002e-36 4.55851e-36)
(-1.47349e-38 6.00883e-39 2.63511e-38)
(-8.4279e-41 3.43505e-41 1.5072e-40)
(-4.77293e-43 1.94433e-43 8.53565e-43)
(-2.67796e-45 1.09034e-45 4.78911e-45)
(-1.39076e-27 5.68641e-28 2.48716e-27)
(-8.86545e-30 3.62291e-30 1.58545e-29)
(-5.56001e-32 2.27093e-32 9.94321e-32)
(-3.43483e-34 1.40218e-34 6.14266e-34)
(-2.09249e-36 8.53756e-37 3.74209e-36)
(-1.25827e-38 5.13116e-39 2.25022e-38)
(-7.47513e-41 3.04672e-41 1.33681e-40)
(-4.39082e-43 1.78867e-43 7.8523e-43)
(-2.55192e-45 1.03902e-45 4.56371e-45)
(-1.46844e-47 5.97562e-48 2.62607e-47)
(-4.59301e-30 1.87695e-30 8.16937e-30)
(-3.01935e-32 1.23322e-32 5.36949e-32)
(-1.95101e-34 7.96447e-35 3.46902e-34)
(-1.24075e-36 5.06238e-37 2.20578e-36)
(-7.77476e-39 3.1705e-39 1.38195e-38)
(-4.80516e-41 1.95849e-41 8.53968e-41)
(-2.93189e-43 1.19435e-43 5.20968e-43)
(-1.76754e-45 7.19657e-46 3.14023e-45)
(-1.05366e-47 4.28774e-48 1.87164e-47)
(-6.21485e-50 2.52772e-50 1.10377e-49)
)
;
    }
    procBoundary10to9
    {
        type            processor;
        value           nonuniform List<vector> 
20
(
(-4.73368e-21 1.94365e-21 8.46546e-21)
(-2.47681e-23 1.01864e-23 4.42938e-23)
(-1.17784e-25 4.85099e-26 2.10638e-25)
(-5.24842e-28 2.16417e-28 9.38598e-28)
(-5.61244e-23 2.30345e-23 1.0037e-22)
(-3.03282e-25 1.24685e-25 5.42373e-25)
(-1.48875e-27 6.12958e-28 2.6624e-27)
(-6.84502e-30 2.82178e-30 1.22413e-29)
(-3.45563e-25 1.41763e-25 6.17986e-25)
(-1.92679e-27 7.91842e-28 3.44576e-27)
(-9.75468e-30 4.015e-30 1.74447e-29)
(-4.62392e-32 1.90566e-32 8.26917e-32)
(-1.46733e-27 6.01688e-28 2.62409e-27)
(-8.43409e-30 3.46482e-30 1.50831e-29)
(-4.39975e-32 1.81036e-32 7.86827e-32)
(-2.14826e-34 8.85129e-35 3.84184e-34)
(-4.83921e-30 1.98347e-30 8.60732e-30)
(-2.86507e-32 1.17656e-32 5.09519e-32)
(-1.53883e-34 6.3298e-35 2.73619e-34)
(-7.73355e-37 3.18554e-37 1.37488e-36)
)
;
    }
    procBoundary10to11
    {
        type            processor;
        value           nonuniform List<vector> 
20
(
(-3.39641e-46 1.38948e-46 6.07394e-46)
(-3.10443e-48 1.27271e-48 5.55179e-48)
(-2.24274e-50 9.21008e-51 4.01079e-50)
(-1.41348e-52 5.81263e-53 2.52779e-52)
(-5.49437e-48 2.24685e-48 9.82584e-48)
(-5.1527e-50 2.1117e-50 9.21481e-50)
(-3.8143e-52 1.56592e-52 6.82129e-52)
(-2.46181e-54 1.0121e-54 4.40257e-54)
(-4.58139e-50 1.87273e-50 8.19311e-50)
(-4.40605e-52 1.80507e-52 7.87954e-52)
(-3.34052e-54 1.371e-54 5.974e-54)
(-2.20697e-56 9.07099e-57 3.94683e-56)
(-2.61339e-52 1.06783e-52 4.67364e-52)
(-2.57596e-54 1.05495e-54 4.60671e-54)
(-1.99921e-56 8.20262e-57 3.57528e-56)
(-1.35134e-58 5.55278e-59 2.41667e-58)
(-1.14987e-54 4.69643e-55 2.04164e-54)
(-1.16106e-56 4.75328e-57 2.06116e-56)
(-9.2201e-59 3.78181e-59 1.63652e-58)
(-6.37362e-61 2.61829e-61 1.1311e-60)
)
;
    }
    procBoundary10to18
    {
        type            processor;
        value           nonuniform List<vector> 
50
(
(-4.83174e-33 1.99466e-33 8.64083e-33)
(-3.19974e-35 1.3204e-35 5.72225e-35)
(-2.19988e-37 9.0744e-38 3.93415e-37)
(-1.51681e-39 6.25456e-40 2.71258e-39)
(-1.03134e-41 4.25142e-42 1.84439e-41)
(-6.87288e-44 2.83236e-44 1.22911e-43)
(-4.48435e-46 1.84754e-46 8.01956e-46)
(-2.86798e-48 1.1813e-48 5.12894e-48)
(-1.80131e-50 7.41754e-51 3.22137e-50)
(-1.11325e-52 4.583e-53 1.99087e-52)
(-6.61572e-35 2.73055e-35 1.18312e-34)
(-4.51158e-37 1.86134e-37 8.06826e-37)
(-3.19334e-39 1.31695e-39 5.7108e-39)
(-2.26513e-41 9.33816e-42 4.05084e-41)
(-1.58306e-43 6.52422e-44 2.83105e-43)
(-1.08339e-45 4.46368e-46 1.93747e-45)
(-7.25338e-48 2.98768e-48 1.29715e-47)
(-4.75652e-50 1.95872e-50 8.5063e-50)
(-3.06109e-52 1.26022e-52 5.47429e-52)
(-1.93722e-54 7.97328e-55 3.46443e-54)
(-4.68682e-37 1.93402e-37 8.38165e-37)
(-3.28893e-39 1.35662e-39 5.88175e-39)
(-2.39498e-41 9.87479e-42 4.28305e-41)
(-1.74655e-43 7.19864e-44 3.12344e-43)
(-1.25387e-45 5.16635e-46 2.24235e-45)
(-8.80733e-48 3.62788e-48 1.57505e-47)
(-6.0474e-50 2.49036e-50 1.08148e-49)
(-4.06422e-52 1.67324e-52 7.26822e-52)
(-2.6788e-54 1.10258e-54 4.79061e-54)
(-1.73523e-56 7.14024e-57 3.10319e-56)
(-2.28096e-39 9.41045e-40 4.07915e-39)
(-1.64582e-41 6.7872e-42 2.94329e-41)
(-1.23206e-43 5.07879e-44 2.20335e-43)
(-9.23063e-46 3.80366e-46 1.65075e-45)
(-6.80261e-48 2.80226e-48 1.21654e-47)
(-4.90115e-50 2.0184e-50 8.76495e-50)
(-3.4493e-52 1.42012e-52 6.16854e-52)
(-2.3744e-54 9.77315e-55 4.24625e-54)
(-1.602e-56 6.59219e-57 2.86492e-56)
(-1.06163e-58 4.36745e-59 1.89857e-58)
(-8.59297e-42 3.54441e-42 1.52726e-41)
(-6.37091e-44 2.62673e-44 1.13214e-43)
(-4.89972e-46 2.01931e-46 8.70552e-46)
(-3.76899e-48 1.55273e-48 6.69538e-48)
(-2.84966e-50 1.17362e-50 5.0614e-50)
(-2.10481e-52 8.66603e-53 3.73781e-52)
(-1.51753e-54 6.24637e-55 2.69444e-54)
(-1.06947e-56 4.40096e-57 1.89858e-56)
(-7.38291e-59 3.03734e-59 1.31044e-58)
(-5.00327e-61 2.05781e-61 8.87913e-61)
)
;
    }
}


// ************************************************************************* //
