/*--------------------------------*- C++ -*----------------------------------*\
| =========                 |                                                 |
| \\      /  F ield         | OpenFOAM: The Open Source CFD Toolbox           |
|  \\    /   O peration     | Version:  2.4.0                                 |
|   \\  /    A nd           | Web:      www.OpenFOAM.org                      |
|    \\/     M anipulation  |                                                 |
\*---------------------------------------------------------------------------*/
FoamFile
{
    version     2.0;
    format      ascii;
    class       volVectorField;
    location    "0.02";
    object      gradp;
}
// * * * * * * * * * * * * * * * * * * * * * * * * * * * * * * * * * * * * * //

dimensions      [1 -2 -2 0 0 0 0];

internalField   nonuniform List<vector> 
200
(
(-3219.3 17664.2 -12753)
(-32468.4 14809.1 -9331.57)
(-43459.7 8342.74 -6042.3)
(-32016.4 2242.25 -5395.33)
(-11963.9 -7060.04 -9103.88)
(6639.3 -1299.41 -11393.3)
(15829 1212.44 -13527.7)
(5523.12 8402.52 -15089)
(-7611.62 12911.8 -17094.9)
(6272.57 19034.6 -21875.4)
(-8061.79 6776.88 757.734)
(-31184.1 6164.48 -2146.28)
(-45088.7 5625.47 -2629.51)
(-50109.2 2974.31 -7846.13)
(-15803 -1093.11 -6557.88)
(18979.2 -15839.3 -17485.4)
(23922.5 -339.588 -18294.1)
(20275.7 -392.017 -27055)
(13527.5 16385 -26286.4)
(11067.5 19343.2 -35129)
(-12842.4 9757.73 -196.446)
(-34771.2 9019.89 4251.39)
(-49840 11655.8 -431.033)
(-45453.6 14892.2 -4547.55)
(-49591 20646.3 -16207.7)
(8146.34 17393.7 -13570.1)
(46723.4 13953.4 -38277.4)
(38972.2 29892.7 -41111.2)
(31858.7 28579.8 -46991)
(35118.9 49964.5 -42753.8)
(-8006.02 4947.87 1756.93)
(-27388 6849.4 4161.3)
(-33344 8639.48 3725.73)
(-32128.2 15097.4 -4118.45)
(-10800 15302.2 -12920.6)
(5593.55 34492.9 -30892.2)
(48920.6 14025.8 -41895)
(49528.5 35591.4 -73722.3)
(53671.2 19303.9 -65511.2)
(87284.2 46497.7 -70648)
(-1549.49 38127.7 -16754.7)
(-10994.2 26775.8 -11714.4)
(-30863.7 16454.6 -5054.67)
(-41813.5 -2148.07 3194.81)
(-31157.4 -9740.28 3719.19)
(-7516.95 -15665 6941.66)
(4002.85 -4311.09 21314.4)
(-5891.85 -19500.9 1210.1)
(-29328.1 -16868 -514.563)
(-23106.4 -18413.6 -1022.28)
(-14145.3 26867.4 -7083.14)
(-42023.2 27897.2 -7187.44)
(-63328.2 14603.5 -943.463)
(-62680 4330.77 5241.91)
(-46648.5 -12459.3 8593)
(-18576.7 -19322.1 8589.4)
(-6700.38 -39939.1 -3279.75)
(-5299.64 -42027.7 -11294.3)
(-12309.1 -31448.8 -13287.5)
(-10681.6 -14062.3 -14105.1)
(3671.7 11356.4 -12877.1)
(-35521.9 19112 -9101.86)
(-77996.6 21824.1 -4509.73)
(-95939 20856.5 732.866)
(-78463.1 10465.8 3578.63)
(-62476.6 -4057.33 5114.93)
(-41408.2 -23808 -14416)
(11088.6 -44775 -14629.6)
(26602.5 -34179.9 -21508.7)
(-19556.4 -6865.9 -19937.7)
(9061.38 8073.27 -11744.9)
(-21087.8 6705.26 -8992.27)
(-59839.2 15290.3 -6466.19)
(-85396.6 15783.9 -5269.6)
(-96476.2 20561.5 -5228.98)
(-87124.4 6777.43 -11447.2)
(-88135.7 8237.61 -23017.7)
(-26043.5 -16586.3 -41799.7)
(63509.1 -10328.4 -37563.8)
(43496.3 1866.96 -46608.5)
(-9739.31 17592.7 6808.8)
(4971.68 17305.7 4413.02)
(4249.89 12425.1 8348.23)
(-3940.07 18311.1 16076.2)
(26.0456 5344.14 22736.8)
(62943.9 30287.2 24746)
(-2512.05 2871.15 13726.2)
(-64329.5 -8313.41 11221.5)
(-14755.2 -6998.49 11839.8)
(-6076.52 -8068.04 18270.3)
(3767.7 12981 -12346.2)
(-11537.1 10344.6 -6919.73)
(-5314.75 6497.38 154.597)
(-19592.5 -964.804 12426.8)
(-5091 -1318.01 22443.2)
(-19013.6 -18762 23762.1)
(-39705.2 -57508.1 16523.4)
(-11748.9 -25735.5 18426.6)
(4532.96 -17205.6 16618.8)
(3469.3 -10921.4 21304.4)
(-2718.9 2298.9 -16844.9)
(-7995.5 6132.16 -15759.4)
(-18368.9 2819.39 -4589.07)
(-19570.8 -1926.2 8184.67)
(-35568.4 -1468.9 24750.4)
(-49436.4 -14664.9 32212.5)
(-16459 -17627.3 40665.4)
(16275.6 -18915.9 42138)
(14872.9 -10262.4 34159.3)
(14815.3 -2040.88 29286.6)
(1553.46 6759.45 -19684.1)
(-10496.1 7024.75 -18726.4)
(-21431.5 5509.14 -13413.3)
(-28169.1 5493.45 -255.092)
(-30568.4 1210.01 14616.4)
(-51330.4 7993.46 33066.6)
(-48207.2 262.982 41624.8)
(2980.98 -7880.67 49330)
(38283 -6384.32 41627.1)
(45025.3 3824.39 25622.8)
(5346.45 -3965.47 5894.16)
(-6067.97 -5259.54 5302.76)
(6458.29 -13912.4 6556.99)
(4229.86 -10049.7 5124.3)
(-3413.77 5458.7 6485.39)
(-36350.9 -1998.26 3186.77)
(-39275.6 -16716.2 -15073.6)
(-11928.4 -4149.49 695.38)
(-6772.14 2118.56 1712.26)
(-6382.59 10915.5 2378.2)
(7965.31 -10978.5 -8912.72)
(-2020.84 -4378.63 -4584.38)
(-1419.37 -6096.19 -1797.5)
(8643.47 -8295.59 767.397)
(-10375.4 -9237.42 7359.4)
(-37520 -7375.72 771.37)
(-23774.2 3163.65 7769.09)
(-4994.46 7438.65 8304.64)
(-3099.91 4262.43 9645.16)
(-1336.94 3563.82 7281.72)
(-461.061 -384.242 -1885.23)
(3696.62 221.349 -1207.6)
(-1375.63 115.482 685.2)
(-2052.6 565.509 5177.61)
(-1574.02 -2057.04 8972.38)
(-11548.7 10829.8 15387.4)
(-9646.81 16354.3 19833)
(-9730.81 4670.57 16066.3)
(-14521.8 5833.43 10808.8)
(-6478.79 43.5459 8777.57)
(485.852 3530.52 -5183.84)
(-1021.39 1958.03 -5184.05)
(-731.051 1171.51 -1484.91)
(4298.43 2280.32 2327.73)
(10153.1 4347.03 8426.67)
(-697.309 8143.9 14283.6)
(-36092.6 9772.74 23289.2)
(-26036.2 -5079 25544.9)
(-12354 1620.03 15770.7)
(-11132.2 -3995.08 6135.39)
(5718.32 -9073.4 -4916.33)
(7092.74 -7942.56 -1493.11)
(3678.79 -5266.3 -803.607)
(-4169.2 -461.63 -2361.71)
(-6174.04 4186.07 -3428.31)
(-6044.98 456.747 -3224.29)
(-10484.5 105.589 6042.28)
(-10614.6 -179.917 5772.91)
(-9370.19 4089.6 6452.82)
(-4672.5 7481.9 4961.03)
(-3174.02 533.939 -4407.43)
(11231.6 -72.0051 -2705.82)
(11811 -2897.49 -266.051)
(9709.57 -879.497 1428.66)
(-5078.29 2661.18 67.1036)
(-17702.6 759.058 3084)
(-15598.8 -1657.57 6260.06)
(-5745.52 -1142.03 5638.83)
(1259.61 -2651.06 6025.36)
(-2317.57 -682.456 7001.18)
(754.767 8265.1 2278.94)
(229.883 5172.7 1198.53)
(2063.81 3319.53 1195.58)
(6948.14 570.324 2273.35)
(-2896.93 238.739 4008.31)
(-14682.5 6954.63 1859.94)
(-14286.7 7204.88 3029.02)
(-12601.6 8668.55 409.988)
(-8451.04 -461.525 2131.89)
(-1517.31 -3875 2307.1)
(959.045 1481.67 998.408)
(1340.44 662.432 388.777)
(2606.21 2036.95 1736.48)
(3547.98 933.631 1431.67)
(7690.33 336.872 1501.96)
(-3770.27 6227.26 662.043)
(-12170.9 5792.97 541.664)
(-21078.3 7285.12 8137.57)
(-23827.5 1554.61 2091.01)
(-18883.9 -403.103 4552.09)
)
;

boundaryField
{
    inlet
    {
        type            zeroGradient;
    }
    outlet
    {
        type            zeroGradient;
    }
    bottom
    {
        type            zeroGradient;
    }
    top
    {
        type            symmetryPlane;
    }
    side1
    {
        type            symmetryPlane;
    }
    side2
    {
        type            symmetryPlane;
    }
    procBoundary25to17
    {
        type            processor;
        value           nonuniform List<vector> 
50
(
(-3244.89 23250.5 -12031.9)
(-12541.1 16815.7 -9625.46)
(-19954.9 7614.29 -7699.45)
(-19303.6 -1605.42 -5102.19)
(-8719.65 -3627.45 -4882.73)
(2434.26 -3505.69 -8506.84)
(4518.66 684.58 -14841.9)
(-3122.94 4053.86 -9615.37)
(-7736.72 2020.9 -7674.03)
(2308.47 -3327.24 -11723.8)
(-14455.7 5587.3 -7038.43)
(1322.84 11013.7 -8747.78)
(-5480.47 5470.91 -3494.95)
(-10290.2 -4127.39 -4801.12)
(-19614.5 -10891.6 840.384)
(-29435.1 -14059.8 -11152.2)
(971.349 -12691.5 -4316.44)
(19814.2 -15801.1 -846.813)
(-14483.7 -19576.5 -843.544)
(-19148.9 -43657.3 2834.11)
(-11511.6 712.749 13962.1)
(-1201.96 2556.79 13102.4)
(-7325.62 9938.15 19134)
(-5430.58 13063.7 17365.3)
(-29043.2 11760.3 12943.8)
(-14067.6 17661.4 15220.4)
(37496 70102.1 24276.6)
(7990.34 19011.9 8831.92)
(4042.22 124.9 4752.14)
(-6457.15 -11433.1 2973.74)
(2592.41 4608.13 7753.58)
(17873 -9079.61 11195.8)
(8160.93 4168.29 9259.63)
(-30098.7 16985.6 12500.4)
(-26478.2 19452.1 8083.19)
(6829.82 20143.2 19415.4)
(-19471.8 1731.4 9497.57)
(-42664 -520.512 3221.2)
(-33229.9 1814.81 2715.1)
(-10734.9 -528.882 -2437)
(3155.14 -5678.03 -1214.98)
(3617.4 -3618.49 -1028.93)
(-3150.91 -3166.64 -5669.86)
(-9195.17 -42.151 -4563.88)
(-6915.04 2379.57 862.5)
(-9541.59 2893.41 1549.62)
(-14325.5 5215.99 -4253.57)
(-13713.5 4522.48 3157.85)
(-14064 8615.77 4793.45)
(-10550.4 16731.3 9147.18)
)
;
    }
    procBoundary25to24
    {
        type            processor;
        value           nonuniform List<vector> 
20
(
(11072.4 17217.6 -9853.39)
(5441.33 10976.1 -245.187)
(3808.07 8992 -909.281)
(6301.84 4431.19 -1172.26)
(-12125.1 26620.6 -9676.92)
(13164.8 25286.6 -10884.2)
(12897.4 7508.69 -12265.5)
(18969.6 4010.42 -11979.6)
(-12491.1 9666.01 2258.04)
(9620.28 6834.37 -13829.3)
(-5005.58 7239.28 -14467.9)
(1603.29 4888.57 -16046.5)
(13051.8 -7945.99 472.252)
(4275.47 -1474.88 -2415.09)
(-6453 3961.08 -2293.12)
(-609.922 1484.58 -4998.29)
(62.6888 -4777.98 -1609.32)
(-10106 2409.77 775.224)
(132.792 3106.16 818.581)
(4609.26 560.293 240.904)
)
;
    }
    procBoundary25to26
    {
        type            processor;
        value           nonuniform List<vector> 
20
(
(21724.5 17291.3 -26275.8)
(33170.1 30808.1 -33083)
(55127 66688.2 -64077)
(140057 45386.6 -79195)
(8014.82 -12634.4 -4373.66)
(-5504.84 -29673.8 -15661.9)
(-15960.8 -7090.95 -27853.6)
(-19672 21197.9 -50769.8)
(3497.62 -2035.27 17065.9)
(4681.28 -6759.7 19539)
(3523.18 10515.6 38246)
(25589.7 8720.68 24555.7)
(597.167 6817.56 2151.02)
(-6120.02 4214.33 7836.76)
(-4739.68 935.83 5704.92)
(-957.51 -706.652 -4200.92)
(-4471.97 8206.01 6987.22)
(151.44 -1073.46 5718.91)
(7606.65 -8744.66 3682.36)
(4972.85 -7128.66 -331.398)
)
;
    }
}


// ************************************************************************* //
