/*--------------------------------*- C++ -*----------------------------------*\
| =========                 |                                                 |
| \\      /  F ield         | OpenFOAM: The Open Source CFD Toolbox           |
|  \\    /   O peration     | Version:  2.4.0                                 |
|   \\  /    A nd           | Web:      www.OpenFOAM.org                      |
|    \\/     M anipulation  |                                                 |
\*---------------------------------------------------------------------------*/
FoamFile
{
    version     2.0;
    format      ascii;
    class       surfaceScalarField;
    location    "0.02";
    object      phia;
}
// * * * * * * * * * * * * * * * * * * * * * * * * * * * * * * * * * * * * * //

dimensions      [0 3 -1 0 0 0 0];

internalField   nonuniform List<scalar> 
490
(
2.93383e-06
7.93602e-07
9.75607e-08
2.89926e-06
7.93617e-07
9.55726e-08
2.86483e-06
7.93638e-07
9.35872e-08
2.83067e-06
7.93664e-07
9.16111e-08
2.79694e-06
7.93698e-07
8.96527e-08
2.76384e-06
7.93742e-07
8.77223e-08
2.73158e-06
7.93798e-07
8.58305e-08
2.70048e-06
7.93872e-07
8.39894e-08
2.67092e-06
7.93967e-07
8.22188e-08
7.94084e-07
8.0545e-08
2.87653e-06
7.93703e-07
9.41448e-08
2.84667e-06
7.93719e-07
9.2418e-08
2.81707e-06
7.9374e-07
9.07006e-08
2.7878e-06
7.93768e-07
8.89986e-08
2.75891e-06
7.93803e-07
8.73164e-08
2.73033e-06
7.93849e-07
8.5654e-08
2.70194e-06
7.9391e-07
8.40043e-08
2.67387e-06
7.93991e-07
8.23578e-08
2.64732e-06
7.94094e-07
8.07346e-08
7.94215e-07
7.92567e-08
2.8306e-06
7.91621e-07
9.13848e-08
2.80435e-06
7.9169e-07
8.98655e-08
2.77826e-06
7.91764e-07
8.83522e-08
2.75237e-06
7.91842e-07
8.6848e-08
2.72666e-06
7.91924e-07
8.5354e-08
2.70105e-06
7.92014e-07
8.3867e-08
2.67553e-06
7.92117e-07
8.23803e-08
2.65052e-06
7.92246e-07
8.08952e-08
2.62771e-06
7.92425e-07
7.94595e-08
7.92678e-07
7.82225e-08
2.79194e-06
8.90639e-08
2.76865e-06
8.77151e-08
2.74543e-06
8.6368e-08
2.7223e-06
8.50245e-08
2.69925e-06
8.36845e-08
2.67627e-06
8.23464e-08
2.65349e-06
8.10094e-08
2.63155e-06
7.96871e-08
2.612e-06
7.84394e-08
7.73881e-08
2.94148e-06
7.92961e-07
9.82137e-08
2.90668e-06
7.92962e-07
9.62194e-08
2.87197e-06
7.92966e-07
9.42258e-08
2.83751e-06
7.92975e-07
9.22404e-08
2.80344e-06
7.9299e-07
9.02729e-08
2.76997e-06
7.93013e-07
8.83342e-08
2.73728e-06
7.93046e-07
8.64345e-08
2.70563e-06
7.93094e-07
8.45837e-08
2.67548e-06
7.93161e-07
8.27998e-08
7.93249e-07
8.11168e-08
2.88428e-06
7.93113e-07
9.4787e-08
2.85404e-06
7.93115e-07
9.30464e-08
2.82402e-06
7.93122e-07
9.13133e-08
2.79431e-06
7.93133e-07
8.95947e-08
2.76497e-06
7.93151e-07
8.78962e-08
2.73594e-06
7.93178e-07
8.62192e-08
2.70707e-06
7.93218e-07
8.4557e-08
2.67847e-06
7.93275e-07
8.28988e-08
2.65141e-06
7.93352e-07
8.1264e-08
7.93442e-07
7.97848e-08
2.83773e-06
7.9101e-07
9.19772e-08
2.81111e-06
7.91067e-07
9.0444e-08
2.78462e-06
7.91127e-07
8.89155e-08
2.75832e-06
7.91191e-07
8.73959e-08
2.73219e-06
7.91258e-07
8.5887e-08
2.70615e-06
7.91331e-07
8.43867e-08
2.68017e-06
7.91414e-07
8.28884e-08
2.65466e-06
7.91521e-07
8.13923e-08
2.63141e-06
7.91677e-07
7.99471e-08
7.91901e-07
7.87136e-08
2.7986e-06
8.96178e-08
2.77493e-06
8.82538e-08
2.75132e-06
8.68911e-08
2.72778e-06
8.55322e-08
2.70433e-06
8.41781e-08
2.68094e-06
8.28278e-08
2.65772e-06
8.14804e-08
2.63534e-06
8.01486e-08
2.6154e-06
7.8894e-08
7.78485e-08
2.95028e-06
7.92313e-07
9.89375e-08
2.91513e-06
7.92298e-07
9.69313e-08
2.88002e-06
7.92285e-07
9.49238e-08
2.84512e-06
7.92275e-07
9.29235e-08
2.81062e-06
7.9227e-07
9.09415e-08
2.77668e-06
7.92271e-07
8.89898e-08
2.74348e-06
7.9228e-07
8.70788e-08
2.71124e-06
7.92301e-07
8.52165e-08
2.68045e-06
7.92338e-07
8.34188e-08
7.92393e-07
8.17264e-08
2.89285e-06
7.92516e-07
9.54809e-08
2.86217e-06
7.92504e-07
9.37233e-08
2.83166e-06
7.92494e-07
9.19713e-08
2.80143e-06
7.92488e-07
9.02329e-08
2.77157e-06
7.92488e-07
8.85153e-08
2.74202e-06
7.92495e-07
8.6821e-08
2.71262e-06
7.92513e-07
8.51442e-08
2.68344e-06
7.92545e-07
8.34729e-08
2.65582e-06
7.92594e-07
8.18257e-08
7.92651e-07
8.03453e-08
2.84555e-06
7.90392e-07
9.26132e-08
2.8185e-06
7.90436e-07
9.10632e-08
2.79155e-06
7.90483e-07
8.95168e-08
2.76477e-06
7.90531e-07
8.79789e-08
2.73815e-06
7.90582e-07
8.64528e-08
2.71163e-06
7.90637e-07
8.49371e-08
2.68514e-06
7.907e-07
8.34255e-08
2.6591e-06
7.90784e-07
8.19173e-08
2.63538e-06
7.90914e-07
8.04622e-08
7.91107e-07
7.92327e-08
2.80584e-06
9.02079e-08
2.78173e-06
8.88263e-08
2.75766e-06
8.74457e-08
2.73367e-06
8.60692e-08
2.70976e-06
8.4699e-08
2.68591e-06
8.33347e-08
2.66223e-06
8.19757e-08
2.63936e-06
8.06338e-08
2.61902e-06
7.93722e-08
7.83331e-08
2.96004e-06
7.91661e-07
9.93941e-08
2.92444e-06
7.91628e-07
9.73865e-08
2.88883e-06
7.91598e-07
9.53753e-08
2.8534e-06
7.91569e-07
9.33701e-08
2.81835e-06
7.91542e-07
9.13831e-08
2.78387e-06
7.9152e-07
8.9428e-08
2.7501e-06
7.91503e-07
8.75155e-08
2.71721e-06
7.91495e-07
8.56522e-08
2.68575e-06
7.915e-07
8.38525e-08
7.91522e-07
8.21655e-08
2.90212e-06
7.91916e-07
9.5897e-08
2.87093e-06
7.91887e-07
9.41338e-08
2.83987e-06
7.91861e-07
9.23743e-08
2.80907e-06
7.91837e-07
9.06274e-08
2.77862e-06
7.91817e-07
8.89015e-08
2.74849e-06
7.91803e-07
8.72008e-08
2.71852e-06
7.91797e-07
8.55201e-08
2.68871e-06
7.91804e-07
8.38465e-08
2.66051e-06
7.91824e-07
8.21983e-08
7.91844e-07
8.07291e-08
2.85396e-06
7.89771e-07
9.29715e-08
2.82642e-06
7.89802e-07
9.14152e-08
2.79895e-06
7.89833e-07
8.98614e-08
2.77163e-06
7.89865e-07
8.83158e-08
2.74449e-06
7.89899e-07
8.67826e-08
2.71743e-06
7.89934e-07
8.52617e-08
2.6904e-06
7.89976e-07
8.37472e-08
2.66379e-06
7.90036e-07
8.22375e-08
2.63957e-06
7.9014e-07
8.07834e-08
7.90299e-07
7.9569e-08
2.81356e-06
9.05181e-08
2.78897e-06
8.91291e-08
2.7644e-06
8.77405e-08
2.7399e-06
8.63565e-08
2.71549e-06
8.49799e-08
2.69115e-06
8.36114e-08
2.66697e-06
8.22506e-08
2.64359e-06
8.09087e-08
2.62282e-06
7.96508e-08
7.86287e-08
2.97063e-06
7.91004e-07
2.93448e-06
7.90954e-07
2.89828e-06
7.90904e-07
2.86224e-06
7.90854e-07
2.82656e-06
7.90806e-07
2.79147e-06
7.90759e-07
2.75707e-06
7.90715e-07
2.7235e-06
7.90677e-07
2.69133e-06
7.90648e-07
7.90633e-07
2.91201e-06
7.9131e-07
2.88025e-06
7.91266e-07
2.84858e-06
7.91221e-07
2.81714e-06
7.91178e-07
2.78606e-06
7.91138e-07
2.75531e-06
7.91101e-07
2.72471e-06
7.91071e-07
2.69425e-06
7.9105e-07
2.66543e-06
7.91039e-07
7.91022e-07
2.86288e-06
7.89145e-07
2.83481e-06
7.89162e-07
2.80677e-06
7.89178e-07
2.77888e-06
7.89193e-07
2.75115e-06
7.89208e-07
2.72352e-06
7.89223e-07
2.69591e-06
7.89242e-07
2.66871e-06
7.89277e-07
2.64396e-06
7.89352e-07
7.89476e-07
2.82171e-06
2.79659e-06
2.77148e-06
2.74644e-06
2.72149e-06
2.69663e-06
2.67192e-06
2.64801e-06
2.62679e-06
)
;

boundaryField
{
    inlet
    {
        type            calculated;
        value           nonuniform 0();
    }
    outlet
    {
        type            calculated;
        value           nonuniform 0();
    }
    bottom
    {
        type            calculated;
        value           uniform 0;
    }
    top
    {
        type            symmetryPlane;
        value           uniform 0;
    }
    side1
    {
        type            symmetryPlane;
        value           nonuniform 0();
    }
    side2
    {
        type            symmetryPlane;
        value           uniform 0;
    }
    procBoundary25to17
    {
        type            processor;
        value           nonuniform List<scalar> 
50
(
-7.93488e-07
-7.93502e-07
-7.93521e-07
-7.93546e-07
-7.93579e-07
-7.93622e-07
-7.93677e-07
-7.93747e-07
-7.93834e-07
-7.93943e-07
-7.92788e-07
-7.92785e-07
-7.92787e-07
-7.92793e-07
-7.92805e-07
-7.92825e-07
-7.92855e-07
-7.92897e-07
-7.92953e-07
-7.93028e-07
-7.9208e-07
-7.9206e-07
-7.92042e-07
-7.92028e-07
-7.92018e-07
-7.92014e-07
-7.92017e-07
-7.92029e-07
-7.92052e-07
-7.9209e-07
-7.91368e-07
-7.91329e-07
-7.91291e-07
-7.91255e-07
-7.91222e-07
-7.91192e-07
-7.91167e-07
-7.91147e-07
-7.91135e-07
-7.91134e-07
-7.90651e-07
-7.90592e-07
-7.90533e-07
-7.90475e-07
-7.90416e-07
-7.90359e-07
-7.90304e-07
-7.9025e-07
-7.90201e-07
-7.90157e-07
)
;
    }
    procBoundary25to24
    {
        type            processor;
        value           nonuniform List<scalar> 
20
(
-2.96235e-06
-2.90221e-06
-2.85352e-06
-2.8136e-06
-2.97124e-06
-2.91073e-06
-2.86147e-06
-2.82107e-06
-2.98128e-06
-2.92015e-06
-2.87014e-06
-2.82914e-06
-2.99229e-06
-2.93032e-06
-2.87945e-06
-2.83773e-06
-3.00413e-06
-2.94115e-06
-2.88931e-06
-2.84678e-06
)
;
    }
    procBoundary25to26
    {
        type            processor;
        value           nonuniform List<scalar> 
20
(
2.64268e-06
2.62273e-06
2.60701e-06
2.59423e-06
2.64652e-06
2.62636e-06
2.61035e-06
2.59733e-06
2.65076e-06
2.63028e-06
2.61394e-06
2.60062e-06
2.65532e-06
2.63445e-06
2.61772e-06
2.60409e-06
2.66016e-06
2.63884e-06
2.6217e-06
2.60771e-06
)
;
    }
}


// ************************************************************************* //
