/*--------------------------------*- C++ -*----------------------------------*\
| =========                 |                                                 |
| \\      /  F ield         | OpenFOAM: The Open Source CFD Toolbox           |
|  \\    /   O peration     | Version:  2.4.0                                 |
|   \\  /    A nd           | Web:      www.OpenFOAM.org                      |
|    \\/     M anipulation  |                                                 |
\*---------------------------------------------------------------------------*/
FoamFile
{
    version     2.0;
    format      ascii;
    class       volVectorField;
    location    "0.02";
    object      Ua;
}
// * * * * * * * * * * * * * * * * * * * * * * * * * * * * * * * * * * * * * //

dimensions      [0 1 -1 0 0 0 0];

internalField   nonuniform List<vector> 
200
(
(0.407721 0.289084 0.00983393)
(0.421564 0.298881 0.0101704)
(0.436446 0.30941 0.0105325)
(0.452455 0.320732 0.0109225)
(0.469697 0.33292 0.011343)
(0.488305 0.346067 0.0117974)
(0.508455 0.360292 0.0122904)
(0.530335 0.375722 0.0128269)
(0.55402 0.392402 0.0134091)
(0.579373 0.410227 0.0140344)
(0.414961 0.29411 0.0100141)
(0.428781 0.303888 0.0103503)
(0.44354 0.314326 0.0107097)
(0.459335 0.325493 0.0110948)
(0.476326 0.3375 0.0115096)
(0.494782 0.350535 0.0119609)
(0.515126 0.364893 0.0124594)
(0.537888 0.380942 0.0130184)
(0.563272 0.398821 0.0136435)
(0.590123 0.417713 0.0143064)
(0.421133 0.298405 0.010168)
(0.435202 0.308355 0.0105106)
(0.450258 0.318999 0.0108776)
(0.466434 0.330429 0.0112724)
(0.483929 0.342786 0.0117001)
(0.50304 0.356275 0.0121681)
(0.524167 0.371175 0.0126866)
(0.547655 0.387726 0.0132644)
(0.573297 0.405777 0.0138969)
(0.599639 0.424314 0.0145481)
(0.427554 0.301101 0.0103279)
(0.44193 0.311249 0.0106783)
(0.457354 0.322129 0.0110546)
(0.473974 0.333845 0.0114608)
(0.491993 0.346536 0.0119018)
(0.511681 0.360388 0.0123845)
(0.533328 0.375607 0.0129165)
(0.55705 0.39228 0.013501)
(0.58235 0.410087 0.014126)
(0.60807 0.428258 0.0147631)
(0.41793 0.296279 0.0100975)
(0.431996 0.306231 0.0104407)
(0.447091 0.316907 0.0108096)
(0.463298 0.328364 0.0112061)
(0.480719 0.340674 0.0116331)
(0.499498 0.353934 0.0120943)
(0.519834 0.368283 0.012595)
(0.54196 0.383876 0.0131412)
(0.565967 0.400769 0.013736)
(0.591565 0.418748 0.0143731)
(0.424414 0.300769 0.0102592)
(0.438487 0.310722 0.0106029)
(0.453499 0.321335 0.01097)
(0.469543 0.332672 0.011363)
(0.486769 0.34484 0.0117856)
(0.505442 0.358021 0.0122448)
(0.525995 0.372517 0.0127515)
(0.548978 0.388709 0.01332)
(0.574609 0.406744 0.0139562)
(0.601629 0.425735 0.0146294)
(0.430014 0.304655 0.0103991)
(0.444323 0.31477 0.0107489)
(0.459619 0.325579 0.0111233)
(0.476028 0.337169 0.0115257)
(0.493745 0.349676 0.011961)
(0.513066 0.363305 0.0124368)
(0.534398 0.378339 0.0129637)
(0.558107 0.395032 0.0135512)
(0.583979 0.413226 0.0141945)
(0.61049 0.431863 0.0148562)
(0.435842 0.306838 0.0105445)
(0.450449 0.317144 0.010902)
(0.466102 0.328181 0.0112856)
(0.482945 0.340047 0.011699)
(0.501175 0.352879 0.0121475)
(0.521063 0.366863 0.012638)
(0.542914 0.382212 0.0131785)
(0.566867 0.39903 0.013773)
(0.592401 0.416983 0.0144091)
(0.618314 0.435271 0.0150573)
(0.427637 0.303119 0.0103497)
(0.441921 0.313221 0.0106997)
(0.457224 0.32404 0.0110752)
(0.473624 0.335629 0.0114783)
(0.491219 0.348057 0.0119118)
(0.510155 0.361422 0.0123795)
(0.530654 0.375878 0.0128874)
(0.55299 0.391608 0.0134429)
(0.577274 0.408683 0.0140496)
(0.603082 0.426791 0.0146979)
(0.433428 0.307117 0.0104943)
(0.447739 0.317234 0.0108452)
(0.462989 0.328012 0.0112198)
(0.479266 0.339509 0.0116203)
(0.496712 0.351825 0.0120505)
(0.515586 0.365141 0.0125173)
(0.536325 0.379759 0.013032)
(0.559504 0.396077 0.0136095)
(0.585349 0.414246 0.0142564)
(0.612515 0.43332 0.0149397)
(0.438488 0.310617 0.0106209)
(0.453023 0.320888 0.0109776)
(0.468545 0.331852 0.0113592)
(0.485175 0.343594 0.0117689)
(0.503101 0.356242 0.0122116)
(0.522616 0.369999 0.012695)
(0.544133 0.385154 0.0132299)
(0.56804 0.401971 0.0138268)
(0.594115 0.420291 0.0144807)
(0.620776 0.439013 0.0151527)
(0.443766 0.312318 0.0107528)
(0.458593 0.322774 0.0111171)
(0.474464 0.33396 0.0115077)
(0.491516 0.345968 0.0119283)
(0.509944 0.358932 0.012384)
(0.530017 0.373036 0.012882)
(0.552054 0.388503 0.0134307)
(0.576214 0.40545 0.0140349)
(0.601958 0.423532 0.0146818)
(0.628044 0.441922 0.0153409)
(0.436803 0.309575 0.0105895)
(0.451296 0.319822 0.0109461)
(0.466802 0.33078 0.0113282)
(0.483389 0.342498 0.011738)
(0.501153 0.355039 0.0121779)
(0.520239 0.368504 0.0126521)
(0.540885 0.383055 0.013167)
(0.563403 0.398904 0.0137313)
(0.587933 0.416138 0.0143494)
(0.613927 0.434358 0.0150087)
(0.441961 0.313124 0.0107184)
(0.456495 0.323396 0.0110762)
(0.471971 0.334329 0.011458)
(0.488469 0.345977 0.0118658)
(0.506123 0.358435 0.0123035)
(0.525186 0.371877 0.0127777)
(0.546097 0.386607 0.0133)
(0.56945 0.403035 0.0138863)
(0.595489 0.421324 0.0145438)
(0.622783 0.440469 0.0152372)
(0.446516 0.316263 0.0108323)
(0.461265 0.326683 0.0111958)
(0.477003 0.337795 0.0115843)
(0.493844 0.34968 0.0120012)
(0.511968 0.362462 0.0124512)
(0.531664 0.37634 0.0129419)
(0.553352 0.391605 0.0134847)
(0.577439 0.408535 0.0140907)
(0.603699 0.426968 0.014755)
(0.630496 0.445765 0.0154374)
(0.451287 0.317515 0.0109518)
(0.466323 0.328114 0.0113226)
(0.482402 0.33944 0.01172)
(0.499656 0.351585 0.0121476)
(0.518272 0.364674 0.0126105)
(0.538519 0.378891 0.0131157)
(0.560726 0.394465 0.0136725)
(0.585076 0.41153 0.0142861)
(0.611014 0.429728 0.0149437)
(0.637258 0.448211 0.0156138)
(0.445503 0.315701 0.010744)
(0.460197 0.326087 0.0111066)
(0.475897 0.337179 0.0114948)
(0.492667 0.349021 0.0119105)
(0.510594 0.361673 0.0123563)
(0.529823 0.375232 0.0128362)
(0.550603 0.38987 0.0133571)
(0.573281 0.405821 0.0139288)
(0.598029 0.423195 0.0145572)
(0.624186 0.441511 0.0152278)
(0.450082 0.318839 0.010856)
(0.464827 0.329257 0.01122)
(0.480516 0.340337 0.0116083)
(0.497222 0.352128 0.0120229)
(0.515074 0.364719 0.0124674)
(0.534314 0.378279 0.0129483)
(0.555383 0.393112 0.0134775)
(0.578894 0.409639 0.0140713)
(0.605106 0.428034 0.014738)
(0.632515 0.447239 0.0154411)
(0.454166 0.321643 0.0109568)
(0.469119 0.332203 0.0113262)
(0.485061 0.343456 0.011721)
(0.502102 0.355477 0.0121442)
(0.520415 0.368386 0.0126006)
(0.540283 0.382377 0.0130978)
(0.562129 0.397743 0.0136473)
(0.586379 0.414775 0.0142609)
(0.612807 0.433308 0.0149345)
(0.639726 0.452172 0.0156265)
(0.458469 0.322472 0.0110628)
(0.473704 0.333207 0.0114394)
(0.489981 0.344668 0.0118427)
(0.507427 0.356942 0.0122764)
(0.526223 0.37015 0.0127453)
(0.546634 0.384473 0.0132567)
(0.568999 0.400146 0.01382)
(0.593522 0.417317 0.0144416)
(0.619637 0.435621 0.0151086)
(0.646024 0.454185 0.0157888)
)
;

boundaryField
{
    inlet
    {
        type            calculated;
        value           nonuniform 0();
    }
    outlet
    {
        type            calculated;
        value           nonuniform 0();
    }
    bottom
    {
        type            calculated;
        value           uniform (0 0 0);
    }
    top
    {
        type            symmetryPlane;
    }
    side1
    {
        type            symmetryPlane;
    }
    side2
    {
        type            symmetryPlane;
    }
    procBoundary25to17
    {
        type            processor;
        value           nonuniform List<vector> 
50
(
(0.399708 0.283547 0.00963348)
(0.413353 0.29321 0.0099648)
(0.428167 0.303698 0.0103248)
(0.444306 0.315119 0.0107175)
(0.46194 0.327592 0.011147)
(0.481228 0.341228 0.0116175)
(0.502273 0.356098 0.0121316)
(0.52502 0.37216 0.0126883)
(0.549187 0.389217 0.0132807)
(0.574693 0.407224 0.0139074)
(0.411113 0.291599 0.00992608)
(0.425017 0.301442 0.010265)
(0.440081 0.312103 0.0106326)
(0.456459 0.323688 0.0110329)
(0.474323 0.336319 0.0114702)
(0.49385 0.350117 0.0119491)
(0.515161 0.365166 0.012473)
(0.538209 0.381429 0.0130408)
(0.562661 0.398672 0.013645)
(0.588417 0.416838 0.0142835)
(0.421922 0.299226 0.0102053)
(0.436071 0.30924 0.0105515)
(0.451369 0.320063 0.0109265)
(0.467967 0.3318 0.0113341)
(0.486039 0.344572 0.0117788)
(0.505773 0.35851 0.0122656)
(0.527314 0.373712 0.0127985)
(0.550627 0.39015 0.0133771)
(0.575331 0.407556 0.0139925)
(0.601304 0.425857 0.0146427)
(0.43211 0.306413 0.0104704)
(0.446491 0.316588 0.0108237)
(0.46201 0.327563 0.0112058)
(0.478813 0.339441 0.0116205)
(0.497074 0.352342 0.0120722)
(0.516992 0.366402 0.0125665)
(0.538736 0.381739 0.0131081)
(0.562286 0.398333 0.013697)
(0.587218 0.415884 0.0143236)
(0.613381 0.434302 0.0149853)
(0.44176 0.313217 0.0106534)
(0.45636 0.323544 0.0110133)
(0.472087 0.334663 0.0114017)
(0.489082 0.346672 0.0118226)
(0.507517 0.35969 0.0122804)
(0.527599 0.37386 0.0127811)
(0.549522 0.389314 0.01333)
(0.573285 0.406046 0.0139281)
(0.598421 0.423726 0.0145651)
(0.62475 0.442243 0.0152378)
)
;
    }
    procBoundary25to24
    {
        type            processor;
        value           nonuniform List<vector> 
20
(
(0.385211 0.273018 0.00929054)
(0.393102 0.27856 0.00948523)
(0.399765 0.283214 0.00965028)
(0.405533 0.285573 0.0097935)
(0.394635 0.279665 0.00953309)
(0.401958 0.284801 0.00971392)
(0.408014 0.289022 0.00986413)
(0.413233 0.290913 0.00999395)
(0.403612 0.285996 0.00976541)
(0.410407 0.290753 0.00993324)
(0.415902 0.294574 0.0100696)
(0.42061 0.296025 0.0101869)
(0.412097 0.291977 0.00998629)
(0.418404 0.296386 0.010142)
(0.423383 0.29984 0.0102656)
(0.427618 0.300878 0.0103712)
(0.420162 0.297662 0.0101255)
(0.426017 0.301747 0.0102686)
(0.43052 0.304862 0.0103788)
(0.434315 0.305512 0.0104717)
)
;
    }
    procBoundary25to26
    {
        type            processor;
        value           nonuniform List<vector> 
20
(
(0.616672 0.436619 0.0149548)
(0.625995 0.443011 0.0151948)
(0.633721 0.448315 0.0153946)
(0.641283 0.451549 0.0155906)
(0.629372 0.44546 0.0153161)
(0.637694 0.451137 0.0155327)
(0.644798 0.455989 0.0157182)
(0.651806 0.458718 0.0159018)
(0.641278 0.453739 0.0156617)
(0.648737 0.458799 0.0158578)
(0.655278 0.463242 0.0160303)
(0.661779 0.465498 0.0162024)
(0.652428 0.461483 0.0159923)
(0.659135 0.466005 0.0161702)
(0.665168 0.47008 0.0163307)
(0.671206 0.471895 0.0164922)
(0.662927 0.468767 0.0162276)
(0.668975 0.472817 0.0163858)
(0.674548 0.476557 0.0165324)
(0.680162 0.47796 0.0166811)
)
;
    }
}


// ************************************************************************* //
