/*--------------------------------*- C++ -*----------------------------------*\
| =========                 |                                                 |
| \\      /  F ield         | OpenFOAM: The Open Source CFD Toolbox           |
|  \\    /   O peration     | Version:  2.4.0                                 |
|   \\  /    A nd           | Web:      www.OpenFOAM.org                      |
|    \\/     M anipulation  |                                                 |
\*---------------------------------------------------------------------------*/
FoamFile
{
    version     2.0;
    format      ascii;
    class       volVectorField;
    location    "0.15";
    object      Ur;
}
// * * * * * * * * * * * * * * * * * * * * * * * * * * * * * * * * * * * * * //

dimensions      [0 1 -1 0 0 0 0];

internalField   nonuniform List<vector> 
200
(
(-1.12278e+16 -2.65102e+15 -1.17948e+16)
(-1.13116e+16 -2.79471e+15 -7.48482e+15)
(-7.34352e+15 -1.75698e+15 -3.39397e+15)
(-6.46068e+15 -1.0334e+15 -2.24203e+15)
(-4.97762e+15 -8.43659e+14 -1.44239e+15)
(-4.08484e+15 -3.75821e+14 -9.13256e+14)
(-3.71885e+15 -3.07975e+14 -6.86257e+14)
(-3.20802e+15 -1.00294e+14 -6.84795e+14)
(-2.67488e+15 -1.84483e+14 -8.38851e+14)
(-2.092e+15 -1.30462e+13 -7.38768e+14)
(-9.47722e+15 -6.12585e+15 -1.01488e+16)
(-5.49997e+15 -3.65791e+15 -4.33502e+15)
(-5.34827e+15 -2.71546e+15 -2.43271e+15)
(-4.77393e+15 -2.23967e+15 -1.76616e+15)
(-4.04909e+15 -1.55529e+15 -1.2546e+15)
(-3.69952e+15 -1.09956e+15 -8.95699e+14)
(-3.26381e+15 -4.89535e+14 -7.0586e+14)
(-3.00077e+15 -4.27861e+14 -7.47038e+14)
(-2.47738e+15 -2.96253e+14 -7.67299e+14)
(-1.94666e+15 -3.15394e+14 -6.52993e+14)
(-4.09032e+15 -2.78532e+15 -3.07958e+15)
(-3.67552e+15 -2.32738e+15 -1.74173e+15)
(-3.73764e+15 -2.17965e+15 -1.40507e+15)
(-3.40697e+15 -1.69919e+15 -1.0216e+15)
(-2.95163e+15 -1.4459e+15 -8.74544e+14)
(-2.70723e+15 -9.18104e+14 -6.89885e+14)
(-2.13724e+15 -6.90284e+14 -6.30276e+14)
(-1.69719e+15 -4.93563e+14 -5.8156e+14)
(-1.32901e+15 -5.35868e+14 -5.27282e+14)
(-1.00507e+15 -2.83609e+14 -4.65254e+14)
(-6.84416e+14 -2.04045e+15 -1.32213e+15)
(-8.90964e+14 -1.93488e+15 -9.38785e+14)
(-8.9953e+14 -1.61884e+15 -6.88784e+14)
(-9.7224e+14 -1.51056e+15 -5.66894e+14)
(-8.74183e+14 -1.17803e+15 -5.06095e+14)
(-8.92426e+14 -1.05367e+15 -4.44891e+14)
(-7.24189e+14 -7.51935e+14 -4.20632e+14)
(-6.69497e+14 -6.52289e+14 -4.04008e+14)
(-4.91277e+14 -3.85911e+14 -3.60298e+14)
(-4.37857e+14 -2.49252e+14 -3.24861e+14)
(-4.49178e+15 -1.69516e+15 -4.38952e+15)
(-3.30882e+15 -1.17051e+15 -2.512e+15)
(-2.78063e+15 -6.0287e+14 -2.19641e+15)
(-2.38284e+15 -5.11393e+14 -2.05412e+15)
(-1.7918e+15 -2.15492e+14 -1.70167e+15)
(-1.53467e+15 -2.38684e+14 -1.35961e+15)
(-1.18117e+15 -5.33422e+13 -1.15089e+15)
(-1.13621e+15 -1.49726e+14 -1.26721e+15)
(-1.01599e+15 -3.28755e+13 -1.32603e+15)
(-1.10731e+15 -1.28519e+14 -1.23782e+15)
(-1.30304e+15 -2.56868e+15 -3.29503e+15)
(-1.23518e+15 -1.64122e+15 -2.45528e+15)
(-1.81186e+15 -1.47558e+15 -2.16721e+15)
(-1.45752e+15 -8.83735e+14 -1.77998e+15)
(-1.54443e+15 -7.73535e+14 -1.57056e+15)
(-1.18336e+15 -4.03306e+14 -1.3074e+15)
(-1.15658e+15 -3.94599e+14 -1.2408e+15)
(-9.69072e+14 -2.26335e+14 -1.3606e+15)
(-9.76709e+14 -3.13672e+14 -1.48537e+15)
(-9.14742e+14 -1.63875e+14 -1.27492e+15)
(7.49359e+14 -1.15062e+15 -1.67771e+15)
(7.16313e+14 -9.94603e+14 -1.81893e+15)
(3.91154e+14 -6.49539e+14 -1.63975e+15)
(4.54445e+13 -6.79841e+14 -1.5209e+15)
(-4.8472e+13 -4.62813e+14 -1.35965e+15)
(-2.24868e+14 -4.73156e+14 -1.23997e+15)
(-2.5594e+14 -3.0756e+14 -1.13084e+15)
(-3.42997e+14 -3.80953e+14 -1.09695e+15)
(-3.13301e+14 -2.39278e+14 -1.06715e+15)
(-4.03205e+14 -2.88913e+14 -9.79189e+14)
(1.6147e+15 -4.34396e+14 -1.47251e+15)
(8.32693e+14 -5.77537e+14 -1.13675e+15)
(9.76762e+14 -3.72674e+14 -1.1685e+15)
(7.6844e+14 -1.75243e+14 -9.97818e+14)
(5.17578e+14 -2.38124e+14 -9.19222e+14)
(4.54816e+14 -8.67585e+13 -7.92589e+14)
(2.39741e+14 -2.13335e+14 -7.41789e+14)
(2.07777e+14 -1.40636e+14 -7.13663e+14)
(4.07736e+13 -2.00291e+14 -7.12034e+14)
(7.7128e+13 -6.26798e+13 -6.88895e+14)
(2.23367e+15 -6.24204e+12 -2.00057e+15)
(1.36275e+15 -1.71087e+14 -1.81239e+15)
(1.40022e+15 -2.92196e+14 -1.93994e+15)
(4.83563e+14 -1.535e+14 -1.96832e+15)
(8.13737e+14 -9.08828e+13 -1.71228e+15)
(4.78742e+14 2.12315e+13 -1.17514e+15)
(4.66894e+14 -7.21451e+13 -1.16102e+15)
(3.91124e+14 2.78869e+13 -1.01377e+15)
(2.83861e+14 -7.57097e+13 -9.35166e+14)
(2.67188e+14 5.70977e+12 -8.98633e+14)
(3.84825e+15 3.47367e+14 -1.78503e+15)
(2.88426e+15 -2.65051e+13 -1.75823e+15)
(2.21784e+15 9.94333e+13 -1.50611e+15)
(1.42515e+15 -1.17801e+14 -1.44267e+15)
(1.16116e+15 -3.73148e+12 -1.27142e+15)
(7.72323e+14 -1.22919e+14 -1.16498e+15)
(7.0504e+14 -1.49584e+13 -1.02351e+15)
(4.87096e+14 -1.32548e+14 -9.8853e+14)
(4.53028e+14 -6.09742e+13 -9.51143e+14)
(3.15221e+14 -2.00406e+14 -9.39642e+14)
(3.40302e+15 6.45704e+14 -9.43442e+14)
(2.75767e+15 5.05931e+14 -8.72937e+14)
(2.02435e+15 1.64474e+14 -9.11856e+14)
(1.70778e+15 1.53437e+14 -8.48253e+14)
(1.27938e+15 -3.11476e+13 -8.96784e+14)
(1.08495e+15 2.21266e+13 -8.17131e+14)
(8.22352e+14 -1.28392e+14 -7.79779e+14)
(7.39831e+14 -6.7197e+13 -7.26829e+14)
(5.57847e+14 -2.12188e+14 -7.68657e+14)
(4.91581e+14 -1.3566e+14 -7.21136e+14)
(2.79675e+15 1.09101e+15 -3.32832e+14)
(2.23614e+15 6.29149e+14 -4.76213e+14)
(1.94118e+15 4.84124e+14 -4.71749e+14)
(1.5537e+15 1.83865e+14 -4.83046e+14)
(1.36078e+15 1.62995e+14 -4.25776e+14)
(1.09135e+15 -2.01369e+13 -4.36739e+14)
(9.53514e+14 1.03383e+13 -4.05749e+14)
(7.68699e+14 -1.40063e+14 -4.50315e+14)
(6.85029e+14 -7.49695e+13 -4.2685e+14)
(4.9963e+14 -2.00501e+14 -5.29686e+14)
(4.24514e+15 3.19316e+14 4.30903e+14)
(3.57575e+15 4.47508e+13 -1.79158e+14)
(3.3441e+15 2.35643e+14 -3.3294e+14)
(2.90376e+15 7.44275e+13 -6.53503e+14)
(2.61373e+15 1.16188e+14 -4.58338e+14)
(2.11872e+15 8.65554e+12 -4.84765e+14)
(1.83111e+15 1.06827e+14 -3.73993e+14)
(1.44848e+15 3.1657e+13 -3.83064e+14)
(1.20521e+15 1.12712e+14 -3.12005e+14)
(9.08985e+14 1.41974e+13 -3.51253e+14)
(2.87919e+15 6.97393e+14 3.90114e+14)
(2.93838e+15 5.09777e+14 6.59059e+14)
(2.27203e+15 3.06373e+13 2.30158e+14)
(2.17951e+15 3.79849e+14 9.89108e+13)
(1.76342e+15 3.11905e+14 -3.00501e+14)
(1.64488e+15 3.24184e+14 -3.29165e+14)
(1.30022e+15 1.35839e+14 -3.66236e+14)
(1.16058e+15 2.15913e+14 -3.01799e+14)
(8.95387e+14 1.04528e+14 -3.52969e+14)
(7.37391e+14 1.69863e+14 -3.40144e+14)
(2.96894e+15 9.31262e+14 1.37494e+15)
(1.93906e+15 2.68498e+14 5.98935e+14)
(1.90761e+15 3.56951e+14 3.4061e+14)
(1.1978e+15 -1.25461e+14 -1.75131e+14)
(1.70932e+15 2.22115e+14 4.3748e+14)
(1.33139e+15 3.37462e+14 2.31006e+14)
(1.06106e+15 3.31684e+14 -5.68515e+13)
(8.03513e+14 1.57351e+14 -1.95839e+14)
(6.62681e+14 2.08304e+14 -2.16723e+14)
(4.57429e+14 7.67803e+13 -3.06964e+14)
(1.05225e+15 4.45907e+14 1.37466e+15)
(1.2059e+15 7.22871e+14 9.57376e+14)
(7.66134e+14 2.85066e+14 5.10247e+14)
(8.19234e+14 2.93814e+14 3.39158e+14)
(6.18852e+14 1.05231e+14 3.60179e+14)
(6.08135e+14 3.06581e+14 3.06826e+14)
(4.73983e+14 1.88729e+14 9.29965e+13)
(4.43577e+14 2.27606e+14 -6.8501e+12)
(3.4016e+14 8.36131e+13 -1.17626e+14)
(2.98924e+14 1.44803e+14 -1.51177e+14)
(1.7629e+15 4.11254e+14 3.23263e+14)
(1.54028e+15 5.74667e+14 2.99728e+14)
(9.19659e+14 3.60223e+14 -1.72084e+14)
(8.6107e+14 5.77945e+14 -1.83881e+14)
(4.62976e+14 9.46469e+13 -2.4622e+14)
(3.73667e+14 -1.56084e+13 4.98332e+13)
(2.30095e+14 -1.14838e+14 8.7452e+12)
(3.06484e+14 -8.69196e+12 5.40847e+13)
(2.59489e+14 -4.64626e+13 1.89491e+12)
(2.5132e+14 4.01681e+13 3.84156e+13)
(-4.36898e+14 1.22998e+15 1.88945e+14)
(-4.80795e+14 5.78064e+14 -5.34061e+14)
(4.72064e+14 4.90512e+14 3.09724e+14)
(3.07267e+14 -6.8802e+14 1.44036e+14)
(9.63254e+14 1.43694e+15 -8.67313e+13)
(1.0068e+15 9.02972e+14 -1.53941e+14)
(7.12284e+14 2.21612e+14 -4.43692e+13)
(3.67057e+14 2.31781e+13 -5.4129e+13)
(3.02621e+14 8.45855e+13 5.40742e+12)
(2.11389e+14 -7.12639e+12 -2.7153e+13)
(-9.27787e+14 3.80233e+14 3.28295e+14)
(-1.16168e+15 4.83025e+14 3.70372e+14)
(-9.67166e+14 -2.17537e+14 1.4741e+14)
(8.23675e+14 3.29296e+14 -2.98653e+14)
(-4.15393e+15 -3.30568e+15 -1.95812e+15)
(1.03791e+15 -1.43337e+14 6.12301e+14)
(1.41039e+14 4.85986e+14 1.11492e+14)
(2.24803e+13 2.61479e+14 6.41856e+13)
(7.89494e+13 6.78453e+13 -6.56426e+12)
(8.84253e+13 1.14282e+14 7.38442e+12)
(-1.98572e+15 -2.59914e+14 1.12729e+15)
(-1.3752e+15 -6.42114e+14 6.79411e+14)
(-4.89541e+14 -3.53457e+13 3.16732e+14)
(-7.72903e+14 -2.67245e+14 6.48425e+13)
(-2.50612e+14 2.38871e+14 1.78524e+14)
(-1.03145e+15 -8.02274e+14 8.61684e+14)
(-1.44275e+14 1.29591e+14 3.07051e+14)
(-6.43009e+13 8.31909e+13 4.71101e+13)
(-7.18032e+13 9.67006e+13 3.68196e+13)
(-5.82477e+13 2.69446e+12 -1.28409e+13)
)
;

boundaryField
{
    inlet
    {
        type            calculated;
        value           nonuniform 0();
    }
    outlet
    {
        type            calculated;
        value           nonuniform 0();
    }
    bottom
    {
        type            calculated;
        value           uniform (0 0 0);
    }
    top
    {
        type            symmetryPlane;
    }
    side1
    {
        type            symmetryPlane;
    }
    side2
    {
        type            symmetryPlane;
    }
    procBoundary6to5
    {
        type            processor;
        value           nonuniform List<vector> 
20
(
(-2.05782e+16 2.50971e+15 -7.2242e+15)
(-7.45339e+15 -1.82997e+15 -7.02199e+15)
(-5.51771e+15 -4.33272e+15 -5.6157e+15)
(-5.51243e+14 -2.3864e+15 -1.79588e+15)
(-3.23558e+15 -1.83865e+15 -6.15356e+15)
(-4.86758e+13 -2.429e+15 -5.29691e+15)
(1.80396e+15 -1.05809e+15 -2.79615e+15)
(2.88747e+15 -4.39037e+14 -2.02927e+15)
(3.67911e+15 6.71785e+14 -7.66829e+14)
(5.09463e+15 8.01206e+14 -2.03617e+15)
(4.26432e+15 9.05503e+14 -9.41571e+14)
(3.44249e+15 1.40356e+15 -2.43972e+14)
(4.49248e+15 3.31076e+14 8.55859e+14)
(3.85888e+15 2.46885e+15 1.3498e+15)
(3.20153e+15 1.70895e+15 3.07492e+15)
(1.4455e+15 9.59755e+14 2.30463e+15)
(2.95692e+15 1.41145e+15 2.44402e+15)
(-5.86942e+13 1.55846e+15 4.08869e+14)
(-1.02398e+15 1.75453e+15 1.22452e+15)
(-2.19693e+15 1.61573e+14 1.21365e+15)
)
;
    }
    procBoundary6to7
    {
        type            processor;
        value           nonuniform List<vector> 
20
(
(-1.79071e+15 -1.31775e+14 -5.82944e+14)
(-1.49884e+15 -1.47077e+14 -5.56763e+14)
(-9.07496e+14 -2.1192e+14 -3.88229e+14)
(-2.76174e+14 -5.11698e+12 -2.82653e+14)
(-9.89649e+14 -1.87586e+13 -1.16051e+15)
(-9.52947e+14 -2.3058e+14 -1.07321e+15)
(-3.11146e+14 -1.31837e+14 -8.40827e+14)
(-5.30742e+13 -1.0835e+14 -5.61917e+14)
(1.7613e+14 -1.13297e+14 -8.9698e+14)
(2.9106e+14 -9.05121e+13 -8.26711e+14)
(3.24093e+14 -2.38206e+14 -6.6157e+14)
(4.1298e+14 -6.62175e+13 -3.9379e+14)
(6.94641e+14 8.29858e+13 -3.60558e+14)
(4.86986e+14 3.67579e+13 -3.94488e+14)
(3.52825e+14 1.37331e+14 -2.86447e+14)
(1.73611e+14 5.82199e+12 -1.83594e+14)
(2.08702e+14 -3.24537e+13 -2.11059e+13)
(1.79117e+14 7.63097e+13 -1.62952e+12)
(3.77929e+13 3.40998e+12 -2.57597e+13)
(-1.38233e+13 8.42229e+13 6.38504e+11)
)
;
    }
    procBoundary6to14
    {
        type            processor;
        value           nonuniform List<vector> 
50
(
(4.8157e+14 -9.48736e+14 -5.61543e+14)
(3.14064e+14 -8.5989e+14 -5.6823e+14)
(9.04292e+13 -9.46591e+14 -4.70262e+14)
(1.12867e+13 -7.97772e+14 -4.32393e+14)
(-1.48646e+14 -7.6532e+14 -3.76134e+14)
(-1.45137e+14 -5.82955e+14 -3.31986e+14)
(-2.32216e+14 -5.36407e+14 -3.66257e+14)
(-1.48827e+14 -3.54121e+14 -3.42447e+14)
(-1.53427e+14 -2.84087e+14 -3.054e+14)
(-4.61004e+13 -6.91301e+13 -2.6895e+14)
(1.92952e+15 5.42778e+14 -8.93821e+14)
(1.22747e+15 1.44291e+14 -9.24255e+14)
(9.18213e+14 1.24126e+14 -6.81024e+14)
(7.84766e+14 9.34311e+13 -6.98261e+14)
(5.4075e+14 1.58709e+14 -5.9155e+14)
(4.85054e+14 1.25002e+14 -5.21778e+14)
(3.95487e+14 1.563e+14 -5.14323e+14)
(1.13969e+14 -5.1337e+12 -5.40101e+14)
(1.34333e+14 8.63179e+13 -4.95449e+14)
(4.00866e+13 5.10179e+13 -4.87751e+14)
(3.18053e+15 1.13263e+15 8.40918e+13)
(2.54523e+15 8.85277e+14 -9.08033e+13)
(2.06346e+15 5.09565e+14 -2.06029e+14)
(1.72604e+15 3.89967e+14 -1.87874e+14)
(1.37158e+15 1.41087e+14 -2.03513e+14)
(1.21388e+15 1.58792e+14 -1.57137e+14)
(9.62477e+14 -1.91205e+13 -2.27836e+14)
(8.50113e+14 2.58149e+13 -2.52489e+14)
(6.50615e+14 -6.22345e+13 -3.08036e+14)
(5.13967e+14 1.17621e+13 -2.76388e+14)
(9.02275e+14 4.46731e+14 1.48189e+15)
(5.32949e+14 2.77254e+14 8.44492e+14)
(6.63991e+14 3.1358e+14 4.65016e+14)
(4.06343e+14 1.11535e+13 3.66546e+14)
(3.89258e+14 7.71805e+13 3.56021e+14)
(2.2857e+14 -1.33447e+13 2.47945e+14)
(2.64047e+14 1.10293e+14 1.56421e+14)
(1.87064e+14 1.62791e+13 3.0971e+13)
(2.13356e+14 1.12814e+14 -1.09878e+13)
(1.34459e+14 5.11406e+12 -8.61622e+13)
(-1.67871e+15 -1.33654e+15 7.9278e+14)
(-7.11329e+14 1.2941e+14 5.4238e+14)
(-6.84466e+14 -9.31687e+13 2.60075e+14)
(-5.08542e+14 -1.07543e+14 2.36634e+14)
(-4.2768e+14 -7.86388e+14 3.55804e+14)
(-4.09565e+14 -5.28425e+14 4.37557e+14)
(-2.96212e+14 -1.2096e+14 1.92303e+14)
(-1.23411e+14 2.77911e+13 8.51317e+13)
(-1.6593e+14 -6.83104e+13 4.97103e+12)
(-7.73958e+13 3.84398e+13 1.16788e+13)
)
;
    }
}


// ************************************************************************* //
