/*--------------------------------*- C++ -*----------------------------------*\
| =========                 |                                                 |
| \\      /  F ield         | OpenFOAM: The Open Source CFD Toolbox           |
|  \\    /   O peration     | Version:  2.4.0                                 |
|   \\  /    A nd           | Web:      www.OpenFOAM.org                      |
|    \\/     M anipulation  |                                                 |
\*---------------------------------------------------------------------------*/
FoamFile
{
    version     2.0;
    format      ascii;
    class       surfaceScalarField;
    location    "0.05";
    object      phib;
}
// * * * * * * * * * * * * * * * * * * * * * * * * * * * * * * * * * * * * * //

dimensions      [0 3 -1 0 0 0 0];

internalField   nonuniform List<scalar> 
490
(
-3.80772e-05
-1.50163e-05
1.88526e-05
-8.56823e-05
-5.26152e-05
6.73008e-06
-0.000121513
-3.96891e-05
-6.47602e-06
-0.000158444
-0.000102034
1.3507e-05
-0.000169911
-0.000120937
4.25538e-05
-0.000153565
-0.000132928
1.89798e-05
1.37999e-05
-0.000122396
-0.000143495
5.68619e-05
-0.000110364
-1.80412e-05
0.000168252
-7.04311e-05
-0.000104405
-4.45871e-05
6.18557e-06
-6.57052e-05
2.02049e-05
4.5484e-05
-0.000169147
2.58626e-05
2.49634e-05
-0.000227123
2.78215e-06
1.55058e-05
-0.000317724
-2.96324e-05
1.81988e-05
-0.000384295
-6.89262e-05
1.45606e-05
-0.0001978
-8.13138e-05
-0.00023811
-0.000148933
-3.85006e-05
-0.000132762
-3.84975e-05
-3.21914e-05
-0.000188608
0.000163943
-6.84049e-05
-0.000204466
-1.36905e-05
-0.000187144
-9.51866e-05
9.0089e-05
4.03025e-05
-0.00019857
9.45046e-05
3.47412e-05
-0.000300196
7.99639e-05
2.4444e-05
-0.00039674
4.67555e-05
2.01565e-05
-0.000260425
5.31854e-05
-0.000258427
-0.000234003
7.77673e-05
-0.000185503
-0.000198208
9.11355e-05
-0.000165431
0.000125173
-3.06014e-05
-0.000324971
0.000281853
4.6053e-05
-0.000271137
7.08629e-05
-0.000179787
-8.50928e-05
4.55048e-05
-0.000207503
3.53781e-05
-0.000301161
2.4825e-05
-0.000225767
-0.0001942
-0.000231754
-0.00013135
-0.000152394
-0.000157012
0.000112707
-0.000296064
0.000217324
-0.000222125
0.000340514
-0.000241803
-0.000144923
-3.23506e-05
3.02648e-06
3.56172e-05
-0.000113192
5.78223e-06
2.15271e-05
-0.0001422
-3.93852e-05
7.23349e-06
-0.000250424
-2.6746e-05
2.4738e-05
-0.000244925
-7.78146e-05
5.89606e-06
-1.38819e-05
-2.60624e-05
-0.000259723
-3.12919e-05
1.41942e-06
-0.000165941
4.917e-05
-3.91096e-06
-0.000162352
0.00017628
-3.94441e-05
-0.000223442
5.25899e-06
-0.000202768
-6.91015e-05
6.54971e-05
6.71148e-05
-0.000121214
4.1265e-05
4.15936e-05
-0.000195194
1.90424e-05
3.10578e-05
-0.000199797
-3.06888e-06
-8.75121e-07
-2.17235e-05
3.24343e-05
-0.000273762
-0.000146806
0.000115772
-0.000254861
-0.000196323
8.55452e-05
-0.000167372
7.80891e-05
-6.78779e-05
-0.000399053
0.00032319
-6.55899e-05
-0.000423421
-1.94769e-05
-8.35686e-05
-6.43024e-05
0.000115648
6.94539e-05
-0.000156777
0.000111597
5.68844e-05
-0.00021729
7.94722e-05
2.45273e-05
-2.79823e-05
8.09889e-05
-0.00025321
-0.000126735
0.000145317
-0.000272557
-0.000184333
0.000158486
-0.000170618
0.000224573
-3.66157e-05
-0.000452176
0.000279566
-1.83006e-05
-0.000429542
0.000259774
-0.00018146
-0.000135475
-1.39914e-05
-0.00032461
-5.09955e-05
7.35613e-05
-0.000111662
5.86494e-05
3.91443e-06
-0.00015031
-3.10234e-05
-0.000219587
1.82066e-05
-0.000200579
0.000308818
-0.000361096
0.000274985
-0.000294896
0.000399021
-0.00024694
0.000352523
-0.000289453
-0.000127783
-6.20882e-05
8.59281e-05
4.45646e-05
-9.63943e-05
3.1962e-05
2.77041e-05
-0.00017328
8.37655e-06
2.71878e-05
-0.000171846
-2.42477e-05
3.56986e-06
-7.79305e-05
4.03227e-05
-0.000221694
-0.000176407
9.917e-05
-0.000261727
-0.000281056
4.97823e-05
-0.000127279
1.5927e-06
-1.44615e-05
-0.000448569
0.00047932
-7.03431e-05
-0.000642641
-3.51979e-05
0.000185624
-2.92981e-05
0.000140673
5.66677e-05
-0.000103504
0.000100343
4.74179e-05
-0.000152169
6.69971e-05
2.11027e-05
-7.07318e-05
0.000107562
-0.000214123
-0.000210753
0.00018304
-0.000276458
-0.000364608
0.000134817
-0.000136653
9.9172e-05
-6.22896e-05
-0.00051908
0.000403759
-4.37479e-05
-0.000674353
4.63871e-05
-0.000289902
0.000153511
-0.000113474
-0.000192799
-9.74852e-06
0.000174834
6.00415e-05
-4.79431e-05
0.000154171
4.12509e-05
5.08834e-05
0.000146183
-0.000153487
-1.82226e-05
0.00019589
-0.000272634
-0.000132896
0.000167571
-0.000142419
0.000355508
-1.36382e-05
-0.000510567
0.000374501
-2.11454e-05
-0.000512312
0.000217916
-0.000300432
-1.62722e-05
8.42814e-05
-0.000137411
-0.000154332
-0.000203165
-0.000121807
7.42577e-05
3.96128e-05
0.000162963
-1.83e-06
0.000246994
-0.000207254
0.000205693
-0.000114897
0.000528087
-0.000412626
0.000533228
-0.000332821
0.000369855
-2.73213e-05
0.000267609
-0.000283992
7.56477e-05
-6.49203e-05
-0.000106235
-1.80751e-05
9.94213e-05
3.68593e-05
-6.82933e-05
6.7667e-05
3.06042e-05
-0.000102657
3.68977e-05
2.79466e-05
-0.000156015
7.69873e-05
-3.07073e-05
-0.000251858
0.000120202
-0.000196432
-0.000453006
5.23693e-05
-5.62516e-05
-0.000126501
-0.000107603
-0.000378791
0.000325117
-0.000237584
-0.000763965
-0.000122851
-0.000379801
5.55979e-05
-0.000181481
6.29859e-05
9.08914e-06
0.000132399
2.96011e-05
-2.51351e-05
0.000119416
2.98928e-05
-9.53658e-05
0.000131118
-2.88503e-06
-0.000215268
0.000182114
-0.000199232
-0.000431223
0.000124198
-6.44971e-05
9.63037e-05
-0.000144092
-0.000467718
0.00032644
-0.00017086
-0.00068596
-8.38856e-05
-0.000521697
2.00842e-05
-0.000128536
-0.000272733
9.09942e-05
-0.000236434
8.90733e-05
6.37922e-05
0.000132429
1.12196e-05
0.000107859
0.000119876
-3.27049e-06
8.0044e-05
0.000176926
-0.000171281
-7.35608e-05
0.00012721
-6.41274e-05
0.000361308
-7.74548e-05
-0.000375715
0.000413515
-0.0001778
-0.000529077
3.93815e-05
-0.000440853
0.000131815
-8.36767e-05
-0.000293112
-0.000121799
-0.000356204
-0.00032503
0.000170497
-0.000134547
-0.000155795
0.000119503
-3.12426e-05
0.00022168
-6.52673e-05
0.000200423
-9.49346e-05
0.000450839
-0.000208213
0.000489787
-0.000410862
-4.05658e-06
0.000284075
6.67092e-05
-0.000224149
-0.000415137
0.000235752
-0.000424243
-0.000157432
0.000135456
4.38149e-05
9.37628e-05
4.56488e-05
0.00010344
4.66374e-05
0.00013116
-1.43826e-05
0.000161378
-0.000214148
0.000124434
-4.2177e-05
-0.000150718
-0.000102246
-0.000321887
-0.000501967
-0.000608639
-0.000427682
-0.000409662
-0.000274721
5.29954e-05
8.53686e-05
8.17416e-05
0.000104587
7.49092e-05
0.000135107
-7.53627e-05
0.000112418
0.000175833
-0.000191259
-8.70123e-05
-0.000355591
-0.000449813
-0.000645046
-0.000589186
-0.000449182
-0.00049272
-0.000415137
-0.000242146
8.08109e-05
3.07773e-05
0.000131153
5.09746e-05
6.68423e-05
2.81404e-05
0.000194608
-7.94331e-05
-2.74316e-05
-0.000344929
-0.000432703
-0.000479397
-0.000488668
-0.000457266
-0.000581947
-0.000477702
-0.000520638
-0.000305948
-0.000245041
7.96574e-06
-3.54062e-05
-2.59294e-05
-0.000153617
-0.000581454
-0.000443731
-0.00067344
-0.000563643
-0.000744575
)
;

boundaryField
{
    inlet
    {
        type            fixedValue;
        value           nonuniform List<scalar> 
20
(
-1.5e-05
-1.5e-05
-1.5e-05
-1.5e-05
-1.5e-05
-1.5e-05
-1.5e-05
-1.5e-05
-1.5e-05
-1.5e-05
-1.5e-05
-1.5e-05
-1.5e-05
-1.5e-05
-1.5e-05
-1.5e-05
-1.5e-05
-1.5e-05
-1.5e-05
-1.5e-05
)
;
    }
    outlet
    {
        type            calculated;
        value           nonuniform 0();
    }
    bottom
    {
        type            fixedValue;
        value           uniform 0;
    }
    top
    {
        type            symmetryPlane;
        value           nonuniform List<scalar> 
40
(
-9.93199e-11
-8.09461e-11
-7.26027e-11
-7.528e-11
-8.75514e-11
-6.55222e-11
-5.71636e-11
-5.55421e-11
-1.07651e-10
-7.30354e-11
-5.13973e-11
-4.02164e-11
-1.25632e-10
-6.67654e-11
-4.14471e-11
-2.80661e-11
-7.95296e-11
-3.15894e-11
-3.05255e-11
-1.88969e-11
-3.68533e-11
-3.02625e-11
-1.8787e-11
-1.15808e-11
-3.8593e-11
-2.16387e-11
-1.13408e-11
-9.52863e-12
-3.31671e-11
-9.17536e-12
-5.90358e-12
-6.65737e-12
-1.19084e-11
-5.39089e-12
-6.2308e-12
-8.84324e-12
-7.30816e-12
-6.40307e-12
-8.1719e-12
-9.59284e-12
)
;
    }
    side1
    {
        type            symmetryPlane;
        value           nonuniform 0();
    }
    side2
    {
        type            symmetryPlane;
        value           nonuniform 0();
    }
    procBoundary8to0
    {
        type            processor;
        value           nonuniform List<scalar> 
50
(
4.92409e-05
9.34902e-05
8.19959e-05
0.000125458
8.98499e-05
9.76025e-05
9.85257e-05
8.53429e-05
6.34461e-05
8.78585e-05
2.75596e-05
6.02626e-05
5.46834e-05
0.000123739
0.000108973
7.37221e-05
3.84363e-05
6.77598e-05
3.13713e-05
2.587e-05
-1.77873e-05
-3.83292e-06
4.85551e-05
4.3981e-05
9.33522e-05
1.31093e-06
1.62049e-05
1.80297e-05
1.18144e-05
9.8422e-06
-5.86409e-05
-2.03488e-05
-3.29234e-06
1.06479e-05
-4.96214e-05
-5.66968e-05
3.261e-05
0.000101363
0.000129522
0.000114819
-8.57183e-05
-7.46696e-05
-0.000104202
-0.000131065
-0.0001211
-7.7504e-05
3.16571e-06
0.000244395
0.000390975
0.000275502
)
;
    }
    procBoundary8to9
    {
        type            processor;
        value           nonuniform List<scalar> 
20
(
0.000118795
0.00032019
0.000377086
0.00039226
0.000354105
0.00024435
0.000399111
0.000331151
0.000116284
0.000233732
-2.88318e-05
-2.1328e-05
6.63095e-05
-0.000355459
-0.00042392
-0.000668044
-0.000365477
-0.000436276
-0.000673538
-0.000649083
)
;
    }
    procBoundary8to16
    {
        type            processor;
        value           nonuniform List<scalar> 
50
(
0.000144677
0.000181537
0.000148797
0.000165561
0.000190523
0.000155419
0.000122099
8.69065e-05
0.000164666
0.00016404
0.000153587
0.000148992
0.000139031
0.000141313
0.000165316
7.19584e-05
-3.94998e-06
-0.000117522
-8.73119e-05
-9.75896e-06
0.000149525
0.000125945
0.000119096
0.000132501
5.72241e-05
-4.70545e-05
-0.000125346
-0.000161135
-0.000169982
-0.000127738
9.87813e-05
8.11364e-05
8.58617e-05
-2.99626e-05
-0.000118167
-0.000300853
-0.000314791
-0.00033101
-0.000223413
-0.000132437
6.56898e-06
2.90793e-05
-7.62709e-05
-0.000159957
-0.000327955
-0.000333044
-0.000451706
-0.000351747
-0.000282448
-0.000205076
)
;
    }
}


// ************************************************************************* //
