/*--------------------------------*- C++ -*----------------------------------*\
| =========                 |                                                 |
| \\      /  F ield         | OpenFOAM: The Open Source CFD Toolbox           |
|  \\    /   O peration     | Version:  2.4.0                                 |
|   \\  /    A nd           | Web:      www.OpenFOAM.org                      |
|    \\/     M anipulation  |                                                 |
\*---------------------------------------------------------------------------*/
FoamFile
{
    version     2.0;
    format      ascii;
    class       volVectorField;
    location    "0.05";
    object      Uc;
}
// * * * * * * * * * * * * * * * * * * * * * * * * * * * * * * * * * * * * * //

dimensions      [0 1 -1 0 0 0 0];

internalField   nonuniform List<vector> 
200
(
(-2.42014e-18 1.33179e-17 -1.41139e-17)
(-1.19677e-19 6.5858e-19 -6.97942e-19)
(-3.25578e-21 1.79164e-20 -1.89872e-20)
(-6.30493e-23 3.49477e-22 -3.71332e-22)
(7.38417e-23 -1.69027e-22 2.97614e-23)
(6.28664e-21 -1.4749e-20 2.79303e-21)
(4.51257e-19 -1.07136e-18 1.71206e-19)
(2.57271e-17 -6.28737e-17 5.57041e-18)
(9.74381e-16 -2.62801e-15 -3.69777e-16)
(6.44842e-15 -5.21502e-14 -8.47028e-14)
(-6.23069e-16 3.42872e-15 -3.63364e-15)
(-2.83045e-17 1.55758e-16 -1.65068e-16)
(-7.11309e-19 3.9143e-18 -4.14825e-18)
(-1.29565e-20 7.12993e-20 -7.55047e-20)
(-1.88526e-22 1.05943e-21 -1.11115e-21)
(1.64213e-22 5.23783e-22 -8.79742e-23)
(9.94005e-21 2.14728e-20 -3.00183e-21)
(4.69649e-19 4.83568e-19 -7.11107e-20)
(1.53283e-17 -6.73965e-18 -1.2133e-18)
(2.07015e-16 -6.33806e-16 -2.58782e-16)
(-1.17637e-13 6.47351e-13 -6.8604e-13)
(-4.8686e-15 2.67917e-14 -2.8393e-14)
(-1.12238e-16 6.17641e-16 -6.54555e-16)
(-1.88786e-18 1.03889e-17 -1.10075e-17)
(-2.55961e-20 1.44551e-19 -1.50878e-19)
(1.55866e-20 1.61354e-19 -2.82595e-20)
(8.56078e-19 8.60186e-18 -1.42692e-18)
(3.32094e-17 3.33679e-16 -5.53518e-17)
(7.0026e-16 7.0356e-15 -1.1671e-15)
(3.46275e-17 3.29864e-16 -5.58514e-17)
(-1.23395e-11 6.79035e-11 -7.19617e-11)
(-4.60611e-13 2.53473e-12 -2.68622e-12)
(-9.66051e-15 5.31614e-14 -5.63386e-14)
(-1.49007e-16 8.19986e-16 -8.68993e-16)
(-1.84793e-18 1.07088e-17 -1.10348e-17)
(2.49288e-18 2.53708e-17 -4.30997e-18)
(1.47723e-16 1.48442e-15 -2.46242e-16)
(6.30383e-15 6.33448e-14 -1.05079e-14)
(1.47679e-13 1.48397e-12 -2.46166e-13)
(6.30384e-15 6.33447e-14 -1.05075e-14)
(-1.59323e-15 8.76748e-15 -9.29146e-15)
(-7.2369e-17 3.98244e-16 -4.22046e-16)
(-1.81848e-18 1.00071e-17 -1.06052e-17)
(-3.2603e-20 1.81065e-19 -1.92737e-19)
(5.20717e-20 -1.18701e-19 2.49507e-20)
(4.79182e-18 -1.10674e-17 2.53398e-18)
(3.78627e-16 -8.74543e-16 2.00275e-16)
(2.44789e-14 -5.65429e-14 1.29512e-14)
(1.16069e-12 -2.68111e-12 6.1423e-13)
(3.05867e-11 -7.06547e-11 1.61896e-11)
(-4.51251e-13 2.48322e-12 -2.63162e-12)
(-1.86738e-14 1.02761e-13 -1.08903e-13)
(-4.3045e-16 2.36875e-15 -2.51032e-15)
(-7.23947e-18 3.98386e-17 -4.22109e-17)
(-9.77231e-20 5.48894e-19 -5.77518e-19)
(1.01406e-19 2.25238e-19 -3.35255e-20)
(6.75857e-18 8.69248e-18 -7.43854e-19)
(3.59342e-16 1.01002e-16 2.46531e-17)
(1.38063e-14 -1.25703e-14 3.87154e-15)
(2.90488e-13 -6.7009e-13 1.5356e-13)
(-9.46747e-11 5.20991e-10 -5.52128e-10)
(-3.53366e-12 1.94456e-11 -2.06078e-11)
(-7.41038e-14 4.0779e-13 -4.32162e-13)
(-1.14287e-15 6.2892e-15 -6.6651e-15)
(-1.43161e-17 8.06756e-17 -8.43858e-17)
(8.5938e-18 8.88095e-17 -1.55094e-17)
(5.09207e-16 5.11644e-15 -8.48739e-16)
(2.14601e-14 2.15622e-13 -3.57679e-14)
(4.94857e-13 4.97175e-12 -8.24722e-13)
(2.29902e-14 2.12087e-13 -3.49573e-14)
(-1.11735e-08 6.14871e-08 -6.51618e-08)
(-3.715e-10 2.04435e-09 -2.16653e-09)
(-7.01678e-12 3.86131e-11 -4.09208e-11)
(-9.8416e-14 5.41583e-13 -5.73949e-13)
(-1.12068e-15 6.46679e-15 -6.68015e-15)
(1.49892e-15 1.52414e-14 -2.58501e-15)
(9.66777e-14 9.71478e-13 -1.61153e-13)
(4.52743e-12 4.54944e-11 -7.54679e-12)
(1.17445e-10 1.18016e-09 -1.95769e-10)
(4.52744e-12 4.54944e-11 -7.54662e-12)
(-7.7013e-13 4.238e-12 -4.49128e-12)
(-3.18698e-14 1.75378e-13 -1.8586e-13)
(-7.34626e-16 4.04263e-15 -4.28425e-15)
(-1.2086e-17 6.73687e-17 -7.18969e-17)
(2.9282e-17 -6.7093e-17 1.4576e-17)
(2.90868e-15 -6.71845e-15 1.53729e-15)
(2.50714e-13 -5.79115e-13 1.32547e-13)
(1.78291e-11 -4.11837e-11 9.4286e-12)
(9.39244e-10 -2.16961e-09 4.96845e-10)
(2.78405e-08 -6.4311e-08 1.47314e-08)
(-2.42364e-10 1.33372e-09 -1.41343e-09)
(-9.04602e-12 4.97799e-11 -5.2755e-11)
(-1.89702e-13 1.04392e-12 -1.10632e-12)
(-2.92568e-15 1.61e-14 -1.70623e-14)
(-3.63675e-17 2.04354e-16 -2.15604e-16)
(4.98301e-17 5.20597e-17 -5.27978e-18)
(3.67987e-15 1.02918e-15 2.52094e-16)
(2.20034e-13 -1.13055e-13 4.6118e-14)
(9.6387e-12 -1.33415e-11 3.5119e-12)
(2.35001e-10 -5.42451e-10 1.24242e-10)
(-5.72062e-08 3.14803e-07 -3.33617e-07)
(-1.902e-09 1.04666e-08 -1.10922e-08)
(-3.5924e-11 1.97688e-10 -2.09504e-10)
(-5.03859e-13 2.77272e-12 -2.93843e-12)
(-5.7913e-15 3.2566e-14 -3.411e-14)
(3.41638e-15 3.52447e-14 -6.13684e-15)
(2.19662e-13 2.20708e-12 -3.66119e-13)
(1.01239e-11 1.01718e-10 -1.68732e-11)
(2.57202e-10 2.58394e-09 -4.28626e-10)
(1.12384e-11 9.91435e-11 -1.62835e-11)
(-7.71601e-06 4.24609e-05 -4.49985e-05)
(-2.24957e-07 1.23793e-06 -1.31191e-06)
(-3.77955e-09 2.07987e-08 -2.20417e-08)
(-4.77275e-11 2.62644e-10 -2.7834e-10)
(-4.94946e-13 2.84392e-12 -2.94444e-12)
(6.55197e-13 6.65631e-12 -1.1271e-12)
(4.63456e-11 4.65709e-10 -7.72539e-11)
(2.4033e-09 2.41498e-08 -4.00606e-09)
(6.97806e-08 7.01199e-07 -1.16317e-07)
(2.4033e-09 2.41498e-08 -4.006e-09)
(-2.06817e-10 1.13811e-09 -1.20613e-09)
(-7.71927e-12 4.24788e-11 -4.50176e-11)
(-1.61878e-13 8.90812e-13 -9.44055e-13)
(-2.39598e-15 1.35062e-14 -1.45068e-14)
(1.18912e-14 -2.73663e-14 6.10729e-15)
(1.28449e-12 -2.96704e-12 6.78062e-13)
(1.21779e-10 -2.81301e-10 6.43126e-11)
(9.62151e-09 -2.22252e-08 5.08334e-09)
(5.70164e-07 -1.31706e-06 3.01361e-07)
(1.93114e-05 -4.46088e-05 1.02113e-05)
(-7.32235e-08 4.02946e-07 -4.27028e-07)
(-2.43454e-09 1.33972e-08 -1.41979e-08)
(-4.59823e-11 2.53039e-10 -2.68162e-10)
(-6.44931e-13 3.54904e-12 -3.76115e-12)
(-7.28485e-15 4.11044e-14 -4.35423e-14)
(1.74592e-14 -7.56899e-15 3.03742e-15)
(1.4482e-12 -1.3226e-12 4.05284e-13)
(9.87283e-11 -1.36778e-10 3.59276e-11)
(4.994e-09 -9.28281e-09 2.23827e-09)
(1.42624e-07 -3.29368e-07 7.53683e-08)
(-1.97525e-05 0.000108697 -0.000115194)
(-5.75873e-07 3.169e-06 -3.3584e-06)
(-9.67528e-09 5.32427e-08 -5.64247e-08)
(-1.22177e-10 6.72335e-10 -7.12517e-10)
(-1.27789e-12 7.17051e-12 -7.51917e-12)
(7.37737e-13 7.59762e-12 -1.319e-12)
(5.18189e-11 5.20618e-10 -8.63615e-11)
(2.63152e-09 2.64372e-08 -4.38542e-09)
(7.42601e-08 7.45929e-07 -1.23734e-07)
(3.23292e-09 2.50479e-08 -4.06763e-09)
(-0.00310831 0.0171049 -0.0181272)
(-7.78412e-05 0.000428357 -0.000453957)
(-1.14517e-06 6.30184e-06 -6.67847e-06)
(-1.28589e-08 7.07624e-08 -7.49913e-08)
(-1.20228e-10 6.87876e-10 -7.13815e-10)
(1.5714e-10 1.59503e-09 -2.69645e-10)
(1.23016e-08 1.23614e-07 -2.05056e-08)
(7.14084e-07 7.17555e-06 -1.1903e-06)
(2.35119e-05 0.000236262 -3.91919e-05)
(7.14086e-07 7.17555e-06 -1.19029e-06)
(-7.71723e-13 4.24676e-12 -4.48199e-12)
(-3.19411e-14 1.75774e-13 -1.85437e-13)
(-5.88886e-16 3.71178e-15 -4.19624e-15)
(2.03848e-14 -4.70488e-14 1.06383e-14)
(2.6364e-12 -6.09002e-12 1.38546e-12)
(3.12369e-10 -7.21564e-10 1.64289e-10)
(3.28984e-08 -7.59945e-08 1.73171e-08)
(2.92351e-06 -6.75323e-06 1.54014e-06)
(0.000197948 -0.000457255 0.000104368)
(0.00781951 -0.0180629 0.00412622)
(-2.42815e-10 1.3362e-09 -1.4108e-09)
(-9.06469e-12 4.98827e-11 -5.26462e-11)
(-1.9013e-13 1.04629e-12 -1.1038e-12)
(-2.67471e-15 1.55433e-14 -1.68845e-14)
(3.05583e-14 -7.04682e-14 1.58497e-14)
(3.29553e-12 -7.61242e-12 1.73182e-12)
(3.1238e-10 -7.2158e-10 1.64293e-10)
(2.46757e-08 -5.69998e-08 1.29887e-08)
(1.46198e-06 -3.37713e-06 7.70189e-07)
(4.95072e-05 -0.00011436 2.61025e-05)
(-5.73008e-08 3.15324e-07 -3.33065e-07)
(-1.90553e-09 1.04861e-08 -1.10716e-08)
(-3.59981e-11 1.98096e-10 -2.09071e-10)
(-5.05e-13 2.77901e-12 -2.93177e-12)
(-5.61194e-15 3.21993e-14 -3.3924e-14)
(2.25478e-14 -8.83972e-15 3.91974e-15)
(1.86805e-12 -1.59437e-12 5.00715e-13)
(1.27302e-10 -1.68694e-10 4.47805e-11)
(6.42796e-09 -1.16642e-08 2.8201e-09)
(1.82859e-07 -4.22275e-07 9.63104e-08)
(-7.72718e-06 4.25224e-05 -4.49334e-05)
(-2.25328e-07 1.23997e-06 -1.30975e-06)
(-3.78656e-09 2.08373e-08 -2.20008e-08)
(-4.78259e-11 2.63185e-10 -2.77766e-10)
(-4.96066e-13 2.85039e-12 -2.93775e-12)
(6.56777e-13 6.67136e-12 -1.12447e-12)
(4.64486e-11 4.66666e-10 -7.70893e-11)
(2.40823e-09 2.41943e-08 -3.99829e-09)
(6.99176e-08 7.02334e-07 -1.16111e-07)
(2.92238e-09 2.30067e-08 -3.7276e-09)
)
;

boundaryField
{
    inlet
    {
        type            calculated;
        value           uniform (0 0 0);
    }
    outlet
    {
        type            calculated;
        value           nonuniform 0();
    }
    bottom
    {
        type            calculated;
        value           uniform (0 0 0);
    }
    top
    {
        type            symmetryPlane;
    }
    side1
    {
        type            symmetryPlane;
    }
    side2
    {
        type            symmetryPlane;
    }
    procBoundary8to0
    {
        type            processor;
        value           nonuniform List<vector> 
50
(
(-7.69136e-21 4.23252e-20 -4.48552e-20)
(-4.1115e-22 2.26254e-21 -2.39774e-21)
(-1.20418e-23 6.62397e-23 -6.98043e-23)
(-1.05397e-24 1.85867e-24 -5.17554e-24)
(-1.19436e-22 7.11296e-23 -5.5229e-22)
(-1.70518e-20 1.02742e-20 -7.85585e-20)
(-2.31497e-18 1.40506e-18 -1.06407e-17)
(-2.95819e-16 1.80285e-16 -1.35797e-15)
(-3.50754e-14 2.14199e-14 -1.60912e-13)
(-3.7792e-12 2.30973e-12 -1.73332e-11)
(-4.64088e-18 2.55386e-17 -2.70651e-17)
(-2.29471e-19 1.26277e-18 -1.33824e-18)
(-6.24198e-21 3.43494e-20 -3.6261e-20)
(-1.14728e-22 6.55681e-22 -7.01564e-22)
(7.17238e-22 -1.65191e-21 3.66e-22)
(6.04812e-20 -1.39885e-19 3.15564e-20)
(4.37478e-18 -1.01281e-17 2.26003e-18)
(2.56312e-16 -5.94754e-16 1.29206e-16)
(1.08317e-14 -2.53149e-14 5.03093e-15)
(2.40691e-13 -5.85025e-13 5.80914e-14)
(-2.03933e-15 1.12223e-14 -1.18931e-14)
(-9.2632e-17 5.0975e-16 -5.40215e-16)
(-2.32762e-18 1.28089e-17 -1.35453e-17)
(-3.87027e-20 2.24753e-19 -2.43626e-19)
(3.71758e-19 -8.56735e-19 1.93115e-19)
(3.37109e-17 -7.78699e-17 1.78125e-17)
(2.64136e-15 -6.10142e-15 1.39605e-15)
(1.69037e-13 -3.9047e-13 8.93666e-14)
(7.91474e-12 -1.82828e-11 4.18549e-12)
(2.05269e-10 -4.74166e-10 1.08579e-10)
(-4.92885e-13 2.71233e-12 -2.87445e-12)
(-2.03968e-14 1.12243e-13 -1.18951e-13)
(-4.70154e-16 2.58727e-15 -2.7396e-15)
(-6.63524e-18 4.05755e-17 -4.5302e-17)
(1.38082e-16 -3.18618e-16 7.22609e-17)
(1.35333e-14 -3.12614e-14 7.14099e-15)
(1.15464e-12 -2.66717e-12 6.09505e-13)
(8.10792e-11 -1.8729e-10 4.28172e-11)
(4.20348e-09 -9.70993e-09 2.22071e-09)
(1.22016e-07 -2.81854e-07 6.44871e-08)
(-2.04397e-15 1.12479e-14 -1.1866e-14)
(-9.28476e-17 5.10981e-16 -5.38415e-16)
(-4.67573e-19 8.53216e-18 -1.25181e-17)
(2.36423e-16 -5.45995e-16 1.23808e-16)
(2.77831e-14 -6.41782e-14 1.45872e-14)
(2.96233e-12 -6.8429e-12 1.55661e-12)
(2.77287e-10 -6.40527e-10 1.45824e-10)
(2.15572e-08 -4.97966e-08 1.1346e-08)
(1.25083e-06 -2.88938e-06 6.58862e-07)
(4.11656e-05 -9.50915e-05 2.17008e-05)
)
;
    }
    procBoundary8to9
    {
        type            processor;
        value           nonuniform List<vector> 
20
(
(-1.88884e-12 1.1528e-12 -8.6669e-12)
(-7.29877e-15 4.44029e-15 -3.35045e-14)
(-2.22069e-17 2.2564e-17 -1.07132e-16)
(1.47659e-16 1.48443e-15 -2.44996e-16)
(1.02172e-12 -2.37466e-12 5.0603e-13)
(1.09707e-14 -2.5379e-14 5.6543e-15)
(5.73189e-16 4.96819e-15 -8.11513e-16)
(9.66777e-14 9.71471e-13 -1.60754e-13)
(8.20513e-10 -1.89537e-09 4.34024e-10)
(7.91551e-12 -1.82751e-11 4.18419e-12)
(2.61782e-13 2.1097e-12 -3.43282e-13)
(4.63457e-11 4.65708e-10 -7.72617e-11)
(4.87799e-07 -1.1268e-06 2.57809e-07)
(4.20365e-09 -9.70829e-09 2.22044e-09)
(7.20598e-11 4.73846e-10 -7.56241e-11)
(1.23016e-08 1.23614e-07 -2.05049e-08)
(0.000164593 -0.000380206 8.67669e-05)
(1.25083e-06 -2.88938e-06 6.5886e-07)
(5.39075e-09 -1.24498e-08 2.83676e-09)
(6.378e-11 4.2663e-10 -6.79712e-11)
)
;
    }
    procBoundary8to16
    {
        type            processor;
        value           nonuniform List<vector> 
50
(
(-1.04475e-13 5.74923e-13 -6.09287e-13)
(-4.37731e-15 2.40881e-14 -2.55278e-14)
(-1.01934e-16 5.60942e-16 -5.94057e-16)
(-1.69883e-18 9.81675e-18 -1.01012e-17)
(2.72083e-18 2.77108e-17 -4.7128e-18)
(2.16872e-16 2.17926e-15 -3.61499e-16)
(1.40214e-14 1.40896e-13 -2.33721e-14)
(6.64858e-13 6.6809e-12 -1.10825e-12)
(1.75218e-11 1.7607e-10 -2.9207e-11)
(6.64858e-13 6.6809e-12 -1.10825e-12)
(-8.27567e-11 4.55407e-10 -4.82626e-10)
(-3.13741e-12 1.7265e-11 -1.82969e-11)
(-6.66195e-14 3.66607e-13 -3.88523e-13)
(-1.02106e-15 5.88074e-15 -6.07689e-15)
(1.65008e-15 1.67865e-14 -2.84943e-15)
(1.43389e-13 1.44086e-12 -2.39013e-13)
(1.01984e-11 1.0248e-10 -1.69996e-11)
(5.37342e-10 5.39955e-09 -8.95693e-10)
(1.59308e-08 1.60083e-07 -2.6555e-08)
(5.37342e-10 5.39955e-09 -8.95693e-10)
(-4.8976e-08 2.69513e-07 -2.85621e-07)
(-1.66205e-09 9.14621e-09 -9.69287e-09)
(-3.18926e-11 1.75505e-10 -1.85994e-10)
(-4.4614e-13 2.56103e-12 -2.65291e-12)
(7.28769e-13 7.40552e-12 -1.25451e-12)
(6.96099e-11 6.99483e-10 -1.16032e-10)
(5.50093e-09 5.52767e-08 -9.16946e-09)
(3.26055e-07 3.2764e-06 -5.43499e-07)
(1.10463e-05 0.000111 -1.8413e-05)
(3.26055e-07 3.2764e-06 -5.43499e-07)
(-1.64371e-05 9.04525e-05 -9.58583e-05)
(-4.92844e-07 2.7121e-06 -2.8742e-06)
(-8.45379e-09 4.6521e-08 -4.93015e-08)
(-1.06958e-10 6.11964e-10 -6.35038e-10)
(1.77029e-10 1.79688e-09 -3.03762e-10)
(1.87741e-08 1.88654e-07 -3.12946e-08)
(1.66906e-06 1.67717e-05 -2.78214e-06)
(0.000113058 0.00113608 -0.000188456)
(0.00446817 0.0448989 -0.00744796)
(0.000113058 0.00113608 -0.000188456)
(-4.90587e-08 2.69968e-07 -2.85138e-07)
(-1.66519e-09 9.16347e-09 -9.67457e-09)
(-3.19592e-11 1.75871e-10 -1.85606e-10)
(-4.47161e-13 2.56691e-12 -2.64684e-12)
(7.30418e-13 7.42232e-12 -1.25167e-12)
(6.97532e-11 7.00924e-10 -1.15794e-10)
(5.51113e-09 5.53792e-08 -9.15247e-09)
(3.26592e-07 3.2818e-06 -5.42603e-07)
(1.10622e-05 0.00011116 -1.83865e-05)
(3.26594e-07 3.2818e-06 -5.42603e-07)
)
;
    }
}


// ************************************************************************* //
