/*--------------------------------*- C++ -*----------------------------------*\
| =========                 |                                                 |
| \\      /  F ield         | OpenFOAM: The Open Source CFD Toolbox           |
|  \\    /   O peration     | Version:  2.4.0                                 |
|   \\  /    A nd           | Web:      www.OpenFOAM.org                      |
|    \\/     M anipulation  |                                                 |
\*---------------------------------------------------------------------------*/
FoamFile
{
    version     2.0;
    format      ascii;
    class       volVectorField;
    location    "0.15";
    object      Ub;
}
// * * * * * * * * * * * * * * * * * * * * * * * * * * * * * * * * * * * * * //

dimensions      [0 1 -1 0 0 0 0];

internalField   nonuniform List<vector> 
200
(
(-2.65468e+14 -2.1003e+14 -6.20651e+13)
(-2.91566e+14 -1.56484e+14 -4.33781e+13)
(-2.56497e+14 -1.97422e+14 -6.05124e+13)
(-2.52672e+14 -1.8621e+14 -6.75891e+13)
(-2.34194e+14 -2.79853e+14 -1.08756e+14)
(-2.94021e+14 -2.9528e+14 -1.62075e+14)
(-1.51249e+14 -1.61519e+14 -2.6652e+14)
(-2.8058e+14 -1.33331e+14 -8.91675e+14)
(-6.22976e+13 -1.16721e+14 -1.30796e+14)
(-7.74268e+13 -1.38465e+14 -2.97748e+14)
(-3.14166e+14 -8.79933e+13 -4.06377e+13)
(-2.82148e+14 -1.32366e+14 -7.11207e+13)
(-2.9164e+14 -7.23921e+13 -7.26688e+13)
(-2.74307e+14 -1.08446e+14 -1.03623e+14)
(-3.57551e+14 -5.6361e+13 -1.58088e+14)
(-2.76818e+14 1.77651e+13 -2.16451e+14)
(-3.42841e+14 -1.28138e+14 -7.62948e+14)
(-2.50239e+14 -6.70237e+13 -1.68178e+14)
(-1.87949e+14 -1.35223e+14 -5.05249e+14)
(-1.04396e+14 -5.48453e+13 -1.70397e+14)
(-3.15537e+14 -9.19819e+13 -6.96041e+13)
(-3.22183e+14 -7.68233e+12 -6.10095e+13)
(-2.87086e+14 -3.41328e+13 -6.59995e+13)
(-2.46335e+14 7.69612e+13 -8.74686e+13)
(-1.90833e+14 2.46871e+14 -2.64858e+14)
(-2.01927e+14 1.65269e+14 -5.58712e+13)
(-1.65993e+14 5.42317e+13 -9.37602e+13)
(-1.14491e+14 4.23986e+13 -2.88438e+14)
(-1.67338e+14 4.84121e+13 -7.99372e+13)
(-7.49251e+13 -2.43952e+13 -1.33367e+14)
(-3.32613e+14 1.4269e+13 -6.00621e+13)
(-3.02835e+14 -3.70322e+13 -7.41e+13)
(-2.8707e+14 3.7613e+13 -8.36008e+13)
(-2.45472e+14 1.54564e+13 -9.12983e+13)
(-1.21275e+14 9.05633e+13 -5.79692e+13)
(1.9144e+13 1.75457e+14 -5.66691e+13)
(2.70287e+13 9.07926e+13 5.94779e+13)
(8.43797e+13 1.20929e+14 -2.08759e+13)
(9.74852e+13 1.0477e+14 5.28534e+12)
(1.62469e+14 2.02232e+13 2.03113e+14)
(-3.18306e+14 -2.01071e+14 -1.39236e+14)
(-2.44617e+14 -2.70607e+14 -1.51254e+14)
(-2.66486e+14 -1.9955e+14 -2.7054e+14)
(-2.64705e+14 -3.05215e+14 -2.30274e+14)
(-5.81801e+14 -1.00922e+14 -1.5658e+14)
(-3.08723e+14 -1.81143e+13 -2.29307e+14)
(-4.89402e+14 -7.97047e+13 -1.22079e+15)
(-3.2718e+14 -6.11734e+13 -1.14809e+14)
(-3.516e+14 -1.08349e+14 -3.43422e+14)
(-3.68213e+14 -7.47297e+13 -1.27531e+14)
(-2.77914e+14 -1.48272e+14 -1.54048e+14)
(-3.42407e+14 -5.72883e+13 -2.66682e+14)
(-3.06482e+14 -1.24827e+14 -2.52497e+14)
(-5.19697e+14 -3.04415e+13 -2.31597e+14)
(-4.12962e+14 6.31768e+13 -3.59643e+14)
(-5.30602e+14 -2.89231e+14 -1.34046e+15)
(-4.36494e+14 -1.25335e+14 -1.38611e+14)
(-3.56679e+14 -1.36661e+14 -4.13019e+14)
(-3.36379e+14 -3.55287e+13 -2.71481e+14)
(-4.97888e+14 6.52519e+13 -2.98774e+14)
(-3.07359e+14 2.92954e+13 -1.44034e+14)
(-2.43982e+14 6.75501e+13 -1.92924e+14)
(-2.09363e+14 1.86933e+14 -2.78169e+14)
(-2.22443e+14 2.63735e+14 -5.11374e+14)
(-3.35645e+14 1.28857e+13 -5.39545e+13)
(-2.34771e+14 8.50245e+13 -1.4778e+14)
(-3.88666e+14 -1.47203e+14 -7.94523e+14)
(-5.5833e+14 8.93158e+13 -8.31853e+13)
(-3.91806e+14 6.38097e+13 -2.24216e+14)
(2.17961e+14 -1.04662e+15 -9.90454e+14)
(-2.9672e+14 -2.00942e+13 -1.68395e+14)
(-2.56346e+14 3.70419e+13 -1.42425e+14)
(-2.04168e+14 4.04666e+13 -1.08545e+14)
(-2.36484e+13 1.70848e+14 -1.1494e+14)
(9.0346e+12 4.20438e+14 -3.72327e+14)
(1.0448e+14 8.36267e+13 5.42354e+13)
(1.43958e+14 2.55807e+14 -9.57431e+13)
(2.01369e+14 4.34487e+13 8.63048e+13)
(3.01164e+14 1.26892e+14 8.90476e+13)
(2.79716e+14 3.65614e+14 1.16346e+14)
(-2.09869e+14 -4.32419e+14 -1.46175e+14)
(-7.00982e+14 1.3933e+14 -9.49109e+14)
(-3.3468e+14 -1.58812e+14 -2.15979e+14)
(-6.76301e+14 -5.38995e+13 -1.9539e+14)
(-6.35403e+14 1.94574e+14 -2.5184e+14)
(-5.70133e+14 3.71265e+13 -1.74472e+15)
(-3.66464e+14 -1.56101e+14 -1.0243e+14)
(-3.76988e+14 -1.99939e+13 -2.45187e+14)
(-3.29908e+14 3.15189e+13 -2.10763e+14)
(-2.0209e+14 2.74861e+14 -3.46156e+13)
(-6.83835e+14 1.06206e+13 -5.98341e+14)
(-4.91491e+14 -4.63292e+13 -2.84706e+14)
(-7.77589e+14 2.23285e+13 -3.20715e+14)
(-8.1e+14 1.77449e+14 -2.49458e+14)
(-5.67505e+14 -4.51274e+14 -1.53216e+15)
(-6.88817e+14 -1.9044e+14 -2.27977e+14)
(-6.21612e+14 -1.09289e+14 -4.37092e+14)
(-5.48588e+14 3.90449e+12 -8.0092e+14)
(-9.21846e+14 1.75769e+14 -6.95506e+14)
(-4.70488e+12 -1.71936e+14 8.78268e+13)
(-1.68854e+14 5.63015e+14 -3.9729e+14)
(-3.99557e+14 1.1426e+14 -5.06927e+14)
(-3.72125e+14 -2.02646e+14 -4.80668e+14)
(-3.81602e+14 -7.20581e+13 3.10233e+12)
(-4.00403e+14 -2.1974e+13 -1.71036e+14)
(-4.25529e+14 -2.18969e+13 -9.92446e+14)
(-5.3686e+14 2.9942e+14 -1.25462e+14)
(-4.44591e+14 7.77907e+13 -2.09169e+14)
(2.10152e+14 -8.86676e+14 -1.13762e+15)
(1.79465e+14 -2.94093e+15 -5.15378e+15)
(-2.22984e+14 1.88007e+11 -1.61727e+14)
(-1.87814e+13 3.31994e+14 -2.30677e+14)
(3.50624e+13 1.24882e+14 -1.06966e+14)
(2.59863e+13 3.39525e+14 -4.50571e+14)
(-9.81774e+13 -8.77694e+13 1.04016e+14)
(3.76603e+13 2.21618e+14 -1.66075e+14)
(1.72943e+14 4.51392e+13 5.37141e+13)
(2.79439e+14 2.4209e+14 -6.9765e+13)
(4.01213e+14 2.16021e+14 4.45939e+13)
(1.7882e+14 1.23613e+13 -7.65915e+13)
(-5.8311e+14 2.64842e+14 -7.12167e+14)
(-2.09695e+14 -2.49632e+13 -1.78268e+14)
(-4.55202e+14 4.27883e+13 -2.01957e+14)
(-4.6094e+14 1.30371e+13 -5.94273e+13)
(-2.96253e+14 -4.82651e+13 -5.93965e+14)
(-4.1058e+14 -1.66982e+14 -2.11757e+14)
(-2.99588e+14 7.3877e+13 -8.3814e+13)
(-3.97139e+14 2.39726e+14 -9.29972e+14)
(-3.20294e+14 4.1358e+14 -3.26021e+14)
(6.89415e+13 4.65579e+14 -1.19707e+14)
(-4.53066e+14 7.96123e+13 -2.47665e+14)
(-7.85765e+14 4.82439e+13 -2.99118e+14)
(-7.58574e+14 5.2556e+13 -6.50267e+13)
(-6.24519e+14 -2.34114e+14 -6.03534e+14)
(-1.01455e+15 -7.63271e+13 -2.64269e+14)
(-7.46139e+14 -1.31773e+13 -2.50845e+14)
(-8.79553e+14 4.78595e+13 -2.05139e+15)
(-8.09114e+14 1.91288e+14 -6.74107e+14)
(-4.6465e+14 2.77523e+14 8.06233e+14)
(7.90448e+13 -9.93709e+14 -2.59442e+15)
(-5.27518e+14 -5.23518e+13 -3.05706e+14)
(-2.99472e+14 1.06696e+14 -3.01864e+14)
(-4.54044e+14 -7.47061e+13 5.62098e+13)
(-4.99561e+14 -8.43837e+12 -1.52853e+14)
(-3.9028e+14 2.03821e+14 -8.71322e+14)
(-5.57348e+14 4.62152e+14 -2.79377e+14)
(-4.10172e+14 1.73083e+13 -3.08498e+14)
(-1.73157e+14 -8.53209e+14 -1.56514e+15)
(1.78357e+14 -2.85251e+15 -4.80057e+15)
(-9.90545e+13 2.72196e+14 -1.61675e+12)
(1.12662e+14 9.54889e+14 -5.18501e+14)
(-1.17016e+14 -3.03595e+14 -1.45539e+14)
(7.84162e+13 3.73436e+14 -1.98831e+14)
(-8.65778e+13 -9.71021e+13 2.20069e+14)
(-8.52863e+13 1.0229e+14 -5.62343e+13)
(6.5597e+13 8.69876e+12 -3.02308e+14)
(-5.92729e+13 1.17504e+14 -1.6245e+14)
(6.1216e+13 -6.50943e+13 -3.31588e+14)
(-3.54262e+14 -5.86714e+14 -8.01212e+14)
(-8.12085e+14 -9.46972e+14 -1.36324e+15)
(6.92639e+13 2.81098e+14 2.04759e+13)
(2.10876e+14 1.47236e+14 -4.84814e+13)
(9.23656e+13 1.86754e+14 1.38495e+13)
(1.65306e+14 2.11807e+14 -1.26608e+14)
(3.92187e+13 1.71411e+14 -1.70851e+14)
(-6.82088e+12 7.99602e+14 1.99116e+13)
(-1.35421e+14 6.29707e+14 -4.06174e+14)
(-2.97043e+14 5.59672e+14 -1.22938e+14)
(-3.14865e+14 3.41072e+14 -3.67883e+14)
(-4.83366e+14 3.4947e+14 -4.64023e+14)
(-4.79598e+14 1.12952e+14 -1.51181e+14)
(-4.04382e+14 2.29577e+14 -7.03719e+13)
(-4.39691e+14 3.56484e+13 -3.20954e+14)
(-6.19266e+14 8.89054e+13 -2.65328e+14)
(-2.62736e+14 4.00157e+14 -3.88433e+14)
(-1.40624e+15 5.11277e+14 -4.95084e+15)
(-9.24318e+14 2.83083e+14 -5.05859e+14)
(-1.07303e+15 3.31977e+14 6.09485e+14)
(-5.4614e+14 1.64119e+14 -9.4213e+14)
(-1.10901e+15 4.65578e+14 1.78848e+15)
(8.53117e+11 3.34646e+14 -2.32305e+14)
(-2.66579e+14 -4.33809e+13 -3.19165e+12)
(-3.98935e+14 1.9053e+13 -2.81911e+14)
(-2.37648e+14 8.77303e+13 -6.35891e+14)
(-5.24313e+14 2.55427e+13 -2.23215e+14)
(-2.6898e+14 -2.48844e+14 -2.50971e+14)
(-5.61271e+14 -5.48874e+14 -1.41851e+15)
(-3.36263e+14 -8.8804e+14 -1.28777e+15)
(-7.87398e+14 1.26518e+14 -3.37878e+14)
(-9.89427e+14 -2.04507e+14 -1.09213e+15)
(-1.5384e+14 -1.85693e+14 -3.49621e+12)
(8.7251e+13 6.35947e+14 -3.87457e+14)
(-2.01347e+13 -4.11716e+14 1.22866e+14)
(6.65873e+13 5.88497e+14 -2.34498e+14)
(1.01623e+14 -1.29435e+14 1.23297e+14)
(7.82097e+13 1.55993e+13 4.64458e+13)
(-5.71447e+13 -2.69658e+14 -1.23556e+14)
(-4.94203e+14 -6.86634e+14 -6.38606e+14)
(-1.49558e+15 -9.40295e+14 -1.43552e+15)
(-1.98702e+15 1.795e+15 -1.36699e+15)
)
;

boundaryField
{
    inlet
    {
        type            fixedValue;
        value           nonuniform 0();
    }
    outlet
    {
        type            zeroGradient;
    }
    bottom
    {
        type            fixedValue;
        value           uniform (0 0 0);
    }
    top
    {
        type            symmetryPlane;
    }
    side1
    {
        type            symmetryPlane;
    }
    side2
    {
        type            symmetryPlane;
    }
    procBoundary30to22
    {
        type            processor;
        value           nonuniform List<vector> 
50
(
(-3.07141e+14 -2.21655e+14 -2.91409e+13)
(-2.70014e+14 -2.36061e+14 -4.69231e+13)
(-2.80745e+14 -2.0935e+14 -2.7025e+13)
(-2.4339e+14 -2.47853e+14 -5.98539e+12)
(-2.20952e+14 -2.84158e+14 -1.37316e+12)
(-1.84953e+14 -3.56517e+14 1.40732e+13)
(-1.18707e+14 -4.51046e+14 -5.99163e+13)
(-4.64771e+13 -2.45269e+14 1.43116e+10)
(-8.44622e+13 -1.62496e+14 -3.43057e+14)
(3.75667e+13 -1.42828e+14 1.6217e+14)
(-2.4297e+14 -2.82572e+14 -2.11403e+14)
(-2.38594e+14 -2.79757e+14 -1.41908e+14)
(-1.86002e+14 -3.53661e+14 -1.2883e+14)
(-1.01835e+14 -3.86479e+14 -2.15031e+14)
(-1.12389e+14 -3.61284e+14 -9.66823e+13)
(-1.67775e+14 -2.53572e+14 -6.81945e+13)
(-7.96384e+13 -1.66103e+14 -9.2658e+13)
(-1.72733e+14 -2.31025e+13 -3.74327e+14)
(-1.38134e+13 -7.73853e+13 -2.59616e+13)
(-5.50874e+13 -1.19732e+14 -1.0379e+14)
(-3.43605e+14 -4.21873e+14 -2.09442e+14)
(-1.74322e+14 -5.1655e+14 -2.55563e+14)
(-3.16445e+14 -4.29975e+13 -5.62158e+14)
(-9.97805e+13 -2.13427e+14 -1.86454e+14)
(-1.34238e+14 -1.3469e+14 -1.45288e+14)
(-1.46847e+14 1.57138e+12 -1.40584e+14)
(-1.17465e+14 -2.71355e+12 -3.06807e+14)
(-1.50374e+14 3.94838e+13 -8.1964e+13)
(-1.55952e+14 2.68373e+14 -2.71619e+14)
(-6.39527e+13 9.08083e+13 -1.50495e+14)
(5.6269e+13 -2.58871e+14 -2.9571e+14)
(-3.71513e+14 2.19287e+14 -7.12885e+14)
(5.48364e+13 -8.40499e+13 -2.45595e+14)
(-1.54065e+14 1.7711e+14 -2.86812e+14)
(3.26543e+13 1.58535e+14 -1.26739e+14)
(5.1435e+13 1.95444e+14 -2.72605e+14)
(1.43591e+14 1.96565e+14 -8.39588e+13)
(1.64306e+14 2.61405e+14 -1.10443e+14)
(1.96155e+14 2.83427e+14 -1.08214e+14)
(9.34476e+13 4.25729e+14 -1.4421e+14)
(1.67577e+14 5.47107e+14 -1.45426e+14)
(1.96561e+14 5.68516e+14 -7.5307e+13)
(2.60235e+14 3.38606e+14 -1.4019e+14)
(3.48103e+14 2.77643e+14 -6.80596e+13)
(3.77478e+14 3.37489e+14 -1.11337e+14)
(3.23797e+14 3.87024e+14 -6.56538e+13)
(1.92376e+14 3.91264e+14 -1.18998e+14)
(1.06659e+14 4.0252e+14 -7.60271e+13)
(1.04335e+14 3.87404e+14 -9.70007e+13)
(-6.90481e+12 1.98438e+14 -4.64288e+13)
)
;
    }
    procBoundary30to29
    {
        type            processor;
        value           nonuniform List<vector> 
20
(
(-2.93838e+14 -1.81615e+14 -9.68404e+12)
(-2.76006e+14 -1.64576e+14 -7.01079e+13)
(-3.46338e+14 -3.60476e+13 -2.52263e+13)
(-3.24182e+14 -6.72067e+13 -6.57328e+13)
(-2.69463e+14 -2.21167e+14 -1.57318e+14)
(-3.36326e+14 -8.89331e+13 -1.37018e+14)
(-3.0074e+14 -7.76163e+13 -1.43411e+14)
(-3.08893e+14 2.07817e+13 -1.32444e+14)
(-3.7525e+14 -2.82685e+14 -1.79391e+14)
(-2.59624e+14 -1.51038e+14 -1.23805e+14)
(-3.62191e+14 8.99409e+13 -1.09542e+14)
(-3.58142e+14 -1.19393e+13 -1.71029e+14)
(-6.08711e+12 -1.47904e+14 -1.32278e+14)
(-8.13191e+14 1.64795e+14 -6.89236e+14)
(6.05543e+13 1.09841e+15 -7.46252e+14)
(-2.89795e+14 -1.03851e+14 -8.46337e+13)
(-1.58464e+14 2.45004e+14 -5.33818e+13)
(-7.44388e+13 2.00366e+14 -1.25624e+14)
(-3.73598e+14 4.30256e+13 -3.17754e+12)
(4.41885e+13 8.29748e+14 -6.05271e+14)
)
;
    }
    procBoundary30to31
    {
        type            processor;
        value           nonuniform List<vector> 
20
(
(3.37748e+13 -1.02138e+14 7.61216e+13)
(-8.78944e+13 -5.41597e+13 -1.96449e+14)
(1.02898e+14 7.80543e+13 7.92313e+13)
(-5.84798e+13 4.19455e+14 7.35565e+13)
(-2.46674e+14 -8.38773e+13 -5.83837e+13)
(2.0919e+14 -5.68847e+14 -1.44428e+14)
(2.35102e+13 -1.29235e+15 -2.55921e+15)
(1.97112e+14 1.82737e+14 2.98164e+14)
(1.18804e+14 1.48401e+14 2.32595e+14)
(1.40143e+14 -1.36574e+15 -2.50413e+15)
(1.29326e+14 1.14278e+14 -7.50136e+13)
(3.3963e+13 -2.41344e+14 -4.44172e+14)
(-4.39022e+13 4.15603e+14 -3.17244e+14)
(-1.89988e+14 4.37409e+14 1.78339e+14)
(-4.90722e+14 -4.47935e+14 -1.16967e+15)
(-9.88748e+14 9.50713e+14 -1.23026e+15)
(-6.85274e+14 2.86525e+14 2.01473e+15)
(-6.56149e+14 4.6286e+14 -8.95879e+14)
(-1.7851e+15 3.02892e+14 3.04528e+15)
(-1.39462e+15 1.54389e+15 -1.1838e+15)
)
;
    }
}


// ************************************************************************* //
