/*--------------------------------*- C++ -*----------------------------------*\
| =========                 |                                                 |
| \\      /  F ield         | OpenFOAM: The Open Source CFD Toolbox           |
|  \\    /   O peration     | Version:  2.4.0                                 |
|   \\  /    A nd           | Web:      www.OpenFOAM.org                      |
|    \\/     M anipulation  |                                                 |
\*---------------------------------------------------------------------------*/
FoamFile
{
    version     2.0;
    format      ascii;
    class       volVectorField;
    location    "0.07";
    object      Ur;
}
// * * * * * * * * * * * * * * * * * * * * * * * * * * * * * * * * * * * * * //

dimensions      [0 1 -1 0 0 0 0];

internalField   nonuniform List<vector> 
200
(
(506784 1.55629e+06 5.99321e+06)
(-890527 838343 -326545)
(-613088 4829.53 -220332)
(-730197 58669.4 -222930)
(-580878 157540 -70715.5)
(-608595 32776.8 -307490)
(-518408 599650 407014)
(-656352 233192 -318431)
(-712776 131525 63559.7)
(-756084 82983.8 -242282)
(-596676 183713 -465112)
(346879 926739 6.10322e+06)
(-1.02431e+06 936744 -399665)
(-598399 154787 -321263)
(-677620 43269.1 -305468)
(-651886 490683 142875)
(-556536 107074 -333906)
(-592555 759556 704449)
(-653285 293492 -342032)
(-858088 -206375 209713)
(30034.4 204945 2.57343e+06)
(-699202 149354 -327250)
(199202 489928 5.02087e+06)
(-1.0369e+06 749101 -439914)
(-567005 283510 -375287)
(-482022 89304.9 -379353)
(-363161 66070 296713)
(-458168 586811 -394758)
(-292875 -64144.8 677397)
(-700691 893253 -205492)
(-475818 -182904 -171163)
(-283564 76119 1.38209e+06)
(-604313 45594.3 -173056)
(-393516 110850 759735)
(-305672 42006.4 -383838)
(-195069 47365.8 -101526)
(26651.3 742023 -452069)
(355204 -949410 755552)
(-20205.2 1.37298e+06 -470516)
(526505 -2.48783e+06 1.30483e+06)
(-569964 -360023 -399845)
(-270621 -490598 -215570)
(-448143 -263147 -259220)
(-453507 -266910 -136750)
(-594219 -142822 -265966)
(-455409 -29602.7 98999.2)
(-630385 -159256 -271386)
(-411387 605955 704595)
(-688453 1060.17 -321789)
(-564415 -67053 -37807.5)
(-495450 -164550 368442)
(-450158 -64729.2 -404499)
(-112401 -255178 8980.74)
(-389465 -193978 -342916)
(-508047 -283582 -97453.5)
(-667414 -260053 -278417)
(-636360 266945 428227)
(-647084 -104964 -233078)
(-469934 657412 986807)
(-731518 -308294 -169969)
(-572595 -52617.5 -311587)
(-240575 -25914.6 777954)
(-448276 299272 -230659)
(176560 -59834.2 1.05635e+06)
(-499691 310098 -308069)
(-620597 120823 32597.6)
(-671679 -180049 -208080)
(-690278 291254 517656)
(-638304 163615 -261241)
(-758088 164927 1.00712e+06)
(-457883 161632 598810)
(-502106 -42680.2 -58496.2)
(-365470 121010 1.00573e+06)
(-406063 208626 -104706)
(-327382 88261.5 557254)
(-435908 -71998 -288529)
(-518300 95072.1 137990)
(-613544 -5890.9 -238259)
(-484383 24729.3 867607)
(-665787 579470 -459023)
(-486028 -11014.3 -73011)
(-557865 -308684 -51642)
(-472339 -340869 10902.3)
(-626689 -138001 -76491.8)
(-400790 -360799 -37261.3)
(-726415 -88351.9 -173851)
(-349393 -215635 82657.5)
(-726480 -21484.1 -179541)
(-277385 -335560 20271.9)
(-686470 -138184 27179.2)
(-534687 -221412 -39487.4)
(-426606 -288908 190809)
(-490764 -174338 -32428.8)
(-406624 -388541 66952.5)
(-640986 -92857.7 -92397.4)
(-482529 -311751 5741.12)
(-724655 -68772.7 -144932)
(-366892 -300072 91774)
(-642793 -177241 -10555.1)
(-321332 -227035 268792)
(-519522 -107562 269958)
(-496251 -150599 -3224.95)
(-356216 -211229 511475)
(-455772 45313.7 23077.2)
(-389188 -242610 319443)
(-580094 118562 -18204.5)
(-515704 -304891 24434)
(-718025 38924.3 158838)
(-490259 -181532 370843)
(-721924 -16112.4 222402)
(-452677 -170242 -9607.56)
(-467862 68737.9 620063)
(-445996 -94225.5 75303.3)
(-401845 -99361.5 776950)
(-410031 312430 108653)
(-340397 -248817 409722)
(-497635 296420 60072.4)
(-337828 -264396 378399)
(-498598 85639.7 326770)
(-318171 -624109 642662)
(-357625 60714.1 1.22758e+06)
(-544050 -215694 309443)
(-444629 -210593 -94014.7)
(-454590 -312398 -44140.8)
(-586165 -83160.5 -15950.2)
(-457799 -379469 1607.6)
(-726397 416316 7499)
(-365243 -485829 138213)
(-1.02594e+06 1.16084e+06 139582)
(-564933 -258980 278687)
(-514239 -132553 342936)
(-423632 -141138 -404610)
(-434318 -230866 -58489.6)
(-513883 -121884 -15720)
(-484984 -272319 1040.23)
(-648663 102064 -84692.3)
(-487986 -268445 -45343.6)
(-704304 404099 -66320.3)
(-375237 -289304 73922.6)
(-275199 -342809 171160)
(-442006 -93992 -270169)
(-452567 -100520 74117.4)
(-440284 -144210 -50933.3)
(-419205 -147830 384874)
(-454905 184053 -30213.3)
(-409464 -126572 146417)
(-618000 353362 -118553)
(-334147 -126219 -21264.4)
(-414427 -42317.3 -28207.7)
(-333341 28670.6 218571)
(-455560 34801.2 153440)
(-409889 -252691 -48955.8)
(-473462 10970.4 493773)
(-446585 -114997 -55278.5)
(-434501 -178265 546868)
(-440651 375110 52109.5)
(-214946 -140036 102129)
(-262001 -107796 -129989)
(-141575 124294 187214)
(-177943 -643800 -172892)
(-506083 -81712.3 198774)
(-401828 -96577 149375)
(-399349 -423011 -53734)
(-580892 -121049 -66872.9)
(-472976 -209650 -146283)
(-794009 925739 -42978.2)
(-442724 -207542 -280450)
(-1.06486e+06 2.23809e+06 68204.6)
(-364026 -776282 -100316)
(-1.37026e+06 1.53923e+06 96816.6)
(-440501 592614 -202165)
(-459431 -234550 -83166.8)
(-595204 -415951 68245.9)
(-503933 -429759 231648)
(-638344 247826 -158826)
(-519672 55971.8 -137802)
(-625864 1.16336e+06 -36386.1)
(-346872 -97353.6 -230592)
(-900602 2.14374e+06 83813.7)
(-531305 -108554 344095)
(-449837 -93201.1 -43378)
(-442500 -287489 -59735.6)
(-490878 -179769 106272)
(-527513 -73098.3 -201418)
(-583453 45459.1 301454)
(-435786 452578 -90628)
(-301148 57803.2 -93877.6)
(-535918 1.91418e+06 35666.2)
(-107068 -63786.7 118270)
(467257 -563382 80153.2)
(-334312 -262872 -82719.6)
(-473895 34224.5 121111)
(-443038 -316051 -194183)
(-569489 45262.6 385294)
(-454978 -89839.7 -165627)
(-357610 -20699.2 236687)
(-87063 170205 -149534)
(-16347.6 29151.8 23834.1)
(345397 -377629 -135852)
(139921 283076 249479)
)
;

boundaryField
{
    inlet
    {
        type            calculated;
        value           nonuniform 0();
    }
    outlet
    {
        type            calculated;
        value           nonuniform 0();
    }
    bottom
    {
        type            calculated;
        value           uniform (0 0 0);
    }
    top
    {
        type            symmetryPlane;
    }
    side1
    {
        type            symmetryPlane;
    }
    side2
    {
        type            symmetryPlane;
    }
    procBoundary29to21
    {
        type            processor;
        value           nonuniform List<vector> 
50
(
(-480118 255146 -134450)
(-607945 18308.6 -119949)
(-800399 141752 -138578)
(-481660 -36930.3 -63216.5)
(-742645 102949 -181572)
(-379697 221694 74754)
(-714208 255499 -205385)
(-434302 138450 -18253.9)
(-801733 210209 -108599)
(-375208 -176148 -21531.8)
(-469925 -464577 -110259)
(-617223 -210234 -80342.9)
(-468054 -313155 -60686.9)
(-626092 -103880 -138804)
(-377821 -230292 -41960)
(-679183 -73966.2 -224244)
(-281497 133956 189540)
(-718357 106501 -205557)
(-355614 9640.38 -75183.6)
(-776830 181762 -75481.7)
(-197320 173433 2.17061e+06)
(-505871 -61083.4 -104752)
(-714189 -159389 -41426.3)
(-483295 -283788 22675.9)
(-720195 -70578.4 -63457)
(-322278 -297455 5970.29)
(-775473 13653.5 -145851)
(-266888 -297635 20361.7)
(-835624 29960.3 -31799.7)
(-333935 -141537 112373)
(-381167 -373545 -164542)
(-140325 193258 2.88982e+06)
(-495084 -279855 270983)
(-425298 -228917 52680)
(-393655 -399737 39659.5)
(-524229 183161 126194)
(-368724 -475882 194436)
(-706612 422681 296764)
(-488028 -452550 368686)
(-936064 12381 359229)
(-283082 -486485 113849)
(-299412 -663441 -55506.7)
(-111041 -382563 156913)
(-137819 -696869 -62368.9)
(-417237 305861 27174.3)
(-311304 -344129 -183606)
(-692416 1.51204e+06 147230)
(-443962 -694951 101607)
(-1.29634e+06 2.05652e+06 250130)
(-708566 -881896 414561)
)
;
    }
    procBoundary29to28
    {
        type            processor;
        value           nonuniform List<vector> 
20
(
(-208863 -53415.4 -416649)
(35498.4 236510 2.25918e+06)
(-412953 -141790 -439135)
(-60606.5 170051 1.66875e+06)
(-695414 -308093 -98804)
(-691377 -268019 -339013)
(-598792 32079.6 277366)
(-581028 -100481 -298013)
(-324971 -2323.5 856645)
(-467877 -31985.4 -49819.1)
(-547030 -102537 33113.2)
(-476633 109571 180451)
(-461307 -105326 -27769.3)
(-442323 -85430.7 25704.3)
(-497678 -26465.3 67433.1)
(-385486 -105454 -95844.4)
(-347332 -387746 -36861.9)
(-605647 65708.4 250684)
(-525768 22099.1 -138312)
(-397478 91712.6 29139.5)
)
;
    }
    procBoundary29to30
    {
        type            processor;
        value           nonuniform List<vector> 
20
(
(-508034 -282881 -60573.1)
(-937390 60250.3 -144309)
(-182938 -931858 501896)
(-333887 1.14149e+06 -125238)
(-734852 -14309.1 -216147)
(-630611 -373293 212796)
(-938720 27464.7 -172893)
(-125002 -2.60264e+06 574141)
(-380883 -100280 222482)
(-675520 -235260 60182.4)
(-286483 33862.4 500468)
(-691257 -234857 -116765)
(-475372 -462441 218218)
(-546155 62973.9 379089)
(-217369 -589470 51236.7)
(-111848 393769 238850)
(-943402 -86986.6 424168)
(433379 -1.15576e+06 -56567.1)
(-313358 441636 467799)
(313253 -1.04294e+06 -731817)
)
;
    }
}


// ************************************************************************* //
