/*--------------------------------*- C++ -*----------------------------------*\
| =========                 |                                                 |
| \\      /  F ield         | OpenFOAM: The Open Source CFD Toolbox           |
|  \\    /   O peration     | Version:  2.4.0                                 |
|   \\  /    A nd           | Web:      www.OpenFOAM.org                      |
|    \\/     M anipulation  |                                                 |
\*---------------------------------------------------------------------------*/
FoamFile
{
    version     2.0;
    format      ascii;
    class       volVectorField;
    location    "0.01";
    object      gradp;
}
// * * * * * * * * * * * * * * * * * * * * * * * * * * * * * * * * * * * * * //

dimensions      [1 -2 -2 0 0 0 0];

internalField   nonuniform List<vector> 
40
(
(4.78477e+21 3.08616e+21 -8.01927e+21)
(2.94925e+21 2.30896e+21 -6.95275e+21)
(2.03621e+21 1.0907e+21 -5.51287e+21)
(1.80926e+21 6.11745e+20 -4.33144e+21)
(6.32316e+20 9.76837e+20 -3.48727e+21)
(2.73143e+21 8.2613e+20 -4.96604e+21)
(2.39818e+21 5.61114e+20 -4.14501e+21)
(2.51418e+21 7.2356e+20 -3.56362e+21)
(1.73171e+21 6.2823e+20 -3.10938e+21)
(8.42802e+20 6.10221e+20 -2.60566e+21)
(3.06895e+21 1.75159e+19 -2.45276e+21)
(2.74411e+21 -9.95565e+18 -2.52984e+21)
(2.17044e+21 -2.41547e+20 -2.40134e+21)
(1.58259e+21 -3.87906e+20 -2.11424e+21)
(1.12099e+21 -1.76584e+20 -1.69563e+21)
(2.72514e+21 2.98595e+19 -1.42261e+21)
(1.88006e+21 -2.52163e+20 -1.61936e+21)
(1.75828e+21 -3.36931e+20 -1.64749e+21)
(1.86164e+21 -3.08866e+20 -1.567e+21)
(1.60212e+21 -1.80063e+20 -1.1909e+21)
(2.66058e+21 5.21157e+21 -2.93745e+21)
(5.91521e+21 5.94671e+21 -2.88462e+21)
(6.82045e+21 4.8855e+21 -2.01058e+21)
(5.32568e+21 2.71516e+21 -1.38954e+21)
(3.46734e+21 1.22622e+21 -9.11705e+20)
(3.53573e+21 4.49057e+21 -2.07549e+21)
(4.75527e+21 3.68886e+21 -1.49013e+21)
(3.02097e+21 2.25108e+21 -1.33891e+21)
(2.6979e+21 1.30009e+21 -1.33176e+21)
(2.5503e+21 9.57846e+20 -1.03697e+21)
(1.59799e+21 2.67494e+21 -6.47172e+20)
(1.43623e+21 1.44097e+21 -9.29782e+20)
(2.04291e+21 8.57278e+20 -1.05588e+21)
(2.7392e+21 7.08876e+20 -9.69632e+20)
(2.78325e+21 9.08137e+20 -6.9444e+20)
(1.13432e+21 3.28928e+20 -4.14602e+20)
(1.11994e+21 4.16453e+20 -5.833e+20)
(1.55678e+21 3.43025e+20 -6.5214e+20)
(2.79962e+21 4.56937e+20 -6.46269e+20)
(3.2158e+21 4.58367e+20 -3.59022e+20)
)
;

boundaryField
{
    inlet
    {
        type            zeroGradient;
    }
    outlet
    {
        type            zeroGradient;
    }
    bottom
    {
        type            zeroGradient;
    }
    top
    {
        type            symmetryPlane;
    }
    side1
    {
        type            symmetryPlane;
    }
    side2
    {
        type            symmetryPlane;
    }
    procBoundary98to34
    {
        type            processor;
        value           nonuniform List<vector> 
20
(
(-1.79833e+21 -5.7107e+21 -9.90304e+21)
(-2.10525e+21 -4.55729e+21 -8.21559e+21)
(-1.56773e+21 -3.85783e+21 -6.961e+21)
(-1.15625e+21 -2.86865e+21 -5.81528e+21)
(-7.26978e+20 -1.51246e+21 -4.72489e+21)
(5.86383e+20 -4.41583e+21 -5.73045e+21)
(2.67518e+20 -3.38778e+21 -4.91889e+21)
(-2.93029e+20 -2.72737e+21 -4.0933e+21)
(-3.67577e+20 -2.24743e+21 -3.35153e+21)
(-2.63781e+20 -1.90877e+21 -2.81409e+21)
(1.9567e+21 -2.99454e+21 -3.6562e+21)
(1.27168e+21 -2.60006e+21 -2.99226e+21)
(7.12981e+20 -2.20853e+21 -2.4823e+21)
(4.80938e+20 -1.75894e+21 -2.08903e+21)
(2.05413e+20 -1.35548e+21 -1.76589e+21)
(2.16722e+21 -1.64421e+21 -2.39538e+21)
(1.83954e+21 -1.53029e+21 -2.08732e+21)
(1.3892e+21 -1.29757e+21 -1.85408e+21)
(1.33854e+21 -1.12937e+21 -1.61508e+21)
(8.78436e+20 -9.35935e+20 -1.32321e+21)
)
;
    }
    procBoundary98to82
    {
        type            processor;
        value           nonuniform List<vector> 10((5.36488e+21 6.07237e+21 -1.17925e+22) (6.38911e+21 4.95408e+21 -1.071e+22) (5.90861e+21 3.63898e+21 -9.0282e+21) (1.95943e+21 1.69499e+21 -6.59926e+21) (-6.91532e+20 1.27285e+21 -4.31733e+21) (2.27537e+21 1.07961e+22 -3.40387e+21) (5.4074e+21 1.07218e+22 -3.76372e+21) (9.48407e+21 9.84311e+21 -3.71066e+21) (1.00165e+22 7.5568e+21 -2.64639e+21) (5.69276e+21 5.48397e+21 -1.19283e+21));
    }
    procBoundary98to97
    {
        type            processor;
        value           nonuniform List<vector> 8((6.26275e+21 3.62568e+21 -8.34616e+21) (4.46959e+21 1.41903e+21 -5.06668e+21) (3.40047e+21 -6.80814e+18 -2.41775e+21) (3.3607e+21 2.24487e+20 -1.29658e+21) (1.9826e+21 5.31653e+21 -2.22081e+21) (2.01319e+21 4.22015e+21 -1.74147e+21) (2.93747e+21 2.64167e+21 -4.70108e+20) (2.4716e+21 3.13845e+20 -8.61694e+19));
    }
    procBoundary98to99
    {
        type            processor;
        value           nonuniform List<vector> 8((4.71707e+19 1.37891e+21 -3.02072e+21) (9.23091e+20 8.72567e+20 -2.22998e+21) (8.54327e+20 -8.24703e+18 -1.30867e+21) (1.26254e+21 -1.08375e+20 -8.36568e+20) (2.39024e+21 1.14393e+21 -5.03601e+20) (2.1989e+21 9.58044e+20 -7.98165e+20) (2.14273e+21 1.04163e+21 -4.50177e+20) (2.07729e+21 3.19164e+20 -1.41993e+20));
    }
    procBoundary98to114
    {
        type            processor;
        value           nonuniform List<vector> 10((2.11565e+21 1.84676e+20 -1.21956e+21) (2.01052e+21 1.77902e+20 -1.31313e+21) (2.05703e+21 1.62348e+20 -1.37597e+21) (1.89632e+21 7.24187e+19 -1.1228e+21) (1.52197e+21 7.39221e+19 -8.24194e+20) (1.80321e+21 -9.62848e+19 -4.60254e+20) (1.46443e+21 2.39029e+20 -5.11897e+20) (2.12388e+21 6.12822e+20 -6.30909e+20) (2.96989e+21 6.86012e+20 -4.91005e+20) (2.5077e+21 2.65669e+20 -2.9542e+20));
    }
}


// ************************************************************************* //
