/*--------------------------------*- C++ -*----------------------------------*\
| =========                 |                                                 |
| \\      /  F ield         | OpenFOAM: The Open Source CFD Toolbox           |
|  \\    /   O peration     | Version:  2.4.0                                 |
|   \\  /    A nd           | Web:      www.OpenFOAM.org                      |
|    \\/     M anipulation  |                                                 |
\*---------------------------------------------------------------------------*/
FoamFile
{
    version     2.0;
    format      ascii;
    class       surfaceScalarField;
    location    "0.17";
    object      phib;
}
// * * * * * * * * * * * * * * * * * * * * * * * * * * * * * * * * * * * * * //

dimensions      [0 3 -1 0 0 0 0];

internalField   nonuniform List<scalar> 
490
(
3.71728e+09
-2.54595e+09
-3.6762e+08
4.07602e+09
-2.4064e+09
-8.44464e+07
4.60908e+09
-2.42078e+09
-2.47149e+08
5.01241e+09
-2.41005e+09
9.10046e+07
5.4042e+09
-2.34908e+09
-4.85822e+07
5.82823e+09
-2.49034e+09
2.68816e+08
6.28221e+09
-2.42408e+09
1.39558e+08
6.79686e+09
-2.64948e+09
4.33816e+08
7.35218e+09
-2.77996e+09
4.07909e+08
-3.34442e+09
6.1017e+08
2.72998e+09
-2.61705e+09
-1.07807e+08
3.23108e+09
-2.8871e+09
-2.04009e+07
3.32655e+09
-2.70701e+09
1.90768e+08
3.60556e+09
-2.8966e+09
2.07536e+08
3.64236e+09
-2.88374e+09
4.97854e+08
3.67096e+09
-2.96595e+09
4.47002e+08
3.58296e+09
-3.23582e+09
8.99748e+08
3.36016e+09
-3.18351e+09
7.56836e+08
3.63787e+09
-4.38424e+09
1.32657e+09
-3.61219e+09
1.16269e+09
1.54204e+09
-3.0865e+09
9.93197e+07
1.27998e+09
-2.84946e+09
2.24423e+08
1.34997e+09
-3.06016e+09
2.83161e+08
8.84823e+08
-3.11422e+09
6.82773e+08
4.27361e+08
-2.92588e+09
4.99606e+08
5.557e+07
-3.70294e+09
1.10878e+09
-9.81945e+08
-2.95309e+09
7.54778e+08
-1.11383e+09
-4.73693e+09
1.6853e+09
-3.208e+09
-3.34962e+09
1.05956e+09
-4.95229e+09
1.32268e+09
-9.77084e+08
2.16752e+08
-1.38858e+09
4.83453e+07
-2.10369e+09
6.578e+08
-3.13009e+09
2.73087e+08
-3.858e+09
1.11269e+09
-5.21336e+09
4.31399e+08
-5.27242e+09
1.65699e+09
-6.51026e+09
3.77208e+08
-6.13576e+09
7.29455e+08
1.90252e+09
2.8309e+09
-3.0208e+09
-2.81861e+08
3.6483e+09
-3.43581e+09
-9.40583e+07
3.77493e+09
-3.30666e+09
7.88592e+07
4.51189e+09
-3.28261e+09
3.07605e+07
4.78979e+09
-3.40013e+09
4.48798e+08
5.53233e+09
-3.20013e+09
1.80933e+08
6.42003e+09
-3.71366e+09
5.03942e+08
7.37956e+09
-3.13347e+09
2.85349e+08
8.62861e+09
-3.63579e+09
6.35083e+08
-3.15604e+09
2.8774e+08
1.72727e+09
-3.49702e+09
-4.18495e+07
1.79472e+09
-3.85624e+09
3.32574e+08
2.01334e+09
-3.37234e+09
3.78294e+07
2.22112e+09
-4.13543e+09
8.52583e+08
2.20269e+09
-3.57688e+09
6.93023e+08
3.05428e+09
-4.87553e+09
1.27081e+09
2.95731e+09
-3.60028e+09
8.83337e+08
4.13619e+09
-4.78049e+09
1.22498e+09
4.81851e+09
-3.99453e+09
1.00298e+09
-5.0167e+09
1.52484e+09
-2.75358e+08
-3.86205e+09
2.90301e+08
-4.697e+08
-3.2105e+09
-2.26976e+08
-5.36513e+08
-3.84054e+09
8.18177e+08
-1.15761e+09
-3.69913e+09
8.67583e+08
-3.67205e+08
-5.13343e+09
1.26575e+09
-1.19837e+09
-3.94511e+09
1.00953e+09
-3.58412e+08
-4.79201e+09
1.10655e+09
1.08127e+08
-4.56529e+09
1.00356e+09
9.89891e+08
-5.58853e+09
1.7718e+09
-4.95492e+09
9.82688e+08
-2.35627e+09
-5.64548e+08
-2.38807e+09
2.75442e+08
-3.34168e+09
8.76424e+08
-2.9781e+09
9.43294e+08
-3.98096e+09
7.78403e+08
-3.47535e+09
5.66585e+08
-2.91491e+09
7.65966e+08
-3.18519e+09
1.53087e+09
-4.29066e+09
1.57199e+09
1.92881e+09
2.05482e+09
-3.95573e+09
-2.89825e+08
2.188e+09
-4.13113e+09
1.42436e+08
2.72555e+09
-3.53108e+09
-2.53222e+08
3.58568e+09
-4.51836e+09
3.7954e+08
3.25874e+09
-2.92458e+09
3.67904e+08
4.64172e+09
-4.61603e+09
4.15356e+08
5.4353e+09
-3.30406e+09
5.27522e+07
7.29528e+09
-4.39904e+09
1.39187e+08
8.65859e+09
-3.35577e+09
-6.53633e+07
-3.97672e+09
-2.39774e+08
4.94703e+08
-4.31603e+09
1.35002e+08
6.1133e+08
-3.73102e+09
-1.84169e+08
2.12128e+09
-5.23426e+09
2.31055e+08
-3.03574e+08
-2.97907e+09
1.73814e+09
3.31374e+08
-3.94891e+09
1.0824e+09
6.47932e+08
-4.49584e+09
8.34069e+08
3.24889e+09
-5.73587e+09
7.14197e+08
3.90011e+09
-4.18127e+09
3.55982e+08
5.89252e+09
-4.50094e+09
1.55733e+08
-3.61797e+09
-1.96143e+08
-1.04646e+09
-3.60675e+09
-2.84421e+08
2.28581e+08
-5.04338e+09
-1.8966e+08
-3.11728e+09
-2.71975e+09
1.64953e+09
-2.8578e+09
-3.42926e+09
1.05829e+09
-1.91898e+09
-4.71086e+09
1.08889e+09
2.08629e+08
-6.37911e+09
7.65187e+08
6.63707e+08
-5.31255e+09
2.28148e+08
2.42001e+09
-4.47188e+09
-4.62144e+08
3.70909e+09
-3.32541e+09
-6.9281e+08
-2.75566e+09
-4.36489e+09
-2.05794e+09
-6.76342e+08
-4.96969e+09
7.65584e+08
-5.24817e+09
8.15247e+08
-4.18292e+09
8.19298e+08
-1.81439e+09
1.86278e+08
-1.55243e+09
-3.09497e+08
-3.29201e+08
-1.25766e+09
1.11886e+09
-7.22769e+08
3.44183e+09
-2.32795e+09
1.75684e+09
1.35816e+09
-4.4521e+09
-3.80277e+08
2.71054e+09
-4.41532e+09
-4.08399e+08
4.72025e+09
-5.02761e+09
-7.18343e+08
1.24179e+09
1.37297e+09
-7.6577e+08
2.43962e+09
-2.14409e+09
-2.75677e+08
2.75351e+09
-2.58377e+09
-4.17684e+08
4.67701e+09
-3.49758e+09
-4.59788e+08
5.12206e+09
-2.53301e+09
-6.3818e+08
6.54933e+09
-3.14621e+09
-7.83715e+08
-3.85417e+09
-1.28529e+09
3.00497e+08
-4.78526e+09
-3.7154e+08
2.10564e+09
-5.76116e+09
-6.43473e+08
-3.72763e+09
1.74056e+09
-7.0384e+08
-1.94669e+09
7.35644e+08
5.94533e+08
-9.80756e+08
-1.80571e+09
-2.21922e+08
9.42916e+08
-3.32962e+09
-3.43751e+08
1.30713e+09
-2.22859e+09
-9.18999e+08
2.31055e+09
-2.03581e+09
-1.14464e+09
4.46676e+09
-3.06126e+09
-2.08543e+09
-3.69809e+09
-4.95251e+09
-9.79519e+08
-5.7722e+09
-3.63278e+08
-8.20722e+09
1.65919e+09
-3.82299e+08
-5.4332e+09
-3.4201e+08
9.58079e+08
-2.86312e+09
-9.51056e+08
1.74917e+08
-1.06768e+09
-2.8432e+09
3.30932e+08
-3.50365e+08
-2.32157e+09
-9.6018e+08
1.01504e+09
-1.39972e+09
-1.96613e+09
2.94353e+09
-5.72356e+08
-3.85409e+09
8.00104e+09
-5.11011e+08
-8.30056e+09
-8.37452e+09
-3.66801e+09
-1.19399e+10
3.95903e+07
-8.46913e+09
1.03276e+09
-5.8022e+09
4.10146e+08
-3.70409e+09
4.82716e+08
-1.28718e+09
-1.14331e+09
9.41899e+08
-2.71145e+09
3.87339e+09
-4.4699e+09
6.42768e+09
-8.19971e+09
1.18487e+10
-5.26802e+09
1.45747e+08
1.10117e+09
-4.48009e+09
1.69336e+09
-4.61849e+09
2.47536e+09
-5.25557e+09
3.02507e+09
-5.31363e+09
2.13696e+09
-2.92139e+09
3.19459e+09
-3.94741e+09
2.91745e+09
-3.24628e+09
4.62199e+09
-4.96728e+09
6.2484e+09
-6.33307e+09
-7.83622e+09
-9.0841e+08
-5.05112e+09
-2.27424e+08
-5.94295e+09
5.62676e+08
-6.74951e+09
-2.43035e+09
-1.72607e+09
-1.36335e+09
-4.21031e+09
-2.0199e+09
-3.63462e+09
-6.34165e+08
-5.55101e+09
1.07527e+09
-7.82136e+09
2.45576e+09
-9.79898e+09
-1.60937e+10
-3.25495e+09
-5.63273e+09
-3.1978e+09
-6.3824e+09
-7.4456e+09
-1.54363e+09
-5.42944e+09
-3.56731e+09
-5.31694e+09
-3.99188e+09
-4.13226e+09
-5.77948e+09
-2.88943e+09
-8.75997e+09
-3.79418e+09
-1.07707e+10
-3.99152e+08
-2.14946e+10
-1.96068e+10
-5.64572e+09
-1.03842e+10
-8.36043e+09
-7.10107e+09
-7.25387e+09
-6.55083e+09
-9.01435e+09
-6.42894e+09
-6.03246e+09
)
;

boundaryField
{
    inlet
    {
        type            fixedValue;
        value           nonuniform 0();
    }
    outlet
    {
        type            calculated;
        value           nonuniform 0();
    }
    bottom
    {
        type            fixedValue;
        value           uniform 0;
    }
    top
    {
        type            symmetryPlane;
        value           nonuniform List<scalar> 
40
(
-3.12051e-24
-3.4921e-24
-2.88947e-24
-2.50118e-24
-2.65892e-24
-2.92131e-24
-3.19422e-24
-1.9296e-24
-2.41865e-24
-4.36792e-24
-3.13746e-24
-1.65623e-24
-3.05732e-24
-2.70331e-24
-3.03707e-24
-1.31106e-24
-1.99055e-24
-1.94268e-24
-1.9533e-24
-1.22258e-24
-1.76743e-24
-2.57709e-24
-2.44397e-24
-1.45474e-24
-1.71054e-24
-2.72381e-24
-2.31832e-24
-1.48239e-24
-1.7168e-24
-2.50006e-24
-2.29972e-24
-1.71318e-24
-1.72263e-24
-2.34089e-24
-2.544e-24
-1.20612e-24
-2.03302e-24
-3.0376e-24
-1.04207e-24
-4.61096e-25
)
;
    }
    side1
    {
        type            symmetryPlane;
        value           nonuniform 0();
    }
    side2
    {
        type            symmetryPlane;
        value           nonuniform 0();
    }
    procBoundary17to9
    {
        type            processor;
        value           nonuniform List<scalar> 
50
(
2.28441e+09
2.1321e+09
2.13486e+09
1.91571e+09
2.00587e+09
1.7975e+09
1.83054e+09
1.701e+09
1.81674e+09
1.90641e+09
3.02771e+09
2.62803e+09
2.85402e+09
2.6059e+09
2.62485e+09
2.54547e+09
2.46158e+09
2.32241e+09
2.15957e+09
2.0531e+09
3.1312e+09
3.76146e+09
3.32561e+09
3.30945e+09
3.33242e+09
2.99862e+09
2.96166e+09
2.68523e+09
2.6929e+09
2.41816e+09
4.19496e+09
3.61378e+09
3.48302e+09
3.2508e+09
1.58985e+09
3.10292e+09
2.08662e+09
2.86532e+09
2.43729e+09
3.09e+09
3.5964e+09
3.6179e+09
3.75523e+09
3.99815e+09
3.53382e+09
2.4721e+09
3.06363e+09
2.62456e+09
3.92294e+09
4.78791e+09
)
;
    }
    procBoundary17to16
    {
        type            processor;
        value           nonuniform List<scalar> 
20
(
-3.08813e+09
-2.55107e+09
-1.17192e+09
3.43793e+08
-2.92358e+09
-1.31701e+09
4.4941e+08
2.20604e+09
-1.22233e+09
-3.11257e+08
9.11908e+08
2.74656e+09
-1.01057e+09
5.39199e+08
2.04532e+09
4.60599e+09
-5.97761e+08
1.1079e+09
3.47327e+09
4.99726e+09
)
;
    }
    procBoundary17to18
    {
        type            processor;
        value           nonuniform List<scalar> 
20
(
8.18002e+09
2.74295e+09
-3.19057e+09
-8.41647e+09
1.0054e+10
6.31702e+09
1.26809e+09
-3.1363e+09
1.07447e+10
7.25476e+09
8.19436e+09
4.23857e+09
8.35901e+09
9.06705e+09
1.19806e+10
9.97736e+09
8.01142e+09
5.76074e+09
-5.54051e+08
-1.79343e+10
)
;
    }
    procBoundary17to25
    {
        type            processor;
        value           nonuniform List<scalar> 
50
(
-2.66996e+09
-2.48631e+09
-3.00285e+09
-2.3609e+09
-3.31066e+09
-2.77897e+09
-4.55102e+09
-3.8763e+09
-4.45358e+09
-4.57411e+09
-2.93051e+09
-3.4058e+09
-3.10556e+09
-4.73292e+09
-3.79629e+09
-4.5859e+09
-4.46143e+09
-5.44866e+09
-5.32559e+09
-6.13556e+09
-4.18358e+09
-2.62176e+09
-2.38009e+09
-4.37051e+09
-6.48727e+09
-5.76498e+09
-4.51216e+09
-3.6663e+09
-1.74844e+09
-3.38044e+09
8.45809e+08
-2.0788e+09
-2.60383e+09
-2.71259e+09
-3.93052e+09
-2.14871e+09
-1.11897e+09
4.3503e+09
-2.99192e+09
-4.89213e+09
-4.94468e+09
-6.11152e+08
-3.15726e+09
-4.34395e+09
-4.98239e+09
-9.19396e+09
-1.07664e+10
-2.15558e+10
-2.71591e+10
-7.55927e+09
)
;
    }
}


// ************************************************************************* //
