/*--------------------------------*- C++ -*----------------------------------*\
| =========                 |                                                 |
| \\      /  F ield         | OpenFOAM: The Open Source CFD Toolbox           |
|  \\    /   O peration     | Version:  2.4.0                                 |
|   \\  /    A nd           | Web:      www.OpenFOAM.org                      |
|    \\/     M anipulation  |                                                 |
\*---------------------------------------------------------------------------*/
FoamFile
{
    version     2.0;
    format      ascii;
    class       volVectorField;
    location    "0.09";
    object      Ub;
}
// * * * * * * * * * * * * * * * * * * * * * * * * * * * * * * * * * * * * * //

dimensions      [0 1 -1 0 0 0 0];

internalField   nonuniform List<vector> 
200
(
(5.71566e+07 -2.21196e+07 -3.56104e+06)
(7.41542e+07 282076 4.77531e+06)
(1.03599e+08 1.08585e+07 -5.96058e+07)
(4.8876e+07 -5.77345e+07 -5.16591e+06)
(1.31547e+08 1.91548e+08 -1.63196e+08)
(4.06044e+07 -5.69431e+07 -2.79739e+07)
(2.0101e+08 7.07162e+08 -7.12606e+08)
(2.0878e+08 5.75682e+07 1.09778e+08)
(1.71615e+08 -1.96907e+07 9.13083e+06)
(1.86246e+08 3.25526e+07 -2.97458e+07)
(5.64557e+07 -6.60431e+06 7.2001e+06)
(3.54387e+07 -2.7515e+07 4.58154e+06)
(2.56195e+07 -3.75988e+07 1.95991e+07)
(5.08034e+07 2.58737e+08 -2.54766e+08)
(3.9926e+07 -1.57945e+07 2.25656e+07)
(1.05322e+08 5.43515e+08 -4.82072e+08)
(1.46955e+08 2.57208e+07 7.88082e+07)
(2.34039e+08 -2.12917e+08 -9.65426e+07)
(2.75847e+08 -1.58045e+07 7.88373e+07)
(2.71534e+08 3.42828e+07 4.41322e+07)
(4.8272e+07 1.49011e+07 1.17266e+07)
(4.79465e+07 1.38032e+07 1.78587e+07)
(750013 8.27982e+06 7.06752e+06)
(1.68385e+07 7.79724e+06 5.20891e+07)
(9.48153e+06 8.27495e+07 -7.59719e+07)
(1.23799e+08 1.08249e+08 4.59233e+07)
(1.153e+08 -3.47331e+07 -4.52587e+07)
(2.05522e+08 5.68753e+07 -1.35835e+07)
(8.93464e+07 -1.21708e+08 -7.95064e+07)
(1.96267e+08 9.17423e+07 -2.68775e+07)
(6.71339e+07 8.02619e+06 3.02085e+06)
(6.12892e+07 1.34019e+07 1.41058e+07)
(7.69488e+07 3.81781e+07 1.7085e+07)
(3.98121e+07 2.74457e+07 -1.05806e+07)
(1.01791e+08 5.8695e+07 1.02277e+07)
(6.24598e+07 -9.47792e+06 -5.80466e+07)
(1.61079e+08 8.1992e+07 -4.31611e+06)
(8.42098e+07 -1.76809e+07 -3.59276e+07)
(1.47198e+08 1.01211e+08 -1.38616e+07)
(7.58933e+07 -3.26691e+07 -2.27077e+07)
(6.62792e+07 4.12836e+06 -1.4193e+07)
(5.80556e+07 -1.90699e+07 -2.28634e+07)
(7.09558e+07 4.42332e+06 -2.85723e+07)
(8.57359e+07 7.3823e+06 -4.72699e+07)
(6.8926e+07 2.24168e+07 -1.90078e+07)
(6.28816e+07 2.27599e+08 -2.45199e+08)
(6.27936e+07 3.8965e+07 5.45724e+06)
(-7.24455e+06 -5.28501e+06 3.16204e+07)
(9.64455e+07 -1.44771e+07 -4.5813e+07)
(1.13047e+08 -2.66853e+07 -1.02279e+08)
(4.47601e+07 -8.96084e+06 -3.96107e+06)
(6.65753e+07 7.46633e+06 -7.31907e+06)
(5.39456e+07 -9.88435e+06 -1.01484e+07)
(6.159e+07 6.40208e+06 -9.33388e+06)
(5.90311e+07 1.4347e+08 -1.6063e+08)
(5.09606e+07 -512893 1.62791e+07)
(6.52501e+07 -4.87215e+07 2.13227e+07)
(1.00388e+08 8.52662e+06 -2.45498e+07)
(5.16446e+07 -1.30144e+07 -2.16414e+07)
(1.26899e+08 1.15868e+07 -1.01276e+08)
(6.45736e+07 1.58691e+07 3.00857e+06)
(4.53763e+07 3.43253e+06 1.27795e+07)
(7.0635e+07 2.33075e+07 9.64403e+06)
(4.01508e+07 1.25823e+07 7.73144e+06)
(8.00976e+07 4.51303e+07 1.22875e+07)
(5.32072e+07 2.53924e+07 1.2224e+07)
(8.17127e+07 6.86932e+07 -1.10988e+07)
(9.09737e+06 4.45275e+07 -3.66314e+07)
(1.68341e+07 8.74906e+07 -6.91135e+07)
(2.39794e+07 5.91648e+07 -1.05605e+08)
(6.17838e+07 6.24829e+06 2.05044e+07)
(8.26624e+07 1.51214e+07 8.88543e+06)
(7.0744e+07 1.19202e+07 2.11132e+07)
(1.05762e+08 3.23553e+07 9.05636e+06)
(8.54565e+07 2.52744e+07 1.74719e+07)
(1.24299e+08 5.73883e+07 1.7352e+07)
(8.85016e+07 6.03837e+07 1.45914e+07)
(1.30667e+08 1.209e+08 -1.72946e+07)
(1.3461e+08 1.0979e+08 -8.41479e+07)
(1.96619e+08 -5.02102e+08 2.78836e+07)
(9.10695e+06 1.04482e+07 -3.31405e+07)
(3.35635e+07 3.48136e+07 -4.97276e+07)
(834517 1.44109e+07 -5.06497e+07)
(1.94653e+07 3.37123e+07 -6.35154e+07)
(-1.19361e+07 1.02552e+07 -7.73406e+07)
(-4.23627e+06 2.64314e+07 -8.06876e+07)
(-4.21417e+07 -1.11851e+07 -1.05446e+08)
(-1.86052e+07 -1.66155e+07 -1.33605e+08)
(-1.54136e+07 -7.2255e+07 -1.44609e+08)
(5.87793e+07 -1.25012e+08 -1.59384e+08)
(4.55498e+07 4.99807e+07 -3.45299e+07)
(-690188 2.08146e+07 -2.95265e+07)
(4.0473e+07 5.90761e+07 -3.53082e+07)
(-1.79892e+07 3.29826e+07 -5.63947e+07)
(-5.61933e+06 6.29458e+07 -4.45971e+07)
(-7.28326e+07 3.90052e+07 -8.26148e+07)
(-9.1428e+07 7.92929e+07 -8.83347e+07)
(-1.59419e+08 5.63936e+07 -1.2292e+08)
(-2.42313e+08 -3.37795e+07 -2.30946e+08)
(-5.99254e+06 -6.64734e+07 -2.17141e+08)
(2.36727e+07 1.22809e+07 -4.61231e+06)
(7.80312e+07 5.3858e+07 -8.15957e+06)
(3.8907e+07 4.84761e+07 -8.25573e+06)
(6.46987e+07 1.02874e+08 -959076)
(1.04929e+07 9.47523e+07 -1.86259e+07)
(1.91157e+07 1.69237e+08 -1.69944e+07)
(-1.27143e+08 2.84854e+08 -2.35899e+07)
(-1.93368e+08 9.62705e+07 -1.40169e+08)
(4.02485e+07 -1.59593e+07 -2.17149e+08)
(2.88597e+08 -1.72312e+09 -3.03895e+08)
(1.03962e+08 -3.18308e+06 1.05421e+07)
(9.97481e+07 -1.06261e+06 1.90477e+07)
(1.55452e+08 4.49781e+07 1.97267e+07)
(1.47546e+08 5.85916e+07 2.00086e+07)
(2.14529e+08 1.28043e+08 3.46835e+07)
(2.00153e+08 1.69522e+08 7.65211e+07)
(1.5681e+08 3.65026e+08 1.18499e+07)
(4.05113e+08 -9.2358e+07 -2.35497e+08)
(3.09308e+08 -8.12143e+08 -7.14346e+07)
(2.14569e+08 4.68405e+07 4.09113e+07)
(-621135 5.58699e+07 -3.70515e+07)
(-5.48075e+07 8.90738e+06 -3.20969e+07)
(-2.12313e+07 4.02834e+07 -3.0356e+07)
(-8.21288e+07 4.66613e+06 -4.83461e+07)
(-7.0666e+07 3.15974e+07 -3.45683e+07)
(-1.31137e+08 -1.94148e+07 -6.36885e+07)
(-1.46142e+08 -2.24125e+07 -6.98826e+07)
(-1.83583e+08 -8.11567e+07 -7.39397e+07)
(-1.38785e+08 -4.20765e+08 -1.91776e+08)
(3.96324e+07 -2.12776e+08 -1.68623e+08)
(-3.65931e+07 5.69409e+06 -1.79147e+07)
(9.37884e+06 4.34657e+07 -1.51937e+07)
(-5.22003e+07 2.13798e+07 -2.67057e+07)
(-3.23465e+07 5.6458e+07 -1.36864e+07)
(-1.00888e+08 1.78472e+07 -3.29005e+07)
(-1.24166e+08 5.76394e+07 -3.84729e+07)
(-2.29761e+08 6.87393e+07 -4.61234e+07)
(-3.2903e+08 -1.85109e+08 -1.83765e+08)
(3.5553e+07 -2.04291e+08 -2.34294e+08)
(2.3577e+08 -1.72626e+09 -3.99394e+08)
(3.43208e+07 2.06969e+07 5.58882e+06)
(-1.54949e+07 1.86018e+07 4.44445e+06)
(2.0111e+07 6.62802e+07 2.05813e+07)
(-4.0413e+07 5.76419e+07 1.30833e+07)
(-5.26021e+06 1.18844e+08 3.94185e+07)
(-1.50805e+08 2.67594e+08 6.29671e+07)
(-3.87837e+08 3.39009e+07 -1.15214e+08)
(2.1208e+08 -2.9399e+08 -2.85347e+08)
(2.34748e+08 -1.89141e+09 -3.66676e+08)
(4.28427e+07 2.90646e+06 -9.18606e+06)
(1.01966e+07 -6.34067e+06 1.60091e+07)
(6.03141e+07 2.11182e+07 3.07213e+07)
(6.11186e+07 2.05039e+07 2.60867e+07)
(1.39135e+08 5.77709e+07 3.60176e+07)
(1.38853e+08 1.53206e+08 1.19649e+08)
(1.493e+08 2.70103e+08 2.33466e+08)
(4.80422e+08 -3.69658e+08 -2.50138e+08)
(4.05467e+08 -1.05393e+09 -2.86222e+07)
(2.50386e+08 -3.15599e+08 -1.44641e+08)
(1.48487e+08 -1.12053e+09 -1.43203e+08)
(-4.67139e+07 3.63639e+06 -1.47444e+07)
(629495 3.7402e+07 -7.26129e+06)
(-6.87251e+07 1.71495e+07 -1.72849e+07)
(-4.17063e+07 4.83592e+07 -1.42603e+06)
(-1.0846e+08 1.62952e+07 -2.87129e+07)
(-1.29819e+08 2.90296e+07 -1.44809e+07)
(-1.3103e+08 2.31798e+07 -4.4236e+07)
(-3.11243e+08 -9.17775e+08 -3.61163e+08)
(7.04091e+07 -3.24535e+08 -2.27745e+08)
(2.33332e+07 -7.12695e+08 -1.8489e+08)
(3.37635e+07 3.34891e+07 2.7167e+06)
(-2.88733e+07 3.10989e+07 -7.66774e+06)
(1.55681e+07 7.01231e+07 1.07935e+07)
(-3.04997e+07 5.68218e+07 -1.33534e+07)
(-4.74166e+07 1.02983e+08 5.26537e+06)
(-1.04562e+08 1.71214e+08 -1.3691e+07)
(-3.2957e+08 -1.57545e+08 -1.51228e+08)
(2.20259e+08 -5.08503e+08 -4.3253e+08)
(-1.87841e+07 -1.66352e+09 -3.69989e+08)
(-6.44625e+07 -7.8764e+07 -8.62509e+07)
(-7.6843e+06 1.48665e+07 -3.72287e+06)
(5.67582e+07 4.70735e+07 1.97827e+07)
(4.1806e+07 2.75714e+07 -141059)
(1.33299e+08 6.41473e+07 2.56894e+07)
(1.02169e+08 2.98154e+08 5.14764e+07)
(1.7217e+07 1.33651e+08 5.65298e+07)
(3.63439e+08 -5.38166e+08 -4.70611e+08)
(1.67777e+08 -1.54441e+09 -2.11789e+08)
(-3.88995e+07 -3.3071e+08 -1.41296e+08)
(-1.68319e+08 -1.17175e+09 -2.18879e+08)
(3.95776e+07 4.56014e+06 1.77828e+07)
(2.70092e+07 -1.79965e+07 -4.16405e+06)
(7.47365e+07 -3.08482e+07 3.03204e+06)
(1.90777e+08 1.27266e+08 4.75623e+07)
(2.50982e+07 2.12037e+08 -3.73177e+07)
(4.28271e+08 -9.97325e+07 -8.6396e+07)
(1.92184e+08 -2.11818e+08 5.47723e+07)
(2.23094e+08 -4.31584e+08 -1.97402e+08)
(-8.33775e+07 -8.82179e+08 -1.09093e+08)
(-1.38971e+08 -2.31986e+08 -1.47831e+08)
)
;

boundaryField
{
    inlet
    {
        type            fixedValue;
        value           nonuniform 0();
    }
    outlet
    {
        type            zeroGradient;
    }
    bottom
    {
        type            fixedValue;
        value           uniform (0 0 0);
    }
    top
    {
        type            symmetryPlane;
    }
    side1
    {
        type            symmetryPlane;
    }
    side2
    {
        type            symmetryPlane;
    }
    procBoundary14to6
    {
        type            processor;
        value           nonuniform List<vector> 
50
(
(8.49506e+07 -4.03191e+06 -5.43715e+06)
(5.86295e+07 -1.60923e+07 -2.95682e+07)
(7.57892e+07 -5.08817e+07 -2.26249e+07)
(1.31302e+08 7.04517e+07 -3.09326e+07)
(9.9712e+07 2.06816e+07 -1.19429e+07)
(1.16996e+08 2.24212e+08 -1.8111e+08)
(1.24288e+08 4.9636e+07 1.91006e+07)
(4.0943e+07 -6.79268e+07 -2.61221e+07)
(8.56953e+07 -2.55244e+07 -3.36394e+07)
(1.15239e+08 -222432 -1.79153e+07)
(5.90669e+07 -1.70767e+07 -2.28927e+07)
(8.32712e+07 5.77832e+06 -2.43925e+07)
(5.43614e+07 1.55354e+07 -4.3207e+07)
(6.57808e+07 3.70683e+07 -4.72713e+07)
(7.72913e+07 3.4928e+07 -4.38225e+07)
(7.59239e+07 6.73685e+07 -4.06927e+07)
(5.54235e+07 3.23239e+07 -8.2503e+07)
(7.164e+07 -655607 -7.86921e+07)
(7.84754e+07 -8.24036e+06 -8.50475e+07)
(1.11841e+08 359142 -8.98619e+07)
(4.10452e+07 1.00815e+07 -3.8314e+07)
(1.96677e+07 670871 -4.91702e+07)
(3.25422e+07 1.77232e+07 -6.22357e+07)
(-4.4397e+06 6.0677e+06 -7.39552e+07)
(2.24401e+07 4.74617e+06 -7.98112e+07)
(795808 -4.03959e+06 -9.63855e+07)
(1.44207e+07 2.02031e+06 -9.32279e+07)
(2.97327e+06 -4.52497e+07 -1.20263e+08)
(4.2097e+07 -2.94707e+07 -1.14924e+08)
(5.71715e+07 -6.80348e+07 -1.32497e+08)
(-2.15689e+07 1.62801e+07 -2.62988e+07)
(-6.137e+06 2.58102e+07 -4.39828e+07)
(-5.44427e+07 5.42494e+06 -4.19329e+07)
(-4.35364e+07 2.09166e+07 -4.79698e+07)
(-9.71402e+07 -2.24485e+07 -6.15239e+07)
(-9.16123e+07 871217 -5.65252e+07)
(-1.33484e+08 -6.96708e+07 -9.0421e+07)
(-1.29938e+08 -7.74871e+07 -9.98039e+07)
(-9.08774e+07 -1.15243e+08 -1.02029e+08)
(5.46869e+06 -3.57516e+08 -1.75581e+08)
(-1.24908e+07 5.31478e+07 -2.52546e+07)
(-6.3434e+07 -6.12237e+06 -1.82353e+07)
(-2.80631e+07 1.86521e+07 -1.5923e+07)
(-9.42604e+07 -1.31522e+07 -2.76947e+07)
(-7.42964e+07 1.00617e+07 -1.89575e+07)
(-1.39057e+08 -3.65358e+07 -4.66815e+07)
(-1.39743e+08 -3.64271e+07 -3.24521e+07)
(-1.00032e+08 -9.28694e+07 -8.3247e+07)
(-1.39183e+07 -5.73759e+08 -2.12765e+08)
(7.23673e+07 -1.67434e+08 -8.59018e+07)
)
;
    }
    procBoundary14to13
    {
        type            processor;
        value           nonuniform List<vector> 
20
(
(7.06765e+07 1.66741e+06 -941717)
(5.66611e+07 -2.52184e+06 2.18518e+06)
(6.4385e+07 8.02452e+06 1.24405e+07)
(6.05387e+07 1.00159e+07 1.14699e+07)
(4.59124e+07 -1.53987e+07 -1.47664e+07)
(6.00836e+07 9.81038e+06 -5.10149e+06)
(4.65122e+07 4.28602e+06 1.28269e+07)
(6.74396e+07 9.11336e+06 1.32298e+07)
(4.02358e+07 2.76308e+07 -3.53651e+07)
(2.34402e+06 1.92562e+07 -1.30358e+07)
(5.5879e+07 4.46992e+07 -1.65085e+07)
(4.37965e+07 -2.46123e+07 1.3965e+07)
(-3.24742e+07 1.50879e+07 -1.89365e+07)
(6.44954e+06 5.25727e+07 -2.87279e+07)
(-2.22492e+07 -2.21213e+07 1.42807e+06)
(3.32301e+07 -3.15411e+07 1.04338e+07)
(2.29786e+06 6.00138e+07 -2.31677e+07)
(-2.67669e+07 -6.36885e+06 -9.87733e+06)
(4.53958e+07 -114161 9.53339e+06)
(-1.58132e+07 1.52833e+07 -3.97975e+06)
)
;
    }
    procBoundary14to15
    {
        type            processor;
        value           nonuniform List<vector> 
20
(
(1.54082e+08 6.00536e+07 -3.68434e+07)
(3.95751e+08 1.5516e+08 -7.34991e+07)
(1.76399e+08 -1.26776e+08 7.09623e+07)
(1.07031e+08 2.44544e+08 9.16561e+07)
(1.34661e+08 4.08051e+06 -1.02754e+08)
(1.45348e+08 -1.03454e+07 -1.39449e+08)
(1.23958e+08 5.7565e+06 -1.68768e+08)
(8.71773e+07 6.01957e+07 -1.73638e+08)
(1.01767e+08 -8.73013e+07 -1.43716e+08)
(1.86005e+08 -2.39159e+08 -2.77386e+08)
(7.94173e+07 7.42446e+07 -1.11075e+08)
(1.10858e+08 -8.50205e+08 -8.34695e+07)
(2.66899e+08 -4.89462e+08 -2.37341e+08)
(1.16386e+08 -3.92824e+07 -1.61213e+08)
(1.53643e+08 -1.50997e+09 -2.83609e+08)
(2.17457e+07 -2.24249e+07 -1.02554e+08)
(6.11927e+07 -1.61208e+08 -2.13995e+08)
(-7.83554e+07 -4.4414e+08 1.01456e+08)
(-1.57247e+08 -1.02264e+08 -1.48035e+08)
(-2.4852e+08 -6.04936e+08 -1.76177e+08)
)
;
    }
    procBoundary14to22
    {
        type            processor;
        value           nonuniform List<vector> 
50
(
(7.3952e+07 4.00433e+06 1.10974e+07)
(8.32076e+07 5.69994e+06 -1.92411e+06)
(7.93551e+07 8.9693e+06 2.42377e+06)
(1.05543e+08 3.7666e+07 1.0418e+07)
(9.81754e+07 817203 -2.51909e+07)
(1.36316e+08 3.92228e+07 -4.40039e+06)
(7.76334e+07 -7.49707e+07 -9.37792e+07)
(1.8274e+08 4.29904e+07 -2.97618e+07)
(9.42992e+07 2.67066e+06 -1.15028e+07)
(1.78796e+08 1.27774e+08 5.66255e+07)
(7.64621e+07 -1.0077e+07 1.26365e+07)
(8.0135e+07 -8.48049e+06 2.21651e+07)
(1.05623e+08 -3.56189e+06 7.71582e+06)
(1.04139e+08 -3.14646e+06 1.49644e+07)
(1.39941e+08 9.2496e+06 1.0546e+07)
(1.28874e+08 1.30042e+07 8.62105e+06)
(1.72253e+08 5.38036e+07 8.14839e+06)
(1.81702e+08 5.06034e+07 1.79316e+07)
(2.08577e+08 8.63371e+07 1.5003e+07)
(1.75841e+08 5.41287e+07 -2.28075e+07)
(8.3635e+07 -7.49134e+07 3.53515e+06)
(1.03747e+08 -6.01234e+07 1.62103e+07)
(1.25469e+08 -2.95742e+07 1.22316e+07)
(1.67347e+08 -2.98112e+07 5.97682e+06)
(1.76922e+08 2.08805e+07 1.8982e+07)
(2.44416e+08 6.82934e+07 3.49816e+07)
(2.6004e+08 9.63325e+07 4.39519e+07)
(2.86192e+08 9.30749e+07 9.17969e+06)
(2.82751e+08 -2.39187e+07 -3.99885e+07)
(2.12156e+08 -1.68341e+08 1.5796e+07)
(4.98496e+07 -5.9497e+07 3.32777e+07)
(9.18866e+07 -3.48303e+07 1.87333e+07)
(1.45015e+08 -6.03675e+07 -1.81539e+07)
(1.83866e+08 7.8233e+07 2.62251e+07)
(2.45723e+08 3.59598e+07 -5.686e+06)
(3.46546e+08 -5.93674e+07 -2.42391e+07)
(2.99656e+08 -3.97349e+07 6.70036e+07)
(3.49887e+08 -3.44947e+08 -2.0068e+08)
(1.85751e+08 -4.25154e+08 -4.30262e+07)
(1.40425e+08 -2.11331e+08 -1.75197e+08)
(31299.3 -1.43397e+07 -2.13597e+06)
(1.89507e+07 -6.27011e+07 -3.14414e+07)
(5.0681e+07 -2.07525e+07 5.35497e+07)
(5.45992e+07 -6.07007e+07 -2.84746e+07)
(1.89837e+08 -1.93644e+07 -2.79429e+07)
(7.16364e+07 -3.87803e+07 -7.92951e+06)
(2.31297e+08 -3.28383e+08 -1.46958e+08)
(5.95038e+06 -3.86395e+08 -7.43829e+07)
(-5.6882e+07 -3.36419e+08 -1.99649e+08)
(-2.01709e+08 -6.59711e+08 -2.12026e+08)
)
;
    }
}


// ************************************************************************* //
