/*--------------------------------*- C++ -*----------------------------------*\
| =========                 |                                                 |
| \\      /  F ield         | OpenFOAM: The Open Source CFD Toolbox           |
|  \\    /   O peration     | Version:  2.4.0                                 |
|   \\  /    A nd           | Web:      www.OpenFOAM.org                      |
|    \\/     M anipulation  |                                                 |
\*---------------------------------------------------------------------------*/
FoamFile
{
    version     2.0;
    format      ascii;
    class       volSymmTensorField;
    location    "0.11";
    object      B;
}
// * * * * * * * * * * * * * * * * * * * * * * * * * * * * * * * * * * * * * //

dimensions      [0 2 -2 0 0 0 0];

internalField   nonuniform List<symmTensor> 
200
(
(1.48218e+13 -3.84126e+11 -6.50258e+12 1.54618e+13 -1.1451e+12 1.30995e+13)
(2.21642e+13 -1.28832e+11 -9.7387e+12 2.61051e+13 -2.47452e+12 2.03248e+13)
(2.07111e+13 2.1408e+11 -8.41974e+12 1.98236e+13 -9.55465e+11 1.57136e+13)
(3.18852e+13 -1.1698e+11 -1.2431e+13 3.26547e+13 -3.38588e+12 2.40105e+13)
(3.85389e+13 1.51252e+12 -1.18542e+13 3.33619e+13 -4.37614e+11 2.39925e+13)
(5.4933e+13 1.43853e+12 -1.60999e+13 4.64806e+13 -5.65102e+12 3.3539e+13)
(8.34602e+13 5.63276e+12 -1.44081e+13 6.79281e+13 -6.75763e+09 4.79208e+13)
(1.1805e+14 6.13756e+12 -2.03515e+13 8.72886e+13 -8.24259e+12 6.81134e+13)
(1.28921e+14 2.16501e+13 -1.75593e+13 9.87314e+13 8.78059e+11 5.50632e+13)
(8.84498e+14 4.05688e+13 -7.71513e+13 7.48042e+14 -1.18097e+13 7.11566e+14)
(2.00327e+13 -5.50574e+11 -1.01471e+13 2.53563e+13 -1.71322e+12 2.12772e+13)
(2.13312e+13 -9.74053e+10 -1.00348e+13 2.2362e+13 -1.569e+11 1.8891e+13)
(2.98132e+13 -1.27161e+12 -1.42456e+13 3.31093e+13 -3.03227e+12 2.6537e+13)
(4.02223e+13 1.07263e+12 -1.45202e+13 3.98915e+13 6.14008e+11 2.93334e+13)
(4.93422e+13 -2.00493e+12 -1.81674e+13 4.51506e+13 -5.44415e+12 3.49812e+13)
(7.94743e+13 3.21329e+12 -1.73762e+13 7.53141e+13 1.9009e+12 4.91884e+13)
(9.43563e+13 -2.16176e+12 -2.15385e+13 7.09041e+13 -7.27119e+12 5.46504e+13)
(1.61318e+14 4.97262e+12 -1.86354e+13 1.37852e+14 2.36407e+12 8.89e+13)
(3.07717e+14 -2.84363e+12 -3.12608e+13 2.31518e+14 -9.25287e+12 2.01818e+14)
(7.09877e+14 6.32842e+12 -1.85585e+14 7.05981e+14 -2.02311e+12 6.16042e+14)
(2.10584e+13 1.85395e+11 -1.01945e+13 2.43949e+13 8.97911e+11 2.3088e+13)
(2.6391e+13 -1.16321e+12 -1.47437e+13 3.06387e+13 -2.81241e+12 2.73642e+13)
(3.69317e+13 2.44992e+12 -1.45277e+13 3.9869e+13 1.69457e+12 3.25215e+13)
(4.39165e+13 -1.96603e+12 -1.82742e+13 4.16479e+13 -4.39822e+12 3.5893e+13)
(6.25754e+13 5.71807e+12 -1.60594e+13 6.66103e+13 3.84822e+12 4.29497e+13)
(6.12198e+13 -2.29318e+12 -1.99066e+13 4.83401e+13 -4.47543e+12 3.76011e+13)
(1.13841e+14 4.77298e+12 -2.0526e+13 1.11953e+14 5.35321e+12 6.50565e+13)
(1.21597e+14 -1.43455e+12 -2.53371e+13 8.90904e+13 -3.88184e+12 6.38103e+13)
(1.61609e+14 5.29654e+12 -3.5766e+13 1.48793e+14 6.00775e+12 6.07964e+13)
(9.24119e+14 -4.20727e+12 -1.23407e+14 7.95738e+14 -1.59822e+13 7.10055e+14)
(1.94239e+13 -4.8135e+11 -1.26611e+13 2.19901e+13 -3.19192e+12 2.21054e+13)
(3.59351e+13 2.57403e+12 -1.34549e+13 4.0771e+13 2.81663e+12 3.84834e+13)
(3.69313e+13 -1.08174e+12 -1.702e+13 3.42928e+13 -4.33895e+12 3.21318e+13)
(5.17371e+13 7.91707e+12 -1.34796e+13 5.42684e+13 4.16841e+12 4.03797e+13)
(4.93267e+13 -4.4841e+11 -1.71503e+13 3.75959e+13 -3.3319e+12 3.25364e+13)
(8.68802e+13 9.9825e+12 -1.59365e+13 8.59696e+13 4.8113e+12 5.46307e+13)
(7.77209e+13 4.33233e+12 -1.73211e+13 5.63713e+13 -6.64849e+11 4.10675e+13)
(1.24474e+14 9.9954e+12 -2.04203e+13 1.12559e+14 7.85078e+12 5.71032e+13)
(4.84924e+14 2.37545e+13 -4.34232e+13 4.15863e+14 -2.03534e+13 3.74424e+14)
(9.33786e+13 -1.08493e+12 -2.31344e+13 7.98028e+13 3.6259e+13 -1.25222e+13)
(3.20271e+12 -3.34701e+11 -1.32381e+12 7.26245e+12 9.49772e+11 5.91935e+12)
(8.35361e+12 -6.81109e+11 -1.05281e+12 1.13407e+13 5.23233e+12 1.12028e+13)
(4.17142e+12 -6.70756e+11 -1.93307e+12 7.47043e+12 2.38893e+11 5.75169e+12)
(1.54052e+13 -1.06731e+11 -3.41537e+12 1.96421e+13 5.36511e+12 1.9125e+13)
(1.11769e+13 -1.26806e+12 -3.195e+12 1.30106e+13 -8.86192e+11 1.14805e+13)
(2.37692e+13 -2.24468e+12 -6.92794e+12 2.50833e+13 3.59945e+12 2.53449e+13)
(3.94659e+13 -3.29059e+12 -8.98863e+12 3.91709e+13 -4.28975e+12 3.75213e+13)
(7.41825e+13 -4.5589e+12 -1.5561e+13 7.13376e+13 -5.25454e+11 7.06264e+13)
(1.19196e+14 -8.27116e+12 -2.69961e+13 1.06991e+14 -1.36036e+13 1.09571e+14)
(9.30653e+13 -1.01055e+13 -3.7486e+13 8.13782e+13 -9.92054e+12 8.10857e+13)
(1.62376e+13 3.56902e+11 -5.18586e+11 2.15449e+13 6.85111e+12 2.16574e+13)
(9.57999e+11 -3.0038e+11 -8.29002e+11 2.54693e+12 5.53959e+10 2.44792e+12)
(2.84843e+13 7.38637e+11 -3.4923e+12 3.66332e+13 8.61093e+12 3.79782e+13)
(4.58069e+12 -7.61901e+11 -1.94695e+12 5.4781e+12 -5.97218e+11 5.88066e+12)
(3.9644e+13 -1.67842e+12 -8.79726e+12 4.58063e+13 7.33925e+12 4.96269e+13)
(2.59351e+13 -2.07631e+12 -6.34471e+12 2.60096e+13 -2.86801e+12 2.77495e+13)
(7.33559e+13 -4.66772e+12 -1.90196e+13 8.02552e+13 2.5734e+12 8.13019e+13)
(6.95904e+13 -6.68053e+12 -1.83555e+13 6.91411e+13 -8.15325e+12 7.35876e+13)
(9.21581e+13 -1.30812e+13 -3.59529e+13 1.0318e+14 1.0228e+11 8.59347e+13)
(1.7333e+14 -2.92452e+13 -5.79312e+13 1.83968e+14 -2.09889e+13 1.95054e+14)
(-1.22063e+11 -1.34181e+11 -2.59268e+11 1.964e+11 -2.08062e+11 7.47218e+11)
(4.36981e+13 1.70546e+12 -2.56699e+12 5.67786e+13 1.18867e+13 6.04159e+13)
(2.3647e+12 -3.75021e+11 -1.40586e+12 2.29836e+12 -9.92678e+11 4.1671e+12)
(5.29061e+13 3.69329e+11 -8.7798e+12 6.4813e+13 9.83326e+12 7.14617e+13)
(1.80113e+13 -8.58698e+11 -5.03456e+12 1.74989e+13 -2.94367e+12 2.19321e+13)
(7.43985e+13 -1.03592e+12 -1.88503e+13 8.68985e+13 3.5747e+12 9.05286e+13)
(4.9011e+13 -2.23072e+11 -1.12669e+13 4.82874e+13 -5.96717e+12 5.66395e+13)
(5.63746e+13 -2.34075e+10 -2.89308e+13 7.93605e+13 4.83152e+12 4.69283e+13)
(8.7938e+13 -1.49757e+12 -3.1188e+13 1.06716e+14 -1.17023e+13 1.1143e+14)
(8.74406e+13 -4.11882e+12 -3.81764e+13 1.5509e+14 -1.97588e+12 1.22937e+14)
(5.76518e+13 2.13415e+12 4.14318e+10 7.77874e+13 1.56014e+13 8.29205e+13)
(2.63487e+12 -7.40958e+10 -1.06785e+12 1.74843e+12 -1.92786e+12 4.99985e+12)
(6.44505e+13 1.35097e+12 -8.20955e+12 8.13058e+13 1.06889e+13 9.02198e+13)
(1.82251e+13 -1.60004e+11 -4.98024e+12 1.65087e+13 -4.37128e+12 2.37148e+13)
(7.75716e+13 1.42574e+11 -1.66465e+13 8.92729e+13 2.43088e+12 9.62896e+13)
(6.98061e+13 3.38655e+12 -1.09984e+13 6.47483e+13 -7.54456e+12 7.83852e+13)
(6.31667e+13 9.99128e+12 -2.18589e+13 7.12203e+13 2.76469e+12 2.99682e+13)
(1.17819e+14 1.48187e+13 -2.78398e+13 1.14874e+14 -1.37131e+13 1.2784e+14)
(9.53547e+13 1.09313e+13 -2.81144e+13 1.18166e+14 -2.79532e+12 8.8422e+13)
(5.74619e+14 5.74774e+13 -7.57701e+13 5.87217e+14 -4.35033e+13 5.76657e+14)
(6.30411e+13 6.2649e+11 7.64304e+12 6.72477e+13 2.45362e+13 8.23742e+13)
(2.24175e+11 -6.52202e+11 4.80303e+11 4.81115e+11 8.35596e+11 1.84777e+12)
(8.47712e+13 1.56308e+12 7.39796e+12 9.80274e+13 3.10722e+13 1.19559e+14)
(5.9772e+11 -1.78608e+12 1.28254e+12 1.47523e+12 1.43479e+12 5.06804e+12)
(1.07776e+14 -1.27141e+13 1.93993e+12 1.23969e+14 3.15061e+13 1.65359e+14)
(5.72768e+12 -3.47782e+12 3.40759e+11 7.4456e+12 2.25633e+12 1.55528e+13)
(1.54272e+14 -3.08378e+13 -1.32318e+13 1.81876e+14 3.17755e+13 2.55108e+14)
(1.13484e+14 -5.61255e+12 -1.18783e+12 1.15119e+14 3.24101e+12 1.40912e+14)
(2.07625e+13 -2.27943e+13 -3.00689e+13 3.064e+13 3.59041e+13 -1.8064e+13)
(1.51095e+14 -2.12989e+13 -2.1753e+13 1.50311e+14 1.02018e+13 2.28033e+14)
(1.27785e+12 -3.95726e+11 9.48887e+11 9.30414e+10 2.41244e+11 2.03172e+12)
(1.00036e+14 4.98789e+12 1.47681e+13 1.15005e+14 3.39329e+13 1.37321e+14)
(1.54959e+12 -1.25524e+12 2.45426e+12 -1.1014e+11 1.23198e+12 5.9989e+12)
(1.0492e+14 -6.94931e+12 1.13597e+13 1.20526e+14 3.33413e+13 1.65094e+14)
(7.09523e+12 -3.12168e+12 3.0655e+12 8.45598e+12 2.91782e+12 2.03828e+13)
(1.38142e+14 -2.69348e+13 -3.61558e+12 1.73464e+14 3.56427e+13 2.53819e+14)
(1.58846e+14 -3.4279e+12 4.62454e+12 1.61789e+14 6.88292e+12 1.9953e+14)
(3.7362e+13 -4.42204e+12 -4.19067e+13 6.06292e+13 2.70899e+13 -4.578e+13)
(1.52878e+14 -1.11161e+13 -8.48773e+12 1.793e+14 2.38118e+13 2.65615e+14)
(5.50225e+12 -2.29137e+13 -9.50592e+11 3.05129e+13 7.0607e+12 2.69161e+13)
(9.73725e+13 5.90877e+12 1.93285e+13 1.17003e+14 3.37635e+13 1.3617e+14)
(4.04433e+12 -9.01255e+11 3.74579e+12 1.12405e+12 5.86028e+11 8.52074e+12)
(9.06901e+13 -2.20879e+12 1.59045e+13 1.04283e+14 2.88072e+13 1.45095e+14)
(1.11909e+13 -2.28074e+12 6.10104e+12 1.07567e+13 3.10967e+12 2.67448e+13)
(1.08422e+14 -2.19458e+13 7.14205e+12 1.40335e+14 2.65932e+13 2.1559e+14)
(2.17708e+14 -6.34932e+10 1.27195e+13 2.18792e+14 9.05675e+12 2.66002e+14)
(1.06966e+14 1.93918e+13 -6.03761e+13 1.17172e+14 -1.95321e+12 -2.47477e+13)
(1.96332e+14 1.5191e+13 3.08709e+11 2.22738e+14 3.30983e+13 3.22539e+14)
(-2.94506e+13 -2.10819e+13 2.0544e+13 1.74053e+13 6.56094e+12 -1.13954e+13)
(4.2791e+14 -6.93777e+12 -9.75123e+12 5.59635e+14 3.30343e+13 6.93917e+14)
(6.77158e+12 -2.46653e+11 4.71887e+12 4.084e+12 4.52185e+10 1.20486e+13)
(6.98491e+13 -3.04152e+12 1.69703e+13 8.37198e+13 1.96697e+13 1.13027e+14)
(1.79807e+13 -1.96645e+12 9.16639e+12 1.82121e+13 2.64422e+12 3.62379e+13)
(8.88901e+13 -1.84022e+13 1.20232e+13 1.15242e+14 1.72916e+13 1.80432e+14)
(2.92051e+14 2.28021e+12 2.05157e+13 2.86973e+14 9.19707e+12 3.43389e+14)
(2.81648e+14 3.04009e+13 -8.76126e+13 2.77541e+14 -2.73173e+13 9.65557e+13)
(2.81771e+14 3.18421e+13 -3.69428e+12 2.91381e+14 4.19872e+13 4.00521e+14)
(-4.00977e+13 -1.64253e+13 6.9225e+13 2.72946e+13 9.28602e+12 -6.0457e+13)
(4.65068e+14 1.96455e+13 -4.7836e+13 5.9409e+14 1.916e+13 7.25033e+14)
(7.69729e+13 -1.10349e+13 -4.04591e+13 1.39538e+14 -4.05749e+13 1.11784e+14)
(3.31295e+13 2.41558e+12 8.41159e+12 1.30304e+13 2.22193e+12 1.59557e+13)
(8.45334e+13 1.72083e+11 2.84736e+13 7.09176e+13 2.91432e+13 9.63037e+13)
(3.74812e+13 4.99942e+12 1.24704e+13 2.88865e+13 7.68632e+12 2.90529e+13)
(1.18292e+14 -5.89901e+12 3.44316e+13 1.17656e+14 2.76382e+13 1.51608e+14)
(6.43504e+13 5.85656e+12 2.04665e+13 7.02407e+13 1.67866e+13 7.38628e+13)
(1.54254e+14 -8.72926e+12 5.27716e+13 1.86094e+14 4.92547e+13 2.34579e+14)
(4.98959e+14 9.34654e+11 6.48568e+13 5.0929e+14 4.86937e+13 5.4929e+14)
(7.43908e+14 5.5487e+13 -1.78349e+14 8.21465e+14 -5.63486e+13 6.65872e+14)
(2.99733e+14 7.1621e+12 3.65227e+13 3.7993e+14 7.32793e+13 4.87097e+14)
(1.24329e+14 -1.60145e+14 1.73724e+14 -2.49437e+13 9.55805e+13 -6.64254e+13)
(1.05911e+14 6.59744e+12 3.23695e+13 8.17545e+13 3.04221e+13 1.08311e+14)
(5.58543e+13 8.20311e+12 1.86903e+13 4.1496e+13 9.39239e+12 4.27139e+13)
(1.27388e+14 -5.33882e+11 3.73471e+13 1.17101e+14 2.62565e+13 1.46612e+14)
(9.32306e+13 1.09062e+13 2.96923e+13 9.10268e+13 2.10497e+13 9.74553e+13)
(1.67306e+14 -1.01836e+12 6.41082e+13 1.85226e+14 4.76945e+13 2.28153e+14)
(6.29929e+14 9.64137e+12 9.04129e+13 6.28032e+14 6.04376e+13 6.76649e+14)
(1.43136e+15 7.71313e+13 -2.47344e+14 1.50407e+15 -9.53685e+13 1.32075e+15)
(2.91744e+14 3.86959e+13 4.53191e+13 4.52615e+14 6.18703e+13 5.26362e+14)
(2.85152e+14 -2.28543e+14 4.25558e+14 9.2181e+13 2.00344e+14 -2.79189e+13)
(1.34237e+15 5.29571e+13 1.24125e+14 1.56557e+15 1.45992e+14 1.57025e+15)
(6.84401e+13 9.76144e+12 2.364e+13 4.97456e+13 1.02743e+13 5.34979e+13)
(1.34825e+14 3.32227e+12 3.91361e+13 1.16245e+14 2.38641e+13 1.4182e+14)
(1.25551e+14 1.55729e+13 3.77643e+13 1.11751e+14 2.31709e+13 1.21693e+14)
(1.9374e+14 2.92287e+12 7.4548e+13 1.92387e+14 4.55966e+13 2.37235e+14)
(7.32662e+14 1.90735e+13 1.1235e+14 7.09816e+14 6.74248e+13 7.67937e+14)
(2.32837e+15 9.82521e+13 -3.22183e+14 2.40463e+15 -1.48269e+14 2.19072e+15)
(3.63737e+14 8.08911e+13 5.40505e+13 5.98933e+14 4.85482e+13 6.24244e+14)
(4.75864e+14 -2.55466e+14 6.87128e+14 1.84838e+14 2.98105e+14 -2.25504e+13)
(1.571e+15 1.31514e+14 1.7186e+14 1.84172e+15 1.60505e+14 1.80968e+15)
(-1.63938e+14 -1.62553e+14 1.90413e+14 1.42712e+13 4.14038e+13 7.90644e+13)
(1.25179e+14 4.67736e+12 3.76366e+13 1.02958e+14 1.80534e+13 1.23677e+14)
(1.48568e+14 1.63331e+13 4.28942e+13 1.22153e+14 2.14887e+13 1.36634e+14)
(2.18892e+14 4.68721e+09 8.16593e+13 1.96442e+14 3.98742e+13 2.46203e+14)
(7.61493e+14 2.21636e+13 1.28203e+14 7.18193e+14 6.6588e+13 7.85842e+14)
(3.85543e+15 1.32885e+14 -4.25069e+14 3.92095e+15 -2.03657e+14 3.68838e+15)
(5.11634e+14 1.39222e+14 5.4943e+13 8.3546e+14 2.48313e+13 8.05156e+14)
(7.04674e+14 -3.26864e+14 1.14516e+15 3.23753e+14 4.49688e+14 5.32838e+13)
(1.64241e+15 1.95858e+14 2.10034e+14 1.85413e+15 1.88512e+14 1.83784e+15)
(-2.36585e+14 -2.14042e+14 2.56872e+14 -1.13475e+13 4.7087e+13 7.96104e+13)
(3.58812e+15 -8.58883e+13 6.16135e+14 4.01823e+15 4.21938e+14 4.83906e+15)
(4.40386e+13 1.51902e+12 1.41086e+13 2.40063e+13 -1.75068e+12 2.92516e+13)
(8.91601e+13 1.97686e+13 7.30235e+12 8.13265e+13 2.2728e+13 6.42634e+13)
(7.0101e+13 6.10912e+12 1.91659e+13 5.56042e+13 5.66293e+11 5.40723e+13)
(1.61571e+14 2.74065e+13 2.2347e+13 1.57962e+14 3.0246e+13 1.26002e+14)
(1.40721e+14 2.62445e+13 2.07161e+13 1.36337e+14 3.59915e+12 1.05786e+14)
(4.38924e+14 3.83639e+13 7.86719e+13 4.25053e+14 6.91981e+13 3.7283e+14)
(1.87376e+15 1.01004e+14 -1.6597e+14 1.98632e+15 -9.2074e+13 1.82208e+15)
(5.56049e+14 2.18032e+13 7.11154e+13 5.72873e+14 1.39311e+14 6.75923e+14)
(-1.53537e+14 -1.4261e+14 4.73764e+13 -3.7708e+13 -1.52533e+14 1.62346e+14)
(5.79189e+14 6.61711e+13 4.6149e+13 8.74807e+14 1.2482e+14 9.33527e+14)
(1.17779e+14 2.28535e+13 1.10856e+13 9.43328e+13 2.70735e+13 7.82934e+13)
(9.64707e+13 9.53576e+12 2.11814e+13 6.98732e+13 -3.57361e+10 6.81785e+13)
(1.99704e+14 3.29415e+13 2.60196e+13 1.78829e+14 3.38693e+13 1.45992e+14)
(2.03475e+14 3.30704e+13 2.74655e+13 1.79708e+14 4.63553e+12 1.46576e+14)
(5.09313e+14 5.03337e+13 9.16852e+13 4.72031e+14 7.59318e+13 4.11243e+14)
(2.07186e+15 1.36082e+14 -2.00517e+14 2.18242e+15 -1.10175e+14 1.97813e+15)
(6.0275e+14 3.99304e+13 9.03701e+13 5.84691e+14 1.5439e+14 6.88121e+14)
(-1.35749e+14 -1.42277e+14 -5.62367e+13 -2.18374e+13 -2.1338e+14 3.3775e+14)
(6.43359e+14 7.97086e+13 5.05227e+13 9.88569e+14 1.16213e+14 1.06153e+15)
(9.83875e+14 -4.54995e+13 1.58145e+14 8.92194e+14 8.30243e+13 9.47679e+14)
(1.2809e+14 1.3213e+13 2.28844e+13 8.67657e+13 -1.67892e+12 8.44553e+13)
(2.36934e+14 3.78247e+13 2.89846e+13 1.93484e+14 3.65534e+13 1.61597e+14)
(2.79118e+14 3.95425e+13 3.58568e+13 2.26915e+14 5.1113e+12 1.93854e+14)
(5.81668e+14 6.18215e+13 1.01947e+14 5.12155e+14 7.95599e+13 4.4703e+14)
(2.18218e+15 1.74033e+14 -2.30182e+14 2.2737e+15 -1.24366e+14 2.03622e+15)
(6.68182e+14 5.906e+13 1.12025e+14 5.98906e+14 1.67511e+14 7.0713e+14)
(-3.70008e+13 -1.32857e+14 -1.78569e+14 5.09481e+13 -2.87488e+14 5.80885e+14)
(6.99181e+14 1.05817e+14 5.06049e+13 1.09513e+15 9.89452e+13 1.18827e+15)
(1.34026e+15 -5.87661e+13 2.51903e+14 1.18839e+15 1.28376e+14 1.29436e+15)
(3.38597e+15 2.40707e+14 6.28578e+14 3.52629e+15 3.04862e+14 3.27898e+15)
(2.64274e+14 3.82325e+13 2.994e+13 1.97185e+14 3.61227e+13 1.69607e+14)
(3.55096e+14 4.08747e+13 4.4448e+13 2.68278e+14 4.12307e+12 2.40938e+14)
(6.50709e+14 6.79417e+13 1.07963e+14 5.41446e+14 7.82621e+13 4.78843e+14)
(2.13425e+15 2.04037e+14 -2.45165e+14 2.17866e+15 -1.31341e+14 1.92491e+15)
(7.38926e+14 7.15586e+13 1.38571e+14 5.99871e+14 1.76275e+14 7.16592e+14)
(2.44244e+14 -1.17563e+14 -3.32744e+14 2.50687e+14 -3.44458e+14 1.01704e+15)
(7.63957e+14 1.31927e+14 4.72464e+13 1.18957e+15 7.17147e+13 1.32338e+15)
(1.65862e+15 -7.81565e+13 4.16936e+14 1.38882e+15 2.07819e+14 1.61589e+15)
(3.68876e+15 2.69352e+14 6.95965e+14 3.67406e+15 2.93308e+14 3.51289e+15)
(7.81939e+14 1.62973e+14 -4.0726e+14 4.32374e+14 -7.58866e+13 1.40443e+13)
)
;

boundaryField
{
    inlet
    {
        type            calculated;
        value           nonuniform 0();
    }
    outlet
    {
        type            calculated;
        value           nonuniform 0();
    }
    bottom
    {
        type            calculated;
        value           nonuniform List<symmTensor> 
40
(
(11220.8 -11430.5 -383254 30262.8 -77141.1 -28014.6)
(-44961.2 -12424.7 -367859 75175.7 -136008 -39502.7)
(-25126.2 4039.44 -445038 47569.6 26274.7 -25254.2)
(-59343.8 -10310.1 -416355 -4378.13 -102208 66004.7)
(-7587.41 -2917.54 -351367 81659.8 -156792 -94281.5)
(18712.6 -2156 -423155 41529.6 -13807.3 -53920.2)
(-45603.8 -22973.4 -424025 38289 -124878 -12389.8)
(-13416.4 47810.2 -489391 76405.7 42390.7 -158417)
(53361.4 5297.84 -392697 31399.1 -59959.1 -72089.3)
(-1974.29 -24783.2 -388412 62265.5 -148731 -79083.8)
(33967.7 43188.1 -481881 85748.9 24810.3 -185222)
(19431.3 -22144.2 -484751 -34581.1 -65802.1 11759.7)
(54252 -2332.63 -338377 69595.3 -157867 -133764)
(87450.5 18685.7 -439948 81687.5 -7319.53 -183156)
(43349.3 -38301.4 -457617 -847.984 -92437.2 -69685)
(85329.7 132711 -434790 127762 20448.5 -461939)
(141453 29162.7 -376138 41636 -43694.7 -167066)
(99315.1 -36180.4 -383377 23674.2 -146572 -157562)
(115776 86980.2 -433125 177153 26504.5 -482244)
(155942 -9126.46 -431604 -82814 86678.5 63657.1)
(174690 24753.8 -293099 29243.5 -152615 -216617)
(209780 47428.7 -386061 148374 7834.55 -436445)
(185934 -41296.8 -391159 -46012 20124.8 -72822.8)
(196836 151463 -361272 183019 -25506.6 -765919)
(299096 88606.2 -289910 54767.8 2140.05 -369867)
(317284 -34077.5 -287723 -52413 -81847.2 -256503)
(253080 61591.8 -350313 228710 -1122.1 -794023)
(311810 75463.5 -295022 -60071.2 257396 55688.1)
(399226 90898.6 -178890 -56362.1 -93312.1 -356853)
(439111 61051.4 -199924 151008 16881.2 -778379)
(398708 -19722 -254478 -48189.6 129505 -159454)
(319390 119455 -228970 176991 -33760.3 -1.036e+06)
(390306 257318 -95604.8 31493.5 92095.3 -754485)
(759352 -33473.2 -105566 -137609 39902.7 -385858)
(338155 49736.1 -220413 217813 -25276.5 -1.15954e+06)
(812354 291114 -380785 -33991 84439.7 -108729)
(1.14522e+06 402591 -480189 -208923 122295 -635118)
(75902.4 55825.1 -1.2453e+06 41529.8 -5195.35 -1.35103e+06)
(1.01582e+06 -33532.6 -695072 -7389.98 164931 -544317)
(184519 -10961.5 179360 47357.2 252904 -2.01954e+06)
)
;
    }
    top
    {
        type            symmetryPlane;
    }
    side1
    {
        type            symmetryPlane;
    }
    side2
    {
        type            symmetryPlane;
    }
    procBoundary18to10
    {
        type            processor;
        value           nonuniform List<symmTensor> 
50
(
(-9.54015e+11 1.81356e+11 -7.82541e+12 3.05909e+12 -2.99061e+12 -1.28866e+12)
(7.35523e+11 5.96095e+10 -5.803e+12 9.19924e+11 -1.56243e+12 -1.71419e+12)
(6.84488e+11 5.78932e+11 -9.08999e+12 3.56384e+12 -3.25237e+12 -2.99012e+12)
(2.26531e+12 1.02073e+12 -6.76557e+12 1.00334e+12 -1.30238e+12 -3.12056e+12)
(3.55158e+12 2.10753e+12 -1.10662e+13 3.62344e+12 -3.84365e+12 -5.74654e+12)
(6.29215e+12 3.88053e+12 -9.02878e+12 1.1696e+12 -7.92224e+11 -6.67491e+12)
(1.00597e+13 6.54334e+12 -1.3678e+13 2.73208e+12 -4.83083e+12 -1.12385e+13)
(1.65625e+13 1.15292e+13 -1.12026e+13 1.20659e+12 -2.24145e+11 -1.54012e+13)
(2.24473e+13 1.63902e+13 -1.73991e+13 6.27676e+11 -6.26733e+12 -2.17636e+13)
(1.5244e+13 3.02669e+13 -2.13705e+13 5.434e+12 8.35841e+11 -3.73549e+13)
(-8.11069e+11 -2.47825e+11 -1.31195e+11 2.29638e+11 2.77048e+12 -4.28133e+11)
(-1.25982e+12 -4.79122e+11 -1.57065e+12 1.77456e+12 5.53945e+11 1.25902e+11)
(-9.1687e+11 -6.80844e+11 -9.39154e+11 3.92599e+11 4.39351e+12 -3.27861e+11)
(-1.17922e+12 -7.79376e+11 -2.19569e+12 1.92745e+12 -3.93567e+10 -6.65931e+11)
(-1.24489e+12 -4.57332e+11 -2.86723e+12 1.81777e+12 3.93377e+12 -8.64407e+11)
(-4.47223e+11 -9.08917e+11 -3.53773e+12 1.46565e+12 -1.2818e+12 -1.31834e+12)
(-8.18491e+10 -1.44849e+12 -5.88132e+12 1.42916e+12 1.87475e+12 -1.43081e+12)
(1.26603e+12 -1.10591e+12 -8.5074e+12 4.54989e+11 -4.59299e+12 -2.61829e+12)
(3.4432e+12 -7.40684e+11 -1.23051e+13 -1.09346e+11 -2.44369e+12 -3.50786e+12)
(1.14996e+13 6.35367e+11 -2.59751e+13 -5.16576e+12 -1.70913e+13 -6.35683e+12)
(-4.20401e+12 -5.76002e+11 -1.28598e+12 3.8414e+12 2.2326e+12 2.20252e+12)
(-6.73779e+12 -1.706e+12 3.27169e+12 -2.0154e+12 1.94553e+13 1.01227e+13)
(-1.6812e+12 -1.10669e+12 1.72148e+11 5.5369e+11 1.20023e+12 4.85008e+11)
(-1.17279e+13 -3.67775e+12 7.99655e+11 1.61508e+12 2.45688e+13 1.75134e+13)
(-2.49777e+12 -1.91974e+12 1.47816e+11 -4.69081e+11 1.19438e+12 8.03673e+11)
(-1.59436e+13 -1.38038e+13 -2.63295e+12 -2.06897e+12 2.38062e+13 3.01902e+13)
(-3.05257e+12 -2.56464e+12 -7.41065e+11 -1.51391e+12 7.84345e+11 1.99274e+12)
(-2.52523e+13 -2.65408e+13 -1.65949e+13 -1.02224e+13 2.17889e+13 4.77381e+13)
(-3.82883e+12 -3.83689e+12 -3.72139e+12 -3.61527e+12 3.59503e+11 9.30687e+12)
(-1.28861e+13 -2.5406e+13 -2.90694e+13 -1.02654e+13 2.71958e+13 -1.54934e+12)
(-1.03222e+13 2.70789e+12 3.58426e+13 -1.3672e+12 3.81621e+13 3.02745e+12)
(7.08565e+12 1.98941e+11 7.82989e+12 -6.25347e+12 4.74456e+12 -3.60174e+12)
(-3.85646e+12 -4.2762e+12 2.09908e+13 -6.72757e+12 2.87005e+13 1.42691e+13)
(1.78992e+11 1.5785e+12 7.72126e+12 -1.69974e+12 5.84398e+12 -2.39046e+12)
(-1.75465e+13 -1.16253e+13 3.12338e+13 -9.93011e+12 3.14905e+13 2.97218e+13)
(-6.69678e+12 1.19611e+12 1.08849e+13 6.53573e+11 1.06178e+13 2.50242e+12)
(-4.22178e+13 -1.56053e+13 3.81057e+13 -7.90433e+12 5.22799e+13 4.67873e+13)
(-1.24285e+13 -2.14434e+12 3.46841e+13 -3.47299e+12 3.49523e+13 2.8629e+13)
(-1.69342e+13 2.99773e+13 -9.65804e+13 4.62103e+13 -1.78026e+13 -7.67969e+13)
(-1.11837e+13 -2.9121e+12 2.77581e+13 -3.2972e+12 5.9452e+13 1.03585e+14)
(1.42168e+13 1.18293e+13 5.11816e+12 4.35102e+12 2.11421e+13 -3.06476e+12)
(4.81892e+12 -1.3365e+12 1.76248e+13 -6.9819e+12 -3.93444e+11 -4.29566e+12)
(5.6683e+12 1.7355e+13 3.1607e+12 8.94218e+12 1.84076e+13 -8.1419e+12)
(4.92388e+12 3.95456e+12 2.00606e+13 -2.32937e+12 1.10564e+12 -3.65661e+12)
(4.36611e+12 2.23753e+13 1.87622e+13 1.28351e+13 2.67894e+13 -1.71739e+13)
(4.03027e+12 2.03951e+13 1.52853e+13 1.25429e+13 2.42948e+12 -1.40246e+13)
(1.11452e+13 2.78184e+13 6.535e+13 1.47346e+13 6.09169e+13 -2.76653e+13)
(-3.17158e+13 7.02576e+13 -1.31171e+14 7.4191e+13 -7.44937e+13 -4.88557e+13)
(-3.91664e+13 5.6632e+12 5.00825e+13 2.77559e+12 1.19199e+14 1.13591e+14)
(-1.7595e+14 -1.42612e+14 1.07121e+14 -5.84761e+13 -1.03e+14 -1.99499e+13)
)
;
    }
    procBoundary18to17
    {
        type            processor;
        value           nonuniform List<symmTensor> 
20
(
(-1.74693e+12 2.32207e+11 -7.6555e+12 3.33512e+12 -2.13803e+12 -8.1718e+11)
(-4.85446e+11 -4.57903e+11 -6.72853e+12 1.06906e+12 -4.61953e+11 -4.63743e+11)
(-3.21041e+12 -7.10693e+11 -9.55129e+12 2.32301e+12 -1.25729e+12 6.33969e+11)
(-2.47528e+12 5.24127e+11 -9.50467e+12 2.23677e+12 2.02703e+12 3.44135e+12)
(-9.38889e+11 -3.85117e+11 -2.09562e+11 6.95022e+11 2.60641e+12 -1.10789e+11)
(-2.41846e+12 -1.8571e+11 -6.93938e+11 1.06139e+12 6.82765e+11 5.07799e+11)
(-4.37371e+12 2.04328e+12 9.78679e+11 5.0755e+12 9.20889e+12 5.78047e+12)
(-7.73875e+11 -6.90638e+10 -1.29752e+11 -1.15799e+12 -7.47199e+11 1.96722e+11)
(-2.76338e+12 -4.73132e+11 6.70172e+11 7.86493e+11 1.45097e+12 2.30882e+12)
(-7.46931e+12 6.49591e+12 1.0913e+13 1.46617e+12 2.82153e+13 1.50436e+13)
(-3.34287e+11 -2.36525e+10 1.61424e+12 -3.19045e+12 -1.99622e+11 3.03544e+11)
(-1.09135e+13 7.52929e+12 1.81817e+13 6.25808e+12 2.90401e+13 2.2201e+13)
(-3.213e+12 8.59592e+12 3.6348e+13 -7.77994e+12 4.04229e+13 7.19401e+12)
(1.42351e+13 4.36274e+12 9.00124e+12 -8.89428e+12 8.66277e+11 -5.14758e+12)
(1.41352e+13 1.05533e+13 3.27836e+13 -1.49654e+13 2.7652e+13 7.55225e+12)
(1.10979e+13 8.06364e+12 2.48763e+13 -9.57183e+12 9.49751e+12 -3.41501e+12)
(2.28054e+13 1.37205e+13 8.46355e+12 -1.83907e+12 2.38522e+13 -1.04565e+13)
(1.64375e+13 4.47001e+12 1.29732e+13 -1.31738e+13 -2.83162e+12 -6.42103e+12)
(3.3566e+13 2.49578e+13 1.40059e+13 -7.32023e+12 2.97688e+13 -2.1674e+13)
(3.81609e+13 1.549e+13 2.34447e+13 -1.77735e+13 -4.88274e+12 -2.12624e+13)
)
;
    }
    procBoundary18to19
    {
        type            processor;
        value           nonuniform List<symmTensor> 
20
(
(5.46978e+13 9.25535e+12 -6.64215e+14 -1.62957e+13 -7.64593e+13 -1.40017e+14)
(7.60408e+14 1.70248e+14 -7.65746e+14 -8.00595e+13 -3.23792e+13 -2.94189e+14)
(-6.52024e+13 1.75014e+14 5.53534e+14 2.68589e+13 1.20557e+14 -2.10169e+14)
(8.68443e+14 2.01513e+14 -9.01084e+14 -1.2625e+14 -4.89413e+14 -2.18127e+14)
(-3.82367e+13 -2.13342e+13 -9.58298e+13 -3.70013e+13 -5.26957e+13 3.04827e+13)
(-2.14033e+14 -6.51008e+13 -1.36808e+14 9.45763e+12 -1.52485e+13 9.00932e+13)
(-1.65434e+13 7.94287e+12 -8.69864e+13 4.21576e+13 -2.60049e+13 5.62958e+13)
(-6.33141e+13 2.39928e+13 -5.37797e+13 2.86375e+13 1.97217e+13 -4.69791e+13)
(-1.50984e+13 -2.40219e+13 -1.60897e+13 -7.7104e+12 6.79781e+12 9.36235e+11)
(-1.06351e+14 -5.41383e+13 -1.59293e+13 1.01363e+13 4.58515e+13 1.54236e+14)
(-9.00886e+13 -2.29954e+13 -1.63657e+13 1.84329e+13 -2.81269e+13 -1.76808e+11)
(-2.19862e+14 3.17248e+13 -3.16353e+13 7.16188e+13 -6.91857e+13 5.01299e+14)
(-4.43824e+13 -8.18102e+12 5.2748e+13 7.96032e+13 1.36194e+14 1.67292e+14)
(-2.00254e+14 -1.34424e+14 1.28104e+14 -8.43156e+13 6.38428e+13 -2.67032e+12)
(-4.11813e+14 -1.08615e+14 6.5584e+14 1.51605e+14 4.8157e+14 8.03025e+14)
(-7.46279e+13 -3.36503e+13 5.67418e+12 3.23955e+12 -3.65017e+13 -5.95585e+13)
(9.90108e+12 -3.24005e+13 9.57622e+13 -4.01311e+13 5.05026e+13 -4.23123e+12)
(-2.02058e+12 2.13037e+14 5.5487e+14 2.15114e+14 3.14174e+14 -2.49325e+13)
(2.30283e+14 9.64814e+13 -3.8735e+14 -1.65413e+13 -5.53361e+13 -4.28595e+14)
(3.514e+14 5.66978e+14 1.07939e+15 1.83341e+14 4.45923e+14 7.06981e+13)
)
;
    }
    procBoundary18to26
    {
        type            processor;
        value           nonuniform List<symmTensor> 
50
(
(-1.91122e+12 2.0517e+12 -1.29336e+13 3.26585e+12 3.50177e+12 5.44502e+12)
(4.94878e+11 -3.71385e+11 -1.4149e+13 -3.20069e+12 -4.84664e+12 -2.85118e+12)
(3.27839e+12 6.81232e+12 -1.26935e+13 5.02177e+12 4.66874e+12 -1.39032e+12)
(6.79536e+12 -7.11594e+11 -1.48202e+13 -5.34714e+12 -3.66638e+12 -7.26106e+12)
(1.23194e+13 1.17797e+13 -1.23188e+13 5.32609e+12 3.39933e+12 -1.29992e+13)
(1.85346e+13 5.0244e+12 -1.29511e+13 -8.17732e+12 -7.6603e+11 -1.49496e+13)
(1.95613e+13 1.05846e+13 -1.31563e+13 2.01548e+12 5.63727e+12 -2.92402e+13)
(7.91233e+13 2.74966e+13 -5.727e+13 -1.42513e+13 -1.81876e+13 -3.42078e+13)
(-2.04672e+12 -7.06539e+12 1.87952e+13 -1.60493e+12 4.66702e+13 -5.25829e+13)
(1.71831e+15 2.53197e+14 -2.16045e+15 -5.62914e+14 -1.43932e+15 -3.70533e+14)
(-1.82839e+12 -1.11514e+11 -8.02206e+11 -2.54175e+12 -2.7083e+12 1.11372e+12)
(-9.9419e+12 6.30067e+11 -6.85804e+12 8.69179e+12 9.85623e+12 1.9195e+13)
(-2.7068e+12 -3.29055e+10 -4.52429e+12 -4.39347e+12 -5.33948e+12 4.02892e+12)
(-6.89236e+12 -1.51121e+11 -1.58232e+13 4.64567e+12 1.53132e+12 1.46571e+13)
(3.95018e+12 4.20591e+12 -1.06132e+13 -5.75263e+12 -8.10572e+12 1.18144e+13)
(1.46309e+13 1.21739e+13 -2.10013e+13 9.02988e+12 1.56231e+12 -4.1874e+13)
(2.10912e+13 2.06876e+13 -2.91524e+13 -1.11099e+13 -1.44859e+13 1.66177e+13)
(6.49919e+12 1.28313e+13 -3.04611e+13 4.17711e+12 -3.55981e+12 -2.17905e+13)
(1.0201e+14 8.29492e+13 -1.2278e+14 -6.84927e+12 -5.92792e+13 2.41275e+13)
(-2.10584e+13 1.12467e+12 4.14449e+12 2.74758e+12 4.52397e+13 -5.67888e+13)
(-1.18727e+13 -1.91239e+12 1.18857e+13 -2.64634e+12 9.78266e+12 1.65759e+13)
(-9.51207e+12 -2.47952e+12 1.19469e+13 -7.18261e+12 1.67193e+12 1.23667e+13)
(-3.73842e+13 -1.71875e+13 1.3839e+13 -1.21796e+13 6.90036e+12 3.73832e+13)
(-4.24745e+11 2.48588e+12 2.49307e+13 -8.14055e+12 5.70084e+12 5.3144e+13)
(3.27504e+13 3.38614e+13 -1.15652e+14 1.44682e+13 -2.76471e+13 -1.94457e+14)
(1.42095e+13 3.69719e+13 -8.86517e+12 7.90587e+12 4.64637e+13 1.14657e+14)
(-5.26117e+13 -4.70267e+11 1.49797e+14 -4.0864e+12 4.22068e+13 -1.48957e+14)
(-6.44163e+13 4.51556e+13 -8.21288e+13 3.12839e+13 1.8813e+13 1.67587e+14)
(-4.89817e+13 -9.48398e+12 -4.8216e+13 2.65112e+12 -3.12271e+13 -2.22428e+13)
(-1.48028e+14 6.37411e+13 -2.11426e+14 -1.67666e+13 -1.70363e+14 5.28053e+14)
(1.77808e+13 1.10677e+13 4.21108e+13 -1.45076e+13 1.51021e+13 1.97309e+12)
(-3.10354e+12 -1.23805e+13 7.94538e+13 -3.52976e+13 2.71205e+13 1.56654e+13)
(2.68937e+13 1.68107e+13 1.29949e+14 -3.02894e+13 5.03879e+13 4.07878e+13)
(6.41241e+13 1.54662e+14 -5.02719e+14 6.47278e+13 -2.0951e+14 -1.42156e+14)
(-1.68612e+14 2.06918e+14 5.22736e+13 1.90945e+14 3.63936e+12 1.4136e+14)
(-1.26864e+14 -4.14441e+14 1.66254e+15 -5.78238e+14 6.94321e+14 -7.26124e+14)
(1.58585e+14 2.23495e+14 2.56454e+14 1.93777e+14 2.22326e+14 2.35272e+14)
(-4.14824e+14 -2.23067e+14 3.51005e+14 -1.80947e+14 9.18031e+13 -4.91278e+13)
(-3.1457e+14 -1.19148e+13 6.01103e+14 -4.08638e+13 3.80646e+14 8.89113e+14)
(-1.24502e+14 -3.13389e+13 3.54621e+11 2.84924e+12 -4.90075e+13 -5.66341e+13)
(8.35925e+13 3.0534e+13 5.0247e+13 -3.31849e+13 4.39857e+11 -4.68403e+13)
(1.11382e+14 6.18486e+13 1.06568e+14 -3.39637e+13 6.90956e+13 -8.53567e+13)
(9.48096e+13 2.01499e+14 -2.30894e+14 7.95891e+13 -1.26452e+14 -1.6447e+14)
(1.17551e+14 6.48463e+13 1.60233e+14 -8.69843e+13 1.66962e+14 3.0222e+13)
(-2.57301e+14 -1.17667e+14 -4.39373e+14 -4.21557e+14 -3.24142e+14 5.45371e+14)
(-3.09484e+14 1.49276e+14 4.73e+13 1.03668e+14 3.48033e+13 2.70458e+14)
(1.10625e+14 -8.80007e+13 5.90408e+14 -3.18589e+14 3.14391e+14 8.39299e+13)
(2.39321e+14 2.74768e+14 7.25186e+14 1.99644e+13 2.75416e+14 -7.7273e+12)
(4.06255e+14 2.26377e+14 -3.87608e+14 -1.47528e+14 -1.01988e+14 -4.96171e+14)
(5.78073e+14 6.59304e+14 1.17117e+15 -6.69623e+13 3.93849e+14 1.20962e+14)
)
;
    }
}


// ************************************************************************* //
