/*--------------------------------*- C++ -*----------------------------------*\
| =========                 |                                                 |
| \\      /  F ield         | OpenFOAM: The Open Source CFD Toolbox           |
|  \\    /   O peration     | Version:  2.4.0                                 |
|   \\  /    A nd           | Web:      www.OpenFOAM.org                      |
|    \\/     M anipulation  |                                                 |
\*---------------------------------------------------------------------------*/
FoamFile
{
    version     2.0;
    format      ascii;
    class       volVectorField;
    location    "0.16";
    object      A_Source;
}
// * * * * * * * * * * * * * * * * * * * * * * * * * * * * * * * * * * * * * //

dimensions      [1 -2 -2 0 0 0 0];

internalField   nonuniform List<vector> 
200
(
(-1.35156e-27 -1.58561e-28 -6.56608e-28)
(-8.95049e-30 -1.04962e-30 -4.34828e-30)
(-6.15362e-32 -7.21348e-33 -2.98952e-32)
(-4.2429e-34 -4.97192e-35 -2.06126e-34)
(-2.88492e-36 -3.37956e-37 -1.40154e-36)
(-1.92252e-38 -2.25152e-39 -9.33987e-39)
(-1.25439e-40 -1.46866e-41 -6.09398e-41)
(-8.02247e-43 -9.39045e-44 -3.89743e-43)
(-5.03872e-45 -5.8964e-46 -2.44788e-45)
(-3.11404e-47 -3.64315e-48 -1.51284e-47)
(-6.69701e-30 -7.8618e-31 -3.2535e-30)
(-4.16249e-32 -4.88531e-33 -2.0222e-32)
(-2.64587e-34 -3.1044e-35 -1.2854e-34)
(-1.71451e-36 -2.01095e-37 -8.32932e-37)
(-1.12333e-38 -1.3171e-39 -5.45728e-39)
(-7.37779e-41 -8.6476e-42 -3.58423e-41)
(-4.82466e-43 -5.6533e-44 -2.34389e-43)
(-3.12764e-45 -3.66374e-46 -1.51945e-45)
(-2.00502e-47 -2.34805e-48 -9.74068e-48)
(-1.26972e-49 -1.48655e-50 -6.16846e-50)
(-2.76461e-32 -3.24678e-33 -1.34309e-32)
(-1.76907e-34 -2.0773e-35 -8.59441e-35)
(-1.12563e-36 -1.32149e-37 -5.46845e-37)
(-7.17313e-39 -8.41931e-40 -3.48481e-39)
(-4.59229e-41 -5.38863e-42 -2.231e-41)
(-2.95319e-43 -3.46427e-44 -1.4347e-43)
(-1.90356e-45 -2.2323e-46 -9.24776e-46)
(-1.22625e-47 -1.43759e-48 -5.95731e-48)
(-7.87209e-50 -9.22606e-51 -3.82437e-50)
(-5.02416e-52 -5.88661e-53 -2.44081e-52)
(-1.00122e-34 -1.17621e-35 -4.86405e-35)
(-6.69834e-37 -7.86817e-38 -3.25415e-37)
(-4.39727e-39 -5.16451e-40 -2.13626e-39)
(-2.8518e-41 -3.34884e-42 -1.38545e-41)
(-1.83685e-43 -2.15657e-44 -8.92369e-44)
(-1.17922e-45 -1.38416e-46 -5.72882e-46)
(-7.55958e-48 -8.87116e-49 -3.67255e-48)
(-4.84162e-50 -5.68011e-51 -2.35213e-50)
(-3.09636e-52 -3.63159e-53 -1.50425e-52)
(-1.97515e-54 -2.31592e-55 -9.59555e-55)
(-1.85058e-29 -2.17059e-30 -8.9904e-30)
(-1.262e-31 -1.47963e-32 -6.13099e-32)
(-8.93259e-34 -1.04688e-34 -4.33958e-34)
(-6.33614e-36 -7.42315e-37 -3.07819e-36)
(-4.42821e-38 -5.18627e-39 -2.15129e-38)
(-3.03051e-40 -3.5483e-41 -1.47226e-40)
(-2.02895e-42 -2.37499e-43 -9.85694e-43)
(-1.33052e-44 -1.55704e-45 -6.46385e-45)
(-8.56265e-47 -1.00178e-47 -4.15986e-47)
(-5.41891e-49 -6.33817e-50 -2.63258e-49)
(-9.46635e-32 -1.11108e-32 -4.59889e-32)
(-6.04765e-34 -7.09652e-35 -2.93804e-34)
(-3.94976e-36 -4.63337e-37 -1.91885e-36)
(-2.62869e-38 -3.08261e-39 -1.27706e-38)
(-1.76808e-40 -2.07266e-41 -8.58956e-41)
(-1.19144e-42 -1.39622e-43 -5.78819e-43)
(-7.98915e-45 -9.35935e-46 -3.88124e-45)
(-5.3072e-47 -6.21561e-48 -2.57832e-47)
(-3.48431e-49 -4.07957e-50 -1.69273e-49)
(-2.25837e-51 -2.64349e-52 -1.09715e-51)
(-4.02412e-34 -4.72517e-35 -1.95497e-34)
(-2.64492e-36 -3.10523e-37 -1.28494e-36)
(-1.7275e-38 -2.02776e-39 -8.39245e-39)
(-1.12943e-40 -1.32542e-41 -5.48691e-41)
(-7.41469e-43 -8.69895e-44 -3.60216e-43)
(-4.88725e-45 -5.73202e-46 -2.37429e-45)
(-3.2273e-47 -3.78397e-48 -1.56787e-47)
(-2.12882e-49 -2.49525e-50 -1.03421e-49)
(-1.39866e-51 -1.63892e-52 -6.79491e-52)
(-9.13124e-54 -1.06967e-54 -4.43609e-54)
(-1.49853e-36 -1.76018e-37 -7.28006e-37)
(-1.02916e-38 -1.20871e-39 -4.9998e-39)
(-6.93074e-41 -8.13878e-42 -3.36705e-41)
(-4.6082e-43 -5.41053e-44 -2.23873e-43)
(-3.04133e-45 -3.57015e-46 -1.47752e-45)
(-1.9996e-47 -2.34675e-48 -9.71435e-48)
(-1.3122e-49 -1.53962e-50 -6.37485e-50)
(-8.59903e-52 -1.00866e-52 -4.17753e-52)
(-5.62434e-54 -6.59547e-55 -2.73239e-54)
(-3.66766e-56 -4.29972e-57 -1.7818e-56)
(-1.31102e-31 -1.5374e-32 -6.36913e-32)
(-9.19998e-34 -1.07841e-34 -4.46948e-34)
(-6.69937e-36 -7.84973e-37 -3.25465e-36)
(-4.88555e-38 -5.72239e-39 -2.37347e-38)
(-3.50738e-40 -4.10687e-41 -1.70394e-40)
(-2.46363e-42 -2.8839e-43 -1.19687e-42)
(-1.69161e-44 -1.97965e-45 -8.21809e-45)
(-1.13686e-46 -1.3301e-47 -5.52305e-47)
(-7.49327e-49 -8.76468e-50 -3.64034e-49)
(-4.85388e-51 -5.67597e-52 -2.35808e-51)
(-6.91763e-34 -8.1178e-35 -3.36068e-34)
(-4.53958e-36 -5.32591e-37 -2.20539e-36)
(-3.0444e-38 -3.57064e-39 -1.47901e-38)
(-2.07978e-40 -2.43843e-41 -1.01039e-40)
(-1.43526e-42 -1.68218e-43 -6.97271e-43)
(-9.91808e-45 -1.16204e-45 -4.81834e-45)
(-6.81599e-47 -7.98334e-48 -3.31131e-47)
(-4.63778e-49 -5.43047e-50 -2.2531e-49)
(-3.11689e-51 -3.64861e-52 -1.51423e-51)
(-2.06688e-53 -2.41883e-54 -1.00412e-53)
(-3.02602e-36 -3.55259e-37 -1.47009e-36)
(-2.04166e-38 -2.39659e-39 -9.9187e-39)
(-1.36806e-40 -1.60557e-41 -6.64621e-41)
(-9.17141e-43 -1.07611e-43 -4.4556e-43)
(-6.17115e-45 -7.23877e-46 -2.99803e-45)
(-4.16714e-47 -4.88658e-48 -2.02446e-47)
(-2.81785e-49 -3.3033e-50 -1.36895e-49)
(-1.90246e-51 -2.22952e-52 -9.24243e-52)
(-1.27874e-53 -1.49811e-54 -6.21228e-54)
(-8.53642e-56 -9.998e-57 -4.14711e-56)
(-1.15795e-38 -1.35992e-39 -5.62547e-39)
(-8.15904e-41 -9.58102e-42 -3.96378e-41)
(-5.63363e-43 -6.61457e-44 -2.7369e-43)
(-3.83832e-45 -4.50592e-46 -1.86471e-45)
(-2.59447e-47 -3.04511e-48 -1.26043e-47)
(-1.7462e-49 -2.04904e-50 -8.48329e-50)
(-1.17253e-51 -1.37552e-52 -5.6963e-52)
(-7.8588e-54 -9.21683e-55 -3.81792e-54)
(-5.25507e-56 -6.16141e-57 -2.55299e-56)
(-3.50196e-58 -4.10476e-59 -1.7013e-58)
(-6.38044e-34 -7.48061e-35 -3.09971e-34)
(-4.60377e-36 -5.39532e-37 -2.23658e-36)
(-3.44638e-38 -4.03726e-39 -1.6743e-38)
(-2.58204e-40 -3.02363e-41 -1.25439e-40)
(-1.90286e-42 -2.22759e-43 -9.24437e-43)
(-1.37098e-44 -1.60448e-45 -6.66039e-45)
(-9.64857e-47 -1.12889e-47 -4.68741e-47)
(-6.6418e-49 -7.76894e-50 -3.22668e-49)
(-4.48119e-51 -5.2403e-52 -2.17702e-51)
(-2.96966e-53 -3.4718e-54 -1.4427e-53)
(-3.4697e-36 -4.07092e-37 -1.68563e-36)
(-2.33724e-38 -2.74157e-39 -1.13546e-38)
(-1.60842e-40 -1.88608e-41 -7.81391e-41)
(-1.12714e-42 -1.32126e-43 -5.47581e-43)
(-7.97584e-45 -9.34609e-46 -3.87478e-45)
(-5.64859e-47 -6.61675e-48 -2.74416e-47)
(-3.97622e-49 -4.65624e-50 -1.9317e-49)
(-2.76971e-51 -3.24243e-52 -1.34556e-51)
(-1.90452e-53 -2.22895e-54 -9.25243e-54)
(-1.29147e-55 -1.51106e-56 -6.27415e-56)
(-1.56063e-38 -1.83189e-39 -7.58176e-39)
(-1.08018e-40 -1.26775e-41 -5.24768e-41)
(-7.42091e-43 -8.70781e-44 -3.60518e-43)
(-5.09827e-45 -5.98094e-46 -2.47681e-45)
(-3.51397e-47 -4.12118e-48 -1.70714e-47)
(-2.42959e-49 -2.84854e-50 -1.18033e-49)
(-1.68146e-51 -1.97078e-52 -8.16876e-52)
(-1.16135e-53 -1.36075e-54 -5.64203e-54)
(-7.98198e-56 -9.34959e-57 -3.87776e-56)
(-5.44608e-58 -6.37733e-59 -2.64578e-58)
(-6.13244e-41 -7.20094e-42 -2.97923e-41)
(-4.43043e-43 -5.20177e-44 -2.15236e-43)
(-3.13465e-45 -3.6799e-46 -1.52286e-45)
(-2.18725e-47 -2.56727e-48 -1.0626e-47)
(-1.51336e-49 -1.77595e-50 -7.35214e-50)
(-1.04215e-51 -1.2227e-52 -5.06293e-52)
(-7.15677e-54 -8.39446e-55 -3.47686e-54)
(-4.90376e-56 -5.75021e-57 -2.38232e-56)
(-3.35084e-58 -3.92811e-59 -1.62789e-58)
(-2.28093e-60 -2.67311e-61 -1.10811e-60)
(-2.40367e-36 -2.81755e-37 -1.16055e-36)
(-1.7821e-38 -2.08806e-39 -8.60298e-39)
(-1.37057e-40 -1.6052e-41 -6.61524e-41)
(-1.05428e-42 -1.23431e-43 -5.08775e-43)
(-7.97123e-45 -9.32938e-46 -3.84611e-45)
(-5.88768e-47 -6.88886e-48 -2.84032e-47)
(-4.2449e-49 -4.9654e-50 -2.04748e-49)
(-2.99158e-51 -3.49844e-52 -1.44271e-51)
(-2.06519e-53 -2.41447e-54 -9.95787e-54)
(-1.39954e-55 -1.63581e-56 -6.74716e-56)
(-1.34612e-38 -1.57908e-39 -6.4982e-39)
(-9.30222e-41 -1.09095e-41 -4.48981e-41)
(-6.56513e-43 -7.69702e-44 -3.16821e-43)
(-4.71681e-45 -5.52806e-46 -2.27587e-45)
(-3.42059e-47 -4.00745e-48 -1.65017e-47)
(-2.4815e-49 -2.90623e-50 -1.19693e-49)
(-1.78841e-51 -2.09384e-52 -8.62483e-52)
(-1.27473e-53 -1.49199e-54 -6.14654e-54)
(-8.96455e-56 -1.04894e-56 -4.32183e-56)
(-6.21385e-58 -7.26884e-59 -2.99521e-58)
(-6.22152e-41 -7.30169e-42 -3.00285e-41)
(-4.41505e-43 -5.18081e-44 -2.1306e-43)
(-3.10817e-45 -3.64656e-46 -1.49969e-45)
(-2.18718e-47 -2.5654e-48 -1.05514e-47)
(-1.54345e-49 -1.80984e-50 -7.44473e-50)
(-1.09217e-51 -1.28027e-52 -5.26713e-52)
(-7.73261e-54 -9.06147e-55 -3.72855e-54)
(-5.4614e-56 -6.39791e-57 -2.63297e-56)
(-3.8367e-58 -4.49323e-59 -1.84939e-58)
(-2.67453e-60 -3.13126e-61 -1.28898e-60)
(-2.50892e-43 -2.94561e-44 -1.21074e-43)
(-1.8575e-45 -2.18056e-46 -8.96238e-46)
(-1.34601e-47 -1.5799e-48 -6.49342e-48)
(-9.61404e-50 -1.12827e-50 -4.63724e-50)
(-6.80604e-52 -7.98574e-53 -3.2823e-52)
(-4.79334e-54 -5.62286e-55 -2.31127e-54)
(-3.36513e-56 -3.94646e-57 -1.62235e-56)
(-2.35626e-58 -2.76253e-59 -1.13578e-58)
(-1.64471e-60 -1.92773e-61 -7.92663e-61)
(-1.14319e-62 -1.33952e-63 -5.50869e-63)
)
;

boundaryField
{
    inlet
    {
        type            zeroGradient;
    }
    outlet
    {
        type            zeroGradient;
    }
    bottom
    {
        type            zeroGradient;
    }
    top
    {
        type            symmetryPlane;
    }
    side1
    {
        type            symmetryPlane;
    }
    side2
    {
        type            symmetryPlane;
    }
    procBoundary18to10
    {
        type            processor;
        value           nonuniform List<vector> 
50
(
(-8.60221e-25 -1.00797e-25 -4.17908e-25)
(-5.44275e-27 -6.37594e-28 -2.64416e-27)
(-3.38396e-29 -3.96318e-30 -1.64397e-29)
(-2.07234e-31 -2.42645e-32 -1.00677e-31)
(-1.25285e-33 -1.46656e-34 -6.08652e-34)
(-7.49218e-36 -8.76783e-37 -3.63981e-36)
(-4.43939e-38 -5.19376e-39 -2.15672e-38)
(-2.60999e-40 -3.05255e-41 -1.26797e-40)
(-1.52411e-42 -1.78195e-43 -7.40434e-43)
(-8.84677e-45 -1.03398e-45 -4.29789e-45)
(-1.15498e-26 -1.35301e-27 -5.61106e-27)
(-7.52661e-29 -8.81485e-30 -3.65653e-29)
(-4.81557e-31 -5.63841e-32 -2.33947e-31)
(-3.03232e-33 -3.54958e-34 -1.47315e-33)
(-1.88357e-35 -2.2043e-36 -9.15063e-36)
(-1.15652e-37 -1.35309e-38 -5.61853e-38)
(-7.03144e-40 -8.22416e-41 -3.41597e-40)
(-4.23903e-42 -4.95654e-43 -2.05938e-42)
(-2.53686e-44 -2.96527e-45 -1.23244e-44)
(-1.50825e-46 -1.76233e-47 -7.32731e-47)
(-8.02626e-29 -9.40003e-30 -3.89927e-29)
(-5.38313e-31 -6.30289e-32 -2.6152e-31)
(-3.54183e-33 -4.14597e-34 -1.72067e-33)
(-2.29176e-35 -2.68201e-36 -1.11337e-35)
(-1.46178e-37 -1.71025e-38 -7.10152e-38)
(-9.21022e-40 -1.07729e-40 -4.47446e-40)
(-5.74259e-42 -6.71497e-43 -2.78983e-42)
(-3.54832e-44 -4.14784e-45 -1.72382e-44)
(-2.17521e-46 -2.54188e-47 -1.05675e-46)
(-1.32403e-48 -1.54667e-49 -6.43233e-49)
(-3.83317e-31 -4.4881e-32 -1.86221e-31)
(-2.64384e-33 -3.09477e-34 -1.28442e-33)
(-1.78752e-35 -2.09188e-36 -8.68402e-36)
(-1.18769e-37 -1.38957e-38 -5.76995e-38)
(-7.77376e-40 -9.09284e-41 -3.7766e-40)
(-5.02302e-42 -5.87375e-43 -2.44025e-42)
(-3.20989e-44 -3.75244e-45 -1.55941e-44)
(-2.03165e-46 -2.3743e-47 -9.87004e-47)
(-1.27509e-48 -1.48964e-49 -6.19459e-49)
(-7.94206e-51 -9.27506e-52 -3.85837e-51)
(-1.41751e-33 -1.65928e-34 -6.84483e-34)
(-1.00477e-35 -1.17584e-36 -4.85099e-36)
(-6.9763e-38 -8.16207e-39 -3.36759e-38)
(-4.75692e-40 -5.56409e-41 -2.29588e-40)
(-3.19321e-42 -3.73408e-43 -1.54092e-42)
(-2.11482e-44 -2.47236e-45 -1.02036e-44)
(-1.38441e-46 -1.618e-47 -6.67847e-47)
(-8.97142e-49 -1.04818e-49 -4.32714e-49)
(-5.76199e-51 -6.72975e-52 -2.7787e-51)
(-3.67089e-53 -4.28588e-54 -1.76998e-53)
)
;
    }
    procBoundary18to17
    {
        type            processor;
        value           nonuniform List<vector> 
20
(
(-5.13032e-25 -6.01788e-26 -2.49238e-25)
(-1.81049e-27 -2.12494e-28 -8.79559e-28)
(-5.95419e-30 -6.99153e-31 -2.89263e-30)
(-1.85397e-32 -2.1778e-33 -9.00685e-33)
(-6.88445e-27 -8.07369e-28 -3.34456e-27)
(-2.50101e-29 -2.93482e-30 -1.21502e-29)
(-8.46049e-32 -9.9327e-33 -4.11023e-32)
(-2.70793e-34 -3.1804e-35 -1.31555e-34)
(-4.78166e-29 -5.60641e-30 -2.323e-29)
(-1.78693e-31 -2.09647e-32 -8.68117e-32)
(-6.21369e-34 -7.29362e-35 -3.0187e-34)
(-2.04305e-36 -2.39912e-37 -9.92543e-37)
(-2.28246e-31 -2.67555e-32 -1.10885e-31)
(-8.76767e-34 -1.02844e-34 -4.25946e-34)
(-3.13164e-36 -3.67525e-37 -1.52139e-36)
(-1.05703e-38 -1.24105e-39 -5.13521e-39)
(-8.43648e-34 -9.88722e-35 -4.07379e-34)
(-3.32894e-36 -3.90403e-37 -1.60721e-36)
(-1.22058e-38 -1.4322e-39 -5.89204e-39)
(-4.22682e-41 -4.96184e-42 -2.04005e-41)
)
;
    }
    procBoundary18to19
    {
        type            processor;
        value           nonuniform List<vector> 
20
(
(-5.77997e-50 -6.76405e-51 -2.80799e-50)
(-3.50111e-52 -4.10035e-53 -1.70089e-52)
(-1.75446e-54 -2.05607e-55 -8.52342e-55)
(-7.88333e-57 -9.2441e-58 -3.82983e-57)
(-1.02011e-51 -1.19352e-52 -4.95583e-52)
(-6.3305e-54 -7.41255e-55 -3.07545e-54)
(-3.2449e-56 -3.80204e-57 -1.57642e-56)
(-1.49027e-58 -1.74722e-59 -7.23993e-59)
(-9.26579e-54 -1.08386e-54 -4.50145e-54)
(-5.88849e-56 -6.89361e-57 -2.86071e-56)
(-3.08624e-58 -3.61549e-59 -1.49934e-58)
(-1.44823e-60 -1.69767e-61 -7.03572e-61)
(-5.74728e-56 -6.72135e-57 -2.79211e-56)
(-3.73846e-58 -4.37572e-59 -1.8162e-58)
(-2.00255e-60 -2.34554e-61 -9.72867e-61)
(-9.59736e-63 -1.12485e-63 -4.66254e-63)
(-2.74555e-58 -3.21016e-59 -1.32349e-58)
(-1.82721e-60 -2.13825e-61 -8.80649e-61)
(-9.99958e-63 -1.17101e-63 -4.81862e-63)
(-4.89283e-65 -5.73366e-66 -2.35738e-65)
)
;
    }
    procBoundary18to26
    {
        type            processor;
        value           nonuniform List<vector> 
50
(
(-9.14241e-38 -1.0745e-38 -4.44151e-38)
(-6.90872e-40 -8.11812e-41 -3.35636e-40)
(-5.33219e-42 -6.26447e-43 -2.59045e-42)
(-4.04249e-44 -4.74849e-45 -1.9639e-44)
(-2.97794e-46 -3.49746e-47 -1.44673e-46)
(-2.13214e-48 -2.50369e-49 -1.03582e-48)
(-1.48903e-50 -1.7482e-51 -7.23391e-51)
(-1.01842e-52 -1.19546e-53 -4.94764e-53)
(-6.84579e-55 -8.03425e-56 -3.32578e-55)
(-4.53513e-57 -5.32136e-58 -2.20323e-57)
(-1.38826e-39 -1.63138e-40 -6.74436e-40)
(-1.07758e-41 -1.26604e-42 -5.23504e-42)
(-8.54018e-44 -1.00319e-44 -4.14894e-44)
(-6.64322e-46 -7.8023e-47 -3.22737e-46)
(-5.0171e-48 -5.89152e-49 -2.43738e-48)
(-3.67985e-50 -4.32047e-51 -1.78772e-50)
(-2.63089e-52 -3.08836e-53 -1.27812e-52)
(-1.84099e-54 -2.16071e-55 -8.9438e-55)
(-1.26542e-56 -1.48489e-57 -6.14759e-57)
(-8.56778e-59 -1.00516e-59 -4.16235e-59)
(-1.08812e-41 -1.2785e-42 -5.28623e-42)
(-8.67058e-44 -1.01855e-44 -4.21229e-44)
(-7.05237e-46 -8.28305e-47 -3.42614e-46)
(-5.62589e-48 -6.60653e-49 -2.73314e-48)
(-4.35376e-50 -5.11183e-51 -2.11512e-50)
(-3.26983e-52 -3.83853e-53 -1.58853e-52)
(-2.39223e-54 -2.80779e-55 -1.16218e-54)
(-1.71202e-56 -2.00904e-57 -8.31722e-57)
(-1.20287e-58 -1.41128e-59 -5.84373e-59)
(-8.32093e-61 -9.76057e-62 -4.04243e-61)
(-5.8438e-44 -6.86527e-45 -2.839e-44)
(-4.77726e-46 -5.61115e-47 -2.32086e-46)
(-3.98536e-48 -4.68015e-49 -1.93614e-48)
(-3.25846e-50 -3.82589e-51 -1.58301e-50)
(-2.58252e-52 -3.03175e-53 -1.25463e-52)
(-1.98501e-54 -2.32991e-55 -9.64346e-55)
(-1.48536e-56 -1.74313e-57 -7.21607e-57)
(-1.08665e-58 -1.27499e-59 -5.27908e-59)
(-7.80074e-61 -9.15094e-62 -3.78971e-61)
(-5.51089e-63 -6.46338e-64 -2.67727e-63)
(-2.42401e-46 -2.84732e-47 -1.16966e-46)
(-2.03186e-48 -2.38618e-49 -9.80269e-49)
(-1.73761e-50 -2.04025e-51 -8.38169e-51)
(-1.45537e-52 -1.70856e-53 -7.01904e-53)
(-1.18076e-54 -1.38595e-55 -5.6937e-55)
(-9.28432e-57 -1.08959e-57 -4.4762e-57)
(-7.10284e-59 -8.33427e-60 -3.42388e-59)
(-5.30976e-61 -6.22914e-62 -2.55912e-61)
(-3.89314e-63 -4.56631e-64 -1.87605e-63)
(-2.80783e-65 -3.29264e-66 -1.35283e-65)
)
;
    }
}


// ************************************************************************* //
