/*--------------------------------*- C++ -*----------------------------------*\
| =========                 |                                                 |
| \\      /  F ield         | OpenFOAM: The Open Source CFD Toolbox           |
|  \\    /   O peration     | Version:  2.4.0                                 |
|   \\  /    A nd           | Web:      www.OpenFOAM.org                      |
|    \\/     M anipulation  |                                                 |
\*---------------------------------------------------------------------------*/
FoamFile
{
    version     2.0;
    format      ascii;
    class       volScalarField;
    location    "0.16";
    object      alpha;
}
// * * * * * * * * * * * * * * * * * * * * * * * * * * * * * * * * * * * * * //

dimensions      [0 0 0 0 0 0 0];

internalField   nonuniform List<scalar> 
200
(
9.68662e-62
6.41481e-64
4.41029e-66
3.04088e-68
2.06762e-70
1.37787e-72
8.99016e-75
5.74969e-77
3.61124e-79
2.23183e-81
4.79973e-64
2.98325e-66
1.89629e-68
1.22878e-70
8.05086e-73
5.28765e-75
3.45783e-77
2.24157e-79
1.437e-81
9.10003e-84
1.98139e-66
1.26789e-68
8.06735e-71
5.14097e-73
3.29129e-75
2.11655e-77
1.36428e-79
8.78854e-82
5.64192e-84
3.60081e-86
7.17569e-69
4.80069e-71
3.15152e-73
2.04388e-75
1.31647e-77
8.45145e-80
5.41794e-82
3.46998e-84
2.21915e-86
1.41558e-88
1.32631e-63
9.04476e-66
6.40197e-68
4.5411e-70
3.17369e-72
2.17196e-74
1.45415e-76
9.53581e-79
6.13683e-81
3.88372e-83
6.78452e-66
4.33434e-68
2.83078e-70
1.88398e-72
1.26718e-74
8.53904e-77
5.72581e-79
3.80366e-81
2.4972e-83
1.61857e-85
2.88408e-68
1.89561e-70
1.2381e-72
8.09458e-75
5.31409e-77
3.50268e-79
2.313e-81
1.52572e-83
1.00242e-85
6.54434e-88
1.07399e-70
7.37596e-73
4.96725e-75
3.30269e-77
2.17972e-79
1.43311e-81
9.40452e-84
6.16291e-86
4.03096e-88
2.62861e-90
9.39607e-66
6.59361e-68
4.80143e-70
3.50146e-72
2.51374e-74
1.76568e-76
1.21237e-78
8.14789e-81
5.37041e-83
3.47877e-85
4.95785e-68
3.25351e-70
2.18191e-72
1.49057e-74
1.02865e-76
7.10827e-79
4.88501e-81
3.32389e-83
2.23387e-85
1.48133e-87
2.16875e-70
1.46326e-72
9.80483e-75
6.57314e-77
4.42285e-79
2.98659e-81
2.01955e-83
1.36349e-85
9.16468e-88
6.11804e-90
8.29898e-73
5.84757e-75
4.03762e-77
2.75092e-79
1.85945e-81
1.2515e-83
8.40348e-86
5.63239e-88
3.7663e-90
2.50985e-92
4.57285e-68
3.29952e-70
2.47001e-72
1.85054e-74
1.36378e-76
9.82576e-79
6.91511e-81
4.76017e-83
3.21166e-85
2.12835e-87
2.48673e-70
1.67509e-72
1.15275e-74
8.07821e-77
5.71627e-79
4.04833e-81
2.84975e-83
1.98504e-85
1.36497e-87
9.25596e-90
1.1185e-72
7.74165e-75
5.31856e-77
3.65392e-79
2.51845e-81
1.74128e-83
1.2051e-85
8.32341e-88
5.72067e-90
3.9032e-92
4.39511e-75
3.17528e-77
2.2466e-79
1.5676e-81
1.08463e-83
7.46909e-86
5.12925e-88
3.51452e-90
2.40154e-92
1.63474e-94
1.72271e-70
1.27723e-72
9.82289e-75
7.55602e-77
5.71297e-79
4.21969e-81
3.04231e-83
2.14406e-85
1.48012e-87
1.00305e-89
9.6476e-73
6.66689e-75
4.70522e-77
3.38053e-79
2.45153e-81
1.77849e-83
1.28175e-85
9.136e-88
6.42488e-90
4.45345e-92
4.45896e-75
3.16426e-77
2.22762e-79
1.56755e-81
1.10619e-83
7.82754e-86
5.54195e-88
3.91418e-90
2.74976e-92
1.91683e-94
1.79814e-77
1.33127e-79
9.64686e-82
6.89037e-84
4.87788e-86
3.43538e-88
2.41179e-90
1.68873e-92
1.17876e-94
8.19325e-97
)
;

boundaryField
{
    inlet
    {
        type            zeroGradient;
    }
    outlet
    {
        type            zeroGradient;
    }
    bottom
    {
        type            fixedValue;
        value           uniform 0;
    }
    top
    {
        type            symmetryPlane;
    }
    side1
    {
        type            symmetryPlane;
    }
    side2
    {
        type            symmetryPlane;
    }
    procBoundary18to10
    {
        type            processor;
        value           nonuniform List<scalar> 
50
(
6.16519e-59
3.90081e-61
2.42528e-63
1.48524e-65
8.97915e-68
5.36964e-70
3.1817e-72
1.87058e-74
1.09233e-76
6.34047e-79
8.27773e-61
5.39431e-63
3.45131e-65
2.17326e-67
1.34995e-69
8.28875e-72
5.03942e-74
3.03811e-76
1.81816e-78
1.08096e-80
5.75241e-63
3.85808e-65
2.53843e-67
1.6425e-69
1.04765e-71
6.60095e-74
4.11571e-76
2.54307e-78
1.55897e-80
9.4893e-83
2.74722e-65
1.89484e-67
1.28111e-69
8.51213e-72
5.57144e-74
3.59999e-76
2.30052e-78
1.45608e-80
9.13858e-83
5.69206e-85
1.01593e-67
7.20115e-70
4.9999e-72
3.40928e-74
2.28857e-76
1.51568e-78
9.92206e-81
6.4298e-83
4.12961e-85
2.63092e-87
)
;
    }
    procBoundary18to17
    {
        type            processor;
        value           nonuniform List<scalar> 
20
(
3.67689e-59
1.29757e-61
4.26736e-64
1.32874e-66
4.93407e-61
1.79247e-63
6.06362e-66
1.94077e-68
3.427e-63
1.28069e-65
4.45334e-68
1.46425e-70
1.63584e-65
6.28378e-68
2.24444e-70
7.57573e-73
6.04641e-68
2.38585e-70
8.7479e-73
3.02935e-75
)
;
    }
    procBoundary18to19
    {
        type            processor;
        value           nonuniform List<scalar> 
20
(
4.1425e-84
2.50924e-86
1.25742e-88
5.64997e-91
7.31109e-86
4.53706e-88
2.32562e-90
1.06807e-92
6.64078e-88
4.22027e-90
2.2119e-92
1.03795e-94
4.11907e-90
2.67935e-92
1.43522e-94
6.87842e-97
1.96773e-92
1.30956e-94
7.16668e-97
3.50668e-99
)
;
    }
    procBoundary18to26
    {
        type            processor;
        value           nonuniform List<scalar> 
50
(
6.55235e-72
4.95147e-74
3.82157e-76
2.89724e-78
2.13429e-80
1.5281e-82
1.06718e-84
7.29901e-87
4.90637e-89
3.25032e-91
9.94962e-74
7.72301e-76
6.12073e-78
4.76118e-80
3.59575e-82
2.63734e-84
1.88555e-86
1.31944e-88
9.06925e-91
6.14051e-93
7.79853e-76
6.21419e-78
5.05443e-80
4.03207e-82
3.12033e-84
2.34348e-86
1.71451e-88
1.227e-90
8.62098e-93
5.9636e-95
4.18824e-78
3.42386e-80
2.8563e-82
2.33533e-84
1.85089e-86
1.42265e-88
1.06455e-90
7.78798e-93
5.59077e-95
3.94964e-97
1.73728e-80
1.45623e-82
1.24535e-84
1.04306e-86
8.46251e-89
6.65405e-91
5.09059e-93
3.8055e-95
2.79021e-97
2.01237e-99
)
;
    }
}


// ************************************************************************* //
