/*--------------------------------*- C++ -*----------------------------------*\
| =========                 |                                                 |
| \\      /  F ield         | OpenFOAM: The Open Source CFD Toolbox           |
|  \\    /   O peration     | Version:  2.4.0                                 |
|   \\  /    A nd           | Web:      www.OpenFOAM.org                      |
|    \\/     M anipulation  |                                                 |
\*---------------------------------------------------------------------------*/
FoamFile
{
    version     2.0;
    format      ascii;
    class       volVectorField;
    location    "0.16";
    object      Ur;
}
// * * * * * * * * * * * * * * * * * * * * * * * * * * * * * * * * * * * * * //

dimensions      [0 1 -1 0 0 0 0];

internalField   nonuniform List<vector> 
200
(
(-4.55528e+14 -2.76189e+14 -3.5291e+14)
(-2.55065e+14 -9.19303e+14 -8.55058e+14)
(-2.73098e+14 -3.21141e+14 2.28063e+14)
(-2.92185e+14 -8.80065e+14 -7.46773e+14)
(-2.43053e+14 -4.44065e+14 6.94384e+14)
(-4.49655e+14 -1.2346e+15 -4.72151e+14)
(-7.49927e+13 -5.90429e+14 -6.26347e+14)
(-5.44844e+14 -2.27358e+14 -2.96134e+14)
(8.68511e+13 -3.29484e+14 -2.56588e+13)
(-4.51554e+14 6.30965e+14 -1.95248e+14)
(1.00349e+14 -6.27191e+14 -3.89215e+14)
(1.10652e+14 -2.27149e+14 -8.4445e+13)
(1.51902e+14 -4.95146e+14 -3.06099e+14)
(1.52102e+14 -2.77256e+14 -4.4781e+13)
(1.41035e+14 -4.2961e+14 -1.14746e+14)
(1.49678e+14 -2.14367e+14 -3.16956e+12)
(-2.45346e+14 1.40869e+15 -5.51998e+14)
(3.84458e+14 -8.02475e+14 5.83966e+13)
(7.56772e+13 3.12926e+14 2.65639e+13)
(4.77384e+13 3.87465e+14 -1.6212e+13)
(3.96907e+14 -6.64581e+13 -1.10786e+14)
(4.99088e+14 -3.05368e+14 -1.10396e+14)
(4.07224e+14 -1.21511e+14 -1.22707e+14)
(5.20761e+14 -2.31959e+14 -1.36547e+14)
(3.9919e+14 -1.90491e+14 -2.10232e+13)
(3.68733e+14 -2.13916e+14 -4.45778e+13)
(4.92487e+14 -7.71458e+14 1.09205e+14)
(5.34141e+14 -1.00311e+14 1.84799e+14)
(2.59661e+14 1.91848e+14 1.1163e+14)
(2.02331e+14 2.66347e+13 3.68618e+12)
(5.48288e+14 -3.18565e+14 2.33631e+13)
(4.52885e+14 5.79526e+13 -1.1487e+14)
(5.92917e+14 -2.5775e+14 -1.32577e+14)
(4.24729e+14 -1.62865e+13 -1.34278e+13)
(5.42476e+14 -4.22209e+13 -5.96891e+13)
(5.26195e+14 -1.5842e+14 1.55135e+13)
(4.80038e+14 1.00328e+14 1.18657e+14)
(3.13172e+14 8.71366e+12 2.29161e+14)
(3.47826e+14 9.67174e+13 1.73475e+14)
(9.91146e+14 1.99315e+14 -3.43e+13)
(-2.8132e+13 -6.66795e+14 -9.42024e+14)
(-1.69386e+14 -2.05607e+14 -2.17693e+14)
(-1.16e+14 -5.80625e+14 -8.3716e+14)
(6.65511e+13 -1.62951e+14 -5.26121e+12)
(-7.43854e+13 -6.18687e+14 -6.93063e+14)
(2.43738e+14 -2.37394e+14 -6.76274e+14)
(-7.47018e+13 -3.23188e+14 -5.70564e+14)
(3.9113e+13 1.68549e+14 -5.80457e+14)
(-2.60559e+14 7.08665e+14 -6.39037e+14)
(-1.74345e+14 6.89172e+14 -1.4787e+14)
(4.28668e+14 -1.38901e+14 -4.79368e+14)
(3.57129e+14 -2.8935e+14 -6.30991e+14)
(4.04336e+14 -2.39875e+14 -3.92632e+14)
(4.0979e+14 -1.62234e+14 -5.88014e+14)
(3.34671e+14 -6.15141e+13 -5.64324e+14)
(4.92817e+14 2.19266e+14 -3.94591e+14)
(4.71975e+14 1.28829e+14 -4.66284e+14)
(4.1207e+14 5.73199e+14 -5.56511e+14)
(4.82294e+14 8.00612e+14 -2.64022e+14)
(1.00079e+15 -4.2383e+14 1.79025e+14)
(6.93813e+14 -1.62267e+14 -2.73019e+14)
(5.90716e+14 -1.43402e+14 -3.06922e+14)
(6.14201e+14 -6.72708e+13 -3.1939e+14)
(5.20439e+14 -1.30119e+13 -3.19109e+14)
(6.08028e+14 4.8848e+13 -3.34373e+14)
(6.04966e+14 -5.49475e+13 -2.56876e+14)
(7.44732e+14 2.03642e+14 -3.20036e+14)
(7.17962e+14 7.28619e+14 -2.66601e+14)
(9.79612e+14 1.39388e+14 3.03481e+13)
(1.1332e+15 1.3271e+15 -9.26353e+14)
(6.6952e+14 -4.46729e+13 -1.98318e+14)
(7.1779e+14 -7.1959e+12 -1.72721e+14)
(6.33058e+14 1.40887e+12 -2.25117e+14)
(7.17552e+14 4.04553e+13 -2.33302e+14)
(7.06342e+14 4.7754e+13 -1.48761e+14)
(8.229e+14 1.90064e+14 -2.35546e+14)
(9.97796e+14 7.32452e+13 -2.19529e+14)
(8.09565e+14 2.64662e+14 -1.49869e+14)
(3.78657e+15 1.48558e+15 -1.92944e+15)
(2.45533e+15 -5.6732e+14 -3.54984e+14)
(2.51738e+14 2.94286e+12 -6.50508e+14)
(1.10712e+14 -3.4668e+14 -8.43744e+14)
(2.75316e+14 -1.14589e+14 -5.96884e+14)
(-1.90058e+13 -3.64135e+14 -8.2335e+14)
(3.84597e+14 -2.09336e+14 -8.20914e+14)
(-5.45101e+13 -4.54489e+14 -7.47769e+14)
(2.08337e+13 -3.40857e+14 -7.26252e+14)
(-2.12491e+14 -2.22384e+14 -8.32875e+14)
(-3.43694e+14 -2.80234e+14 -7.81825e+14)
(-5.50324e+14 2.9091e+14 -7.97104e+14)
(4.92836e+14 -1.03756e+14 -4.85793e+14)
(4.25567e+14 -1.12969e+14 -5.33607e+14)
(3.13621e+14 -9.2875e+13 -6.26525e+14)
(3.83364e+14 -3.09849e+14 -5.43879e+14)
(2.37185e+14 -1.55587e+14 -7.48122e+14)
(1.71494e+14 -1.11714e+14 -7.59079e+14)
(9.16398e+13 1.21649e+14 -6.73532e+14)
(-3.21755e+13 -2.00558e+13 -6.93298e+14)
(-1.09122e+13 4.69756e+14 -7.6361e+14)
(-3.55872e+14 6.02573e+14 -4.46649e+14)
(4.98051e+14 -5.61728e+13 -2.25008e+14)
(4.70454e+14 -1.04246e+13 -2.6497e+14)
(4.04066e+14 -1.31194e+14 -3.1285e+14)
(3.6738e+14 -3.1316e+13 -5.06589e+14)
(2.55869e+14 -1.12577e+14 -4.33101e+14)
(2.76784e+14 2.13341e+13 -5.52964e+14)
(2.18955e+14 -1.70383e+13 -4.39242e+14)
(2.91093e+14 1.839e+14 -5.53944e+14)
(7.48283e+13 4.79712e+14 -5.16871e+14)
(5.64485e+13 3.02168e+14 -3.53624e+14)
(5.19e+14 4.61058e+13 -1.00963e+14)
(4.6058e+14 -2.87044e+13 -1.86167e+14)
(4.45421e+14 2.46436e+13 -2.53854e+14)
(3.77832e+14 -8.79476e+13 -2.61484e+14)
(3.97544e+14 4.36432e+13 -4.09954e+14)
(3.63382e+14 -1.7958e+13 -3.32053e+14)
(4.49628e+14 1.48396e+14 -4.57909e+14)
(4.36143e+14 2.12794e+14 -5.20079e+14)
(3.32523e+14 4.33623e+14 -4.02192e+14)
(1.10568e+15 8.59745e+14 -1.25684e+15)
(3.6272e+14 -1.47378e+14 -7.03653e+14)
(3.68626e+14 -1.25718e+14 -6.27038e+14)
(2.23105e+14 -3.25661e+14 -6.8397e+14)
(3.03667e+14 -3.07098e+14 -6.74121e+14)
(1.38681e+14 -3.83078e+14 -7.27116e+14)
(1.60235e+14 -4.8838e+14 -5.93831e+14)
(5.9871e+13 -5.8037e+14 -7.25893e+14)
(-2.18316e+14 -7.39296e+14 -4.05007e+14)
(2.31902e+13 -9.52775e+14 -9.21753e+14)
(-5.72716e+14 -7.56462e+14 -4.25346e+14)
(4.18186e+14 -1.97258e+14 -3.88999e+14)
(4.28927e+14 -1.82251e+14 -4.30761e+14)
(2.43397e+14 -3.21143e+14 -4.51214e+14)
(1.96012e+14 -3.96636e+14 -6.05389e+14)
(1.57515e+14 -5.52707e+14 -5.73294e+14)
(6.98091e+13 -4.19555e+14 -8.41682e+14)
(-1.4263e+14 -5.20151e+14 -5.73815e+14)
(6.63918e+13 -5.32921e+14 -1.14154e+15)
(-5.53586e+14 -5.74811e+14 -4.98122e+14)
(-5.01786e+14 -5.75233e+14 -6.91233e+14)
(3.24848e+14 -1.91552e+14 -1.69239e+13)
(2.40996e+14 -9.44989e+13 -1.57232e+14)
(9.18368e+13 -7.59028e+13 -1.23463e+14)
(8.60107e+13 -4.83915e+14 -1.48362e+14)
(-6.05025e+13 -4.60238e+14 -3.91432e+14)
(-1.19634e+14 -5.21723e+14 -3.73913e+14)
(-1.11655e+14 -4.31995e+14 -5.87855e+14)
(-2.92262e+14 -4.91379e+14 -2.86841e+14)
(-3.95512e+14 -4.01225e+14 -4.49136e+14)
(-5.16605e+14 -3.70865e+14 -3.4455e+14)
(2.57145e+14 4.02028e+14 -9.8321e+13)
(-1.30975e+13 1.16956e+14 -7.46912e+12)
(2.38668e+14 -2.18219e+14 4.58157e+11)
(-3.89021e+13 -2.72147e+14 -1.40265e+14)
(-4.49211e+13 -4.86328e+14 -7.72115e+13)
(-2.0041e+14 -3.75639e+14 -3.07615e+14)
(-2.27421e+14 -4.78145e+14 -2.02191e+14)
(-3.27521e+14 -3.37063e+14 -3.42166e+14)
(-3.1439e+14 -4.11704e+14 -2.40056e+14)
(-4.83546e+14 -2.14278e+14 -3.25281e+14)
(4.19246e+14 -2.34919e+14 -2.46547e+14)
(4.87023e+14 -4.06034e+14 -4.33733e+14)
(3.05366e+14 -3.78475e+14 -1.97021e+14)
(4.22819e+14 -6.40848e+14 -4.53403e+14)
(1.21156e+14 -5.7974e+14 -8.31653e+13)
(4.31857e+14 -8.37997e+14 -5.9496e+14)
(-8.32929e+13 -6.61938e+14 1.59328e+14)
(4.75424e+14 -1.38495e+15 -9.38512e+14)
(-3.32894e+14 -1.14847e+15 2.56942e+14)
(-4.48704e+14 -8.9035e+14 -1.99113e+14)
(4.71982e+14 -5.2412e+14 -3.23911e+14)
(3.03716e+14 -4.57925e+14 -2.30014e+14)
(3.9516e+14 -5.97106e+14 -4.03774e+14)
(1.74317e+14 -5.67419e+14 -1.5173e+14)
(2.42105e+14 -8.39785e+14 -4.54241e+14)
(-9.48827e+13 -7.33803e+14 2.69443e+13)
(2.55406e+14 -1.02078e+15 -7.45837e+14)
(-3.37237e+14 -1.00479e+15 -6.17511e+13)
(-4.43778e+14 -8.28226e+14 -1.635e+14)
(-5.74233e+14 -1.02189e+15 -3.74517e+14)
(2.79498e+14 -5.55415e+14 -2.21099e+14)
(3.03493e+14 -6.5055e+14 -1.67341e+14)
(1.34648e+14 -6.1376e+14 -2.36124e+14)
(2.70794e+14 -7.69327e+14 -3.46663e+14)
(-1.0339e+14 -6.95002e+14 -1.67793e+14)
(2.72957e+14 -1.43411e+15 -8.39904e+14)
(-3.47559e+14 -9.71224e+14 -2.58918e+14)
(-3.48909e+14 -8.61647e+14 -1.1137e+14)
(-4.59036e+14 -8.93645e+14 -3.13005e+14)
(-7.5542e+14 -7.21094e+14 -6.39568e+13)
(1.84025e+14 -2.83003e+14 2.09291e+14)
(2.95776e+14 -4.1763e+14 5.71844e+13)
(4.50406e+13 -5.53391e+14 -9.70669e+13)
(9.11091e+12 -7.26789e+14 -1.3953e+14)
(-3.97174e+13 -7.27007e+14 -1.3297e+14)
(-1.6427e+14 -1.00258e+15 -1.93325e+14)
(-3.57657e+14 -7.89537e+14 -6.70677e+13)
(-3.55019e+14 -8.01182e+14 -1.46258e+14)
(-6.02239e+14 -5.90667e+14 -7.68669e+13)
(-5.45476e+14 -8.57636e+14 -7.16864e+13)
)
;

boundaryField
{
    inlet
    {
        type            calculated;
        value           nonuniform 0();
    }
    outlet
    {
        type            calculated;
        value           nonuniform 0();
    }
    bottom
    {
        type            calculated;
        value           uniform (0 0 0);
    }
    top
    {
        type            symmetryPlane;
    }
    side1
    {
        type            symmetryPlane;
    }
    side2
    {
        type            symmetryPlane;
    }
    procBoundary18to10
    {
        type            processor;
        value           nonuniform List<vector> 
50
(
(-4.54488e+14 -1.16624e+15 -1.06175e+15)
(-5.71583e+14 -6.56175e+14 -3.85051e+14)
(-4.1391e+14 -1.16025e+15 -1.07984e+15)
(-4.00139e+14 -3.95104e+14 7.17489e+14)
(-5.19799e+14 -1.10148e+15 -9.36953e+14)
(-3.88978e+14 -4.10353e+14 9.48268e+14)
(-6.82919e+14 -1.07776e+15 -6.51345e+14)
(-2.17946e+14 -4.06887e+14 -7.90402e+14)
(-7.58486e+14 -8.52325e+14 -2.90543e+14)
(-3.06937e+14 -2.09186e+14 -1.99313e+14)
(-1.68472e+14 -2.34489e+14 -7.13667e+14)
(-5.80844e+13 -7.33008e+14 -1.2173e+15)
(-1.82754e+14 -1.31463e+14 -1.14666e+14)
(-2.21865e+14 -6.3207e+14 -1.15553e+15)
(-1.23257e+14 -1.86742e+14 6.93682e+14)
(-2.77855e+14 -8.08998e+14 -8.08974e+14)
(1.27777e+14 -2.37411e+14 -6.79335e+14)
(-4.45739e+14 -6.2379e+14 -5.01369e+14)
(-2.00368e+14 -2.83938e+14 -5.54034e+14)
(-6.06476e+14 2.578e+14 -4.56244e+14)
(2.9457e+14 -4.53452e+14 -1.12071e+15)
(1.43578e+14 -1.62176e+13 -3.60505e+14)
(8.24566e+13 -5.09335e+14 -9.61783e+14)
(1.95728e+14 -1.11356e+14 6.84132e+13)
(-9.96637e+13 -7.27531e+14 -7.9929e+14)
(3.35519e+14 -2.82219e+14 -6.06051e+14)
(-2.02029e+14 -6.3526e+14 -5.91408e+14)
(6.4307e+13 -4.73784e+14 -8.24876e+14)
(-3.19449e+14 -3.09958e+14 -6.48828e+14)
(-3.69187e+14 -3.95299e+14 -6.38636e+14)
(3.78391e+14 9.05128e+13 -4.55889e+14)
(2.35668e+14 -3.31613e+14 -7.27184e+14)
(4.09743e+14 -7.571e+13 -4.47732e+14)
(2.02338e+14 -4.6382e+14 -6.79752e+14)
(3.59607e+14 -2.65442e+14 -3.67032e+14)
(2.09881e+14 -6.53354e+14 -6.47782e+14)
(8.46192e+13 -4.78686e+14 -1.16174e+14)
(3.08565e+14 -9.19907e+14 -7.83758e+14)
(-2.96591e+14 -6.40611e+14 -1.67937e+14)
(3.47972e+14 -1.36223e+15 -9.28153e+14)
(4.90955e+14 -1.8072e+14 -4.60858e+14)
(4.36511e+14 -4.96246e+13 -1.92182e+14)
(5.22286e+14 -3.46862e+14 -5.01041e+14)
(3.23054e+14 -2.39633e+14 -1.96542e+13)
(5.96132e+14 -5.60403e+14 -5.26118e+14)
(1.71366e+14 -5.18504e+14 2.23263e+14)
(4.29257e+14 -9.62337e+14 -5.44487e+14)
(9.94931e+13 -1.02885e+15 5.12871e+14)
(2.35793e+14 -1.50449e+15 -5.89355e+14)
(-4.95678e+13 -1.46846e+15 5.30228e+14)
)
;
    }
    procBoundary18to17
    {
        type            processor;
        value           nonuniform List<vector> 
20
(
(-1.09015e+14 -7.70656e+14 -7.60696e+14)
(3.47238e+13 3.1452e+14 1.61974e+14)
(4.46138e+14 -5.66234e+14 -2.08132e+13)
(5.83553e+14 1.3268e+14 9.83775e+11)
(-2.95308e+14 -1.02283e+14 -5.77656e+14)
(5.31334e+14 -3.65438e+14 -5.1699e+14)
(6.37644e+14 -6.48363e+13 -2.4258e+14)
(7.7336e+14 -9.53629e+13 -1.21327e+14)
(2.18677e+14 -2.90095e+14 -1.02616e+15)
(4.97232e+14 -4.05417e+13 -4.84422e+14)
(5.88325e+14 1.05659e+13 -1.72235e+14)
(5.27637e+14 -2.35259e+13 -5.35926e+13)
(4.33882e+14 -5.04113e+13 -6.39305e+14)
(5.23238e+14 -2.05261e+14 -3.2786e+14)
(5.26279e+14 -1.10181e+14 -1.43945e+13)
(3.62913e+14 -7.66539e+13 6.94446e+13)
(5.31922e+14 -2.96276e+14 -4.35384e+14)
(3.93021e+14 -4.22219e+14 -3.28788e+14)
(4.23981e+14 -4.99173e+14 -4.27073e+13)
(3.81089e+14 -1.3818e+14 -8.02297e+13)
)
;
    }
    procBoundary18to19
    {
        type            processor;
        value           nonuniform List<vector> 
20
(
(-2.54619e+14 3.64932e+14 -8.54001e+13)
(-1.51323e+14 -1.12195e+14 -3.58796e+14)
(1.11976e+15 5.65563e+14 -7.04351e+14)
(3.67736e+14 3.73484e+14 1.92427e+14)
(3.83502e+14 -3.34847e+14 1.73099e+14)
(5.14355e+14 1.41484e+15 -9.46285e+14)
(1.1308e+15 6.67333e+14 -1.6834e+14)
(1.11591e+15 1.58547e+15 2.14093e+14)
(-6.64971e+14 1.41835e+14 -4.9536e+14)
(-2.37089e+14 6.21299e+12 -3.26962e+14)
(7.47925e+13 1.17121e+15 -1.35002e+15)
(1.46938e+15 -1.82694e+14 -1.65496e+15)
(-5.25765e+14 -8.324e+14 -5.41033e+14)
(-7.81864e+14 -4.4131e+14 -6.0235e+14)
(-7.14661e+14 -2.64869e+14 -2.82833e+14)
(-6.04754e+14 -2.10175e+14 -2.61167e+14)
(-6.19482e+14 -1.21545e+15 -3.00689e+14)
(-9.42466e+14 -7.98938e+14 -9.52774e+13)
(-6.24406e+14 -1.39846e+15 -2.65092e+14)
(-8.54722e+14 -5.41529e+14 -1.67442e+14)
)
;
    }
    procBoundary18to26
    {
        type            processor;
        value           nonuniform List<vector> 
50
(
(5.1739e+14 2.68451e+14 -8.95858e+13)
(6.36792e+14 -3.1325e+14 -5.10785e+13)
(4.58081e+14 2.38986e+14 -4.05151e+13)
(5.79846e+14 -4.56956e+13 -9.11373e+13)
(6.55236e+14 -3.6997e+14 -9.45662e+13)
(5.66607e+14 1.39214e+14 4.16632e+14)
(4.18115e+14 7.94152e+12 2.34963e+14)
(3.90438e+14 1.66865e+14 2.28525e+14)
(4.32574e+14 7.33104e+13 1.33542e+14)
(3.11954e+14 1.97092e+14 6.38349e+13)
(7.59191e+14 -1.34437e+13 -9.02089e+13)
(6.73393e+14 3.82034e+13 -2.0662e+14)
(7.75875e+14 -5.89608e+13 -1.8304e+14)
(7.49595e+14 3.40775e+12 -1.19085e+14)
(8.52243e+14 -3.526e+13 -1.83658e+14)
(1.11271e+15 -3.4506e+14 -2.03137e+14)
(1.58065e+15 -7.08283e+14 -6.34446e+13)
(2.24777e+15 -8.7267e+14 -5.03292e+14)
(3.09534e+15 -2.05249e+15 -7.91329e+14)
(7.89116e+13 2.19097e+15 3.32493e+13)
(4.75312e+14 6.05013e+13 -1.24403e+14)
(5.00154e+14 4.61907e+13 -1.16503e+14)
(4.3676e+14 -4.48816e+13 -1.79781e+14)
(4.60766e+14 8.95492e+12 -2.73139e+14)
(4.4126e+14 -9.80404e+13 -2.39769e+14)
(5.20798e+14 -3.89088e+13 -3.93113e+14)
(6.20919e+14 -1.68544e+14 -4.60271e+14)
(6.16985e+14 -1.95539e+14 -4.64824e+14)
(1.40519e+15 -6.59389e+14 -1.01049e+15)
(2.68543e+15 -1.30448e+15 -2.38694e+15)
(7.40742e+13 9.30955e+13 3.11502e+13)
(3.60552e+14 -1.26433e+14 2.82361e+13)
(1.92217e+14 -2.61485e+13 -1.84683e+14)
(1.74151e+14 -2.91299e+14 4.85982e+13)
(3.41191e+13 -2.45439e+14 -3.05872e+14)
(-7.96488e+13 -4.48433e+14 -3.46859e+13)
(-1.99925e+14 -4.03795e+14 -3.34445e+14)
(-3.07154e+14 -5.81507e+14 -2.45818e+14)
(-3.02635e+14 -5.05153e+14 -4.48526e+14)
(-4.07931e+14 -6.06709e+14 -2.78002e+14)
(5.23484e+14 -3.85047e+14 2.22989e+14)
(2.05711e+14 -9.84345e+13 -7.99803e+14)
(2.39858e+14 -4.0969e+14 1.91113e+14)
(-3.30708e+12 -3.07166e+14 -3.05267e+14)
(-6.2488e+13 -7.04362e+14 3.23816e+13)
(-2.75497e+14 -6.49052e+14 -1.57619e+14)
(-3.17579e+14 -8.03885e+14 9.2476e+12)
(-4.86478e+14 -5.97565e+14 -1.62402e+14)
(-4.55277e+14 -6.80701e+14 6.71598e+13)
(-6.33969e+14 -4.58135e+14 -3.19396e+14)
)
;
    }
}


// ************************************************************************* //
