/*--------------------------------*- C++ -*----------------------------------*\
| =========                 |                                                 |
| \\      /  F ield         | OpenFOAM: The Open Source CFD Toolbox           |
|  \\    /   O peration     | Version:  2.4.0                                 |
|   \\  /    A nd           | Web:      www.OpenFOAM.org                      |
|    \\/     M anipulation  |                                                 |
\*---------------------------------------------------------------------------*/
FoamFile
{
    version     2.0;
    format      ascii;
    class       volVectorField;
    location    "0.03";
    object      Uc;
}
// * * * * * * * * * * * * * * * * * * * * * * * * * * * * * * * * * * * * * //

dimensions      [0 1 -1 0 0 0 0];

internalField   nonuniform List<vector> 
200
(
(-3.43038e-24 -9.0877e-23 4.10518e-24)
(-2.31804e-22 -6.15814e-21 2.77808e-22)
(-1.26746e-20 -3.37069e-19 1.51925e-20)
(-5.00597e-19 -1.3327e-17 6.00142e-19)
(-1.07916e-17 -2.87598e-16 1.29396e-17)
(-5.00646e-19 -1.33271e-17 6.00161e-19)
(-1.27181e-20 -3.37134e-19 1.52116e-20)
(-4.0919e-21 -1.22251e-20 1.98803e-21)
(-3.26685e-19 -5.14264e-19 1.44752e-19)
(-2.38193e-17 -3.75163e-17 1.0554e-17)
(-2.33357e-22 -6.20351e-21 2.76768e-22)
(-1.67816e-20 -4.52452e-19 2.01153e-20)
(-9.94523e-19 -2.68136e-17 1.19229e-18)
(-4.28701e-17 -1.15583e-15 5.14034e-17)
(-1.01692e-15 -2.74176e-14 1.21955e-15)
(-4.28909e-17 -1.15586e-15 5.14111e-17)
(-1.00078e-18 -2.6823e-17 1.19497e-18)
(-5.36898e-19 -1.27908e-18 2.50567e-19)
(-4.74161e-17 -7.53738e-17 2.10096e-17)
(-3.74656e-15 -5.95517e-15 1.66005e-15)
(-1.69063e-21 -9.38587e-23 5.28296e-22)
(-2.67348e-22 -6.20818e-21 2.87535e-22)
(-1.28125e-20 -3.39661e-19 1.51708e-20)
(-5.08813e-19 -1.34253e-17 6.00513e-19)
(-1.11439e-17 -2.89766e-16 1.30162e-17)
(-8.69811e-18 -2.30972e-17 3.58679e-18)
(-7.73839e-19 -1.37996e-18 3.19867e-19)
(-3.7944e-17 -6.03134e-17 1.68118e-17)
(-3.74638e-15 -5.95488e-15 1.65997e-15)
(-3.22922e-13 -5.13287e-13 1.43083e-13)
(-8.10002e-19 -1.07074e-21 2.51666e-19)
(-1.61656e-20 -1.12206e-21 5.07236e-21)
(-6.09015e-20 -7.38725e-20 2.22659e-20)
(-3.31766e-18 -3.99901e-18 1.21234e-18)
(-1.31045e-16 -1.56358e-16 4.78348e-17)
(-2.82523e-15 -3.33642e-15 1.03016e-15)
(-1.30986e-16 -1.54684e-16 4.77619e-17)
(-3.82692e-18 -4.73164e-18 1.4362e-18)
(-4.74744e-17 -7.54346e-17 2.10297e-17)
(-3.74648e-15 -5.95496e-15 1.66001e-15)
(-2.37118e-21 -6.29932e-20 2.84012e-21)
(-1.72865e-19 -4.5972e-18 2.07094e-19)
(-1.02399e-17 -2.72609e-16 1.22701e-17)
(-4.41204e-16 -1.17582e-14 5.28786e-16)
(-1.04611e-14 -2.79086e-13 1.25403e-14)
(-4.41223e-16 -1.17583e-14 5.28794e-16)
(-1.0254e-17 -2.7263e-16 1.22763e-17)
(-1.50822e-18 -6.69804e-18 7.98747e-19)
(-1.21721e-16 -1.91775e-16 5.39347e-17)
(-9.61558e-15 -1.51556e-14 4.26054e-15)
(-1.71677e-19 -4.62865e-18 2.05672e-19)
(-1.35654e-17 -3.6574e-16 1.62549e-17)
(-8.7704e-16 -2.36461e-14 1.05114e-15)
(-4.15868e-14 -1.12124e-12 4.98524e-14)
(-1.09599e-12 -2.95493e-11 1.31409e-12)
(-4.15953e-14 -1.12125e-12 4.98556e-14)
(-8.79237e-16 -2.36495e-14 1.05208e-15)
(-2.07427e-16 -6.73879e-16 1.02152e-16)
(-1.91485e-14 -3.04409e-14 8.48458e-15)
(-1.65075e-12 -2.62388e-12 7.31428e-13)
(-2.37818e-21 -6.34787e-20 2.82767e-21)
(-1.72831e-19 -4.63029e-18 2.06102e-19)
(-1.02529e-17 -2.74437e-16 1.22212e-17)
(-4.42895e-16 -1.18319e-14 5.27282e-16)
(-1.05736e-14 -2.80764e-13 1.25356e-14)
(-4.05049e-15 -1.60925e-14 1.84279e-15)
(-3.0679e-16 -6.77422e-16 1.30487e-16)
(-1.5323e-14 -2.43586e-14 6.78922e-15)
(-1.65068e-12 -2.62377e-12 7.31397e-13)
(-1.5653e-10 -2.48806e-10 6.93566e-11)
(-8.12376e-21 -4.7915e-21 2.73662e-21)
(-3.1081e-19 -3.97277e-19 1.14306e-19)
(-2.26451e-17 -2.8402e-17 8.31072e-18)
(-1.34099e-15 -1.6492e-15 4.91085e-16)
(-5.77607e-14 -6.96253e-14 2.1107e-14)
(-1.36909e-12 -1.61684e-12 4.99213e-13)
(-5.7707e-14 -6.81484e-14 2.10419e-14)
(-1.53117e-15 -1.88736e-15 5.73523e-16)
(-1.91704e-14 -3.04616e-14 8.49245e-15)
(-1.65073e-12 -2.62382e-12 7.31421e-13)
(-1.32798e-18 -3.53166e-17 1.58952e-18)
(-1.04876e-16 -2.79202e-15 1.25565e-16)
(-6.77681e-15 -1.80604e-13 8.11592e-15)
(-3.21162e-13 -8.5681e-12 3.8473e-13)
(-8.45935e-12 -2.2592e-10 1.01365e-11)
(-3.21166e-13 -8.56811e-12 3.84732e-13)
(-6.77928e-15 -1.80608e-13 8.11702e-15)
(-3.54138e-16 -3.18462e-15 2.3601e-16)
(-2.46142e-14 -3.88288e-14 1.09072e-14)
(-2.12111e-12 -3.34554e-12 9.39836e-13)
(-1.04211e-16 -2.80966e-15 1.24769e-16)
(-8.98253e-15 -2.42181e-13 1.07575e-14)
(-6.38785e-13 -1.72225e-11 7.65222e-13)
(-3.36522e-11 -9.07309e-10 4.03242e-11)
(-9.97565e-10 -2.68957e-08 1.19567e-09)
(-3.36541e-11 -9.07312e-10 4.03249e-11)
(-6.39203e-13 -1.72231e-11 7.65401e-13)
(-4.81974e-14 -3.04512e-13 2.8133e-14)
(-4.22559e-12 -6.71924e-12 1.87239e-12)
(-4.00697e-10 -6.36909e-10 1.77544e-10)
(-1.32128e-18 -3.55631e-17 1.57955e-18)
(-1.04414e-16 -2.81004e-15 1.24848e-16)
(-6.75219e-15 -1.81675e-13 8.07441e-15)
(-3.20334e-13 -8.61455e-12 3.83025e-13)
(-8.45631e-12 -2.27041e-10 1.01021e-11)
(-1.19589e-12 -9.64858e-12 7.02292e-13)
(-6.98115e-14 -2.66823e-13 3.31188e-14)
(-3.38134e-12 -5.37695e-12 1.49824e-12)
(-4.00683e-10 -6.36887e-10 1.77537e-10)
(-4.2217e-08 -6.71042e-08 1.87058e-08)
(-6.42922e-19 -9.92333e-19 2.4195e-19)
(-5.84577e-17 -8.60366e-17 2.18643e-17)
(-4.60666e-15 -6.44776e-15 1.71226e-15)
(-2.97026e-13 -3.94202e-13 1.09708e-13)
(-1.40459e-11 -1.76174e-11 5.15484e-12)
(-3.6916e-10 -4.35988e-10 1.34608e-10)
(-1.40062e-11 -1.65412e-11 5.10714e-12)
(-3.34558e-13 -4.11117e-13 1.25067e-13)
(-4.22999e-12 -6.72164e-12 1.87391e-12)
(-4.00694e-10 -6.36903e-10 1.77543e-10)
(-5.37332e-16 -1.4305e-14 6.42274e-16)
(-4.6289e-14 -1.23362e-12 5.53521e-14)
(-3.28989e-12 -8.77691e-11 3.93565e-12)
(-1.73216e-10 -4.62601e-09 2.07301e-10)
(-5.13171e-09 -1.37195e-07 6.14405e-09)
(-1.73216e-10 -4.62601e-09 2.07301e-10)
(-3.2899e-12 -8.77692e-11 3.93566e-12)
(-4.62905e-14 -1.23362e-12 5.53529e-14)
(-6.59048e-16 -1.44966e-14 6.96207e-16)
(-9.62084e-15 -1.52999e-14 4.267e-15)
(-4.602e-14 -1.24076e-12 5.50306e-14)
(-4.36306e-12 -1.17634e-10 5.21949e-12)
(-3.4472e-10 -9.29412e-09 4.12555e-10)
(-2.04283e-08 -5.50774e-07 2.44583e-08)
(-6.91939e-07 -1.86556e-05 8.28783e-07)
(-2.04283e-08 -5.50774e-07 2.44583e-08)
(-3.44721e-10 -9.29413e-09 4.12556e-10)
(-4.36326e-12 -1.17634e-10 5.21958e-12)
(-6.5168e-14 -1.2712e-12 6.35149e-14)
(-1.65116e-12 -2.63534e-12 7.31934e-13)
(-5.33954e-16 -1.43961e-14 6.38237e-16)
(-4.60221e-14 -1.24082e-12 5.50331e-14)
(-3.27264e-12 -8.82346e-11 3.91502e-12)
(-1.72398e-10 -4.64807e-09 2.06322e-10)
(-5.11014e-09 -1.37776e-07 6.11824e-09)
(-1.72401e-10 -4.64808e-09 2.06324e-10)
(-3.27293e-12 -8.8235e-11 3.91514e-12)
(-6.13446e-14 -1.26517e-12 6.1822e-14)
(-1.65119e-12 -2.6381e-12 7.32029e-13)
(-1.56529e-10 -2.48804e-10 6.93564e-11)
(-3.38304e-18 -9.11163e-17 4.03907e-18)
(-2.67316e-16 -7.19918e-15 3.19267e-16)
(-1.72838e-14 -4.65412e-13 2.06492e-14)
(-8.19748e-13 -2.2067e-11 9.79542e-13)
(-2.16243e-11 -5.81533e-10 2.58316e-11)
(-2.18749e-12 -2.36821e-11 1.47826e-12)
(-7.49696e-14 -5.33534e-13 4.16833e-14)
(-1.79794e-15 -9.08568e-15 8.92547e-16)
(-1.91583e-14 -3.0528e-14 8.48968e-15)
(-1.65077e-12 -2.62388e-12 7.31441e-13)
(-1.18755e-13 -3.16486e-12 1.41364e-13)
(-1.12509e-11 -3.00155e-10 1.34039e-11)
(-8.88277e-10 -2.37228e-08 1.05914e-09)
(-5.26017e-08 -1.40629e-06 6.27713e-08)
(-1.78042e-06 -4.76492e-05 2.12638e-06)
(-5.26017e-08 -1.40629e-06 6.27713e-08)
(-8.88278e-10 -2.37228e-08 1.05914e-09)
(-1.12509e-11 -3.00155e-10 1.34039e-11)
(-1.18756e-13 -3.16486e-12 1.41365e-13)
(-1.12685e-15 -2.94039e-14 1.32251e-15)
(-1.11914e-11 -3.01735e-10 1.33331e-11)
(-1.17867e-09 -3.17786e-08 1.4054e-09)
(-1.04743e-07 -2.82402e-06 1.24994e-07)
(-7.09216e-06 -0.000191214 8.4703e-06)
(-0.000280173 -0.00755384 0.000334892)
(-7.09216e-06 -0.000191214 8.4703e-06)
(-1.04743e-07 -2.82402e-06 1.24994e-07)
(-1.17867e-09 -3.17786e-08 1.4054e-09)
(-1.11915e-11 -3.01735e-10 1.33331e-11)
(-9.81991e-14 -2.5526e-12 1.14092e-13)
(-1.1807e-13 -3.18333e-12 1.4055e-13)
(-1.11918e-11 -3.01747e-10 1.33336e-11)
(-8.8408e-10 -2.3836e-08 1.05414e-09)
(-5.23807e-08 -1.41225e-06 6.25077e-08)
(-1.77387e-06 -4.78259e-05 2.11856e-06)
(-5.23807e-08 -1.41225e-06 6.25077e-08)
(-8.8408e-10 -2.3836e-08 1.05414e-09)
(-1.11919e-11 -3.01747e-10 1.33336e-11)
(-1.21813e-13 -3.18928e-12 1.42203e-13)
(-3.24023e-13 -5.42842e-13 1.43958e-13)
(-6.85134e-16 -1.8472e-14 8.14905e-16)
(-5.90407e-14 -1.59181e-12 7.02815e-14)
(-4.19754e-12 -1.13171e-10 5.00083e-12)
(-2.21075e-10 -5.96049e-09 2.636e-10)
(-6.55169e-09 -1.76642e-07 7.81836e-09)
(-2.21078e-10 -5.96049e-09 2.63601e-10)
(-4.19766e-12 -1.13171e-10 5.00086e-12)
(-5.90444e-14 -1.59182e-12 7.02827e-14)
(-7.32441e-16 -1.85473e-14 8.35787e-16)
(-3.75119e-15 -6.13847e-15 1.66183e-15)
)
;

boundaryField
{
    inlet
    {
        type            calculated;
        value           nonuniform 0();
    }
    outlet
    {
        type            calculated;
        value           nonuniform 0();
    }
    bottom
    {
        type            calculated;
        value           uniform (0 0 0);
    }
    top
    {
        type            symmetryPlane;
    }
    side1
    {
        type            symmetryPlane;
    }
    side2
    {
        type            symmetryPlane;
    }
    procBoundary3to2
    {
        type            processor;
        value           nonuniform List<vector> 
20
(
(-2.25237e-25 -1.14976e-24 1.08457e-25)
(-1.08781e-22 -7.34179e-23 3.62091e-23)
(-5.87298e-20 -7.77797e-23 1.82464e-20)
(-3.04102e-17 -3.96744e-20 9.44786e-18)
(-2.80237e-23 -7.4366e-22 3.35578e-23)
(-1.88367e-21 -5.07684e-20 2.25562e-21)
(-3.63121e-22 -7.50175e-22 1.37482e-22)
(-1.59963e-19 -2.60038e-22 4.97002e-20)
(-1.45737e-20 -3.87165e-19 1.74391e-20)
(-1.05514e-18 -2.84479e-17 1.26295e-18)
(-1.44922e-20 -3.90055e-19 1.73204e-20)
(-6.79225e-21 -1.02304e-20 2.54098e-21)
(-5.44368e-18 -1.44769e-16 6.50416e-18)
(-4.27159e-16 -1.15167e-14 5.10585e-16)
(-5.40651e-18 -1.45764e-16 6.45982e-18)
(-3.69783e-20 -9.95956e-19 4.41331e-20)
(-1.10308e-15 -2.93663e-14 1.31201e-15)
(-9.44557e-14 -2.54664e-12 1.12439e-13)
(-1.09613e-15 -2.95526e-14 1.30375e-15)
(-6.92521e-18 -1.86707e-16 8.23028e-18)
)
;
    }
    procBoundary3to4
    {
        type            processor;
        value           nonuniform List<vector> 
20
(
(-1.41118e-15 -2.22424e-15 6.25277e-16)
(-2.42222e-13 -3.85015e-13 1.07326e-13)
(-2.29644e-11 -3.65022e-11 1.01752e-11)
(-2.42222e-13 -3.85014e-13 1.07325e-13)
(-6.21535e-13 -9.80325e-13 2.75394e-13)
(-1.1741e-10 -1.86624e-10 5.20228e-11)
(-1.23698e-08 -1.9662e-08 5.48091e-09)
(-1.1741e-10 -1.86624e-10 5.20228e-11)
(-1.50811e-10 -2.38037e-10 6.68225e-11)
(-3.16654e-08 -5.03325e-08 1.40305e-08)
(-3.75317e-06 -5.9657e-06 1.66298e-06)
(-3.16654e-08 -5.03325e-08 1.40305e-08)
(-6.21535e-13 -9.80325e-13 2.75394e-13)
(-1.1741e-10 -1.86624e-10 5.20228e-11)
(-1.23698e-08 -1.9662e-08 5.48091e-09)
(-1.1741e-10 -1.86624e-10 5.20228e-11)
(-1.42049e-15 -2.47193e-15 6.34286e-16)
(-2.42953e-13 -4.04716e-13 1.07871e-13)
(-2.29644e-11 -3.65024e-11 1.01473e-11)
(-2.42222e-13 -3.85015e-13 1.07002e-13)
)
;
    }
    procBoundary3to11
    {
        type            processor;
        value           nonuniform List<vector> 
50
(
(-3.55688e-16 -4.66568e-19 1.10506e-16)
(-6.39595e-18 -2.22706e-19 1.99695e-18)
(-1.33415e-17 -1.56526e-17 4.85999e-18)
(-7.85541e-16 -9.27654e-16 2.8643e-16)
(-3.38631e-14 -3.99894e-14 1.23474e-14)
(-8.03304e-13 -9.48632e-13 2.92907e-13)
(-3.38632e-14 -3.99894e-14 1.23475e-14)
(-7.85545e-16 -9.27658e-16 2.86416e-16)
(-1.35975e-17 -1.62122e-17 4.39089e-18)
(-2.41131e-17 -3.85225e-17 -1.07688e-18)
(-2.56401e-18 -8.79583e-19 8.36672e-19)
(-6.77657e-17 -7.99854e-17 2.47075e-17)
(-5.35258e-15 -6.32093e-15 1.9517e-15)
(-3.46101e-13 -4.08715e-13 1.26198e-13)
(-1.64131e-11 -1.93824e-11 5.98468e-12)
(-4.32605e-10 -5.10869e-10 1.5774e-10)
(-1.64131e-11 -1.93824e-11 5.98469e-12)
(-3.46103e-13 -4.08717e-13 1.26199e-13)
(-5.47199e-15 -6.51067e-15 2.00461e-15)
(-9.55826e-15 -1.51641e-14 4.22998e-15)
(-1.38707e-16 -1.63796e-16 5.05762e-17)
(-1.37009e-14 -1.61796e-14 4.99573e-15)
(-1.18114e-12 -1.39483e-12 4.30677e-13)
(-8.40084e-11 -9.92068e-11 3.06319e-11)
(-4.42637e-09 -5.22715e-09 1.61398e-09)
(-1.31232e-07 -1.54973e-07 4.78508e-08)
(-4.42637e-09 -5.22715e-09 1.61398e-09)
(-8.40088e-11 -9.92071e-11 3.0632e-11)
(-1.20541e-12 -1.4334e-12 4.41433e-13)
(-2.11684e-12 -3.35891e-12 9.36903e-13)
(-7.5822e-19 -1.29213e-18 2.89238e-19)
(-6.88565e-17 -1.10303e-16 2.60406e-17)
(-5.41932e-15 -8.1199e-15 2.03147e-15)
(-3.4898e-13 -4.86309e-13 1.2964e-13)
(-1.64814e-11 -2.1223e-11 6.06635e-12)
(-4.32608e-10 -5.10946e-10 1.57744e-10)
(-1.64132e-11 -1.93842e-11 5.98477e-12)
(-3.46104e-13 -4.08747e-13 1.262e-13)
(-5.4707e-15 -6.50902e-15 2.00406e-15)
(-9.527e-15 -1.51143e-14 4.21616e-15)
(-2.88809e-18 -7.78091e-17 3.43059e-18)
(-2.2845e-16 -6.1545e-15 2.71575e-16)
(-1.47764e-14 -3.98045e-13 1.75789e-14)
(-7.00597e-13 -1.88686e-11 8.34022e-13)
(-1.84715e-11 -4.97143e-10 2.19965e-11)
(-1.50312e-12 -1.98165e-11 1.12584e-12)
(-4.86261e-14 -4.38017e-13 2.98839e-14)
(-1.01395e-15 -7.08583e-15 5.57161e-16)
(-1.64574e-17 -9.4105e-17 8.38953e-18)
(-2.34301e-17 -3.79695e-17 1.03546e-17)
)
;
    }
}


// ************************************************************************* //
