/*--------------------------------*- C++ -*----------------------------------*\
| =========                 |                                                 |
| \\      /  F ield         | OpenFOAM: The Open Source CFD Toolbox           |
|  \\    /   O peration     | Version:  2.4.0                                 |
|   \\  /    A nd           | Web:      www.OpenFOAM.org                      |
|    \\/     M anipulation  |                                                 |
\*---------------------------------------------------------------------------*/
FoamFile
{
    version     2.0;
    format      ascii;
    class       volScalarField;
    location    "0.04";
    object      alpha;
}
// * * * * * * * * * * * * * * * * * * * * * * * * * * * * * * * * * * * * * //

dimensions      [0 0 0 0 0 0 0];

internalField   nonuniform List<scalar> 
200
(
9.55247e-10
6.46745e-11
2.02267e-12
4.02614e-14
6.07266e-16
7.58256e-18
8.24881e-20
2.30058e-21
2.13525e-19
3.01019e-17
1.12634e-07
7.38871e-09
2.09258e-10
3.76957e-12
5.17964e-14
5.93476e-16
5.96422e-18
1.0914e-19
4.00369e-18
2.3733e-16
9.50733e-10
6.43595e-11
2.01192e-12
4.00275e-14
6.03426e-16
7.53396e-18
2.57533e-19
1.59996e-17
1.2633e-15
8.16213e-14
4.57149e-12
3.17463e-13
1.08012e-14
2.34712e-16
3.85044e-18
4.03142e-19
3.83966e-17
3.78961e-15
3.26429e-13
2.31982e-11
2.8955e-07
3.30729e-08
1.01339e-09
1.8723e-11
2.60268e-13
3.00149e-15
3.02849e-17
2.76398e-19
1.44344e-20
7.56148e-19
3.90393e-05
4.37802e-06
1.18728e-07
1.95538e-09
2.44851e-11
2.56751e-13
2.37449e-15
2.00414e-17
4.13495e-18
2.35758e-16
2.88334e-07
3.29314e-08
1.00857e-09
1.86244e-11
2.58764e-13
2.9826e-15
3.02533e-17
1.61864e-17
1.25701e-15
8.12511e-14
1.26321e-09
1.43262e-10
4.85629e-12
9.91262e-14
1.51136e-15
1.93281e-17
3.83967e-17
3.77081e-15
3.24948e-13
2.3103e-11
2.8955e-07
9.77228e-06
2.88599e-07
4.87152e-09
6.16771e-11
6.50749e-13
6.04215e-15
5.10011e-17
3.99829e-19
8.27075e-21
3.90393e-05
0.00153843
3.89271e-05
5.74673e-07
6.46414e-09
6.13512e-11
5.17593e-13
4.00284e-15
2.897e-17
1.6929e-18
2.88452e-07
9.73633e-06
2.87387e-07
4.84851e-09
6.13535e-11
6.46995e-13
6.00414e-15
5.07398e-17
6.88533e-18
4.14232e-16
2.92997e-08
3.68931e-08
1.23041e-09
2.32636e-11
3.26459e-13
3.78251e-15
3.84655e-17
1.88971e-17
1.48296e-15
9.85694e-14
9.5372e-10
2.82014e-08
9.51717e-10
1.80722e-11
2.54226e-13
2.9505e-15
2.98853e-17
2.73279e-19
2.30701e-21
3.87257e-23
1.1255e-07
3.80335e-06
1.12264e-07
1.89403e-09
2.39675e-11
2.52748e-13
2.34554e-15
1.97883e-17
1.55099e-19
6.16352e-21
3.68951e-08
2.92953e-08
9.70231e-10
1.83009e-11
2.56512e-13
2.96993e-15
3.0029e-17
2.74455e-19
2.05554e-20
1.15728e-18
9.73634e-06
2.87506e-07
4.85302e-09
6.14486e-11
6.48464e-13
6.02272e-15
5.08581e-17
4.48212e-19
3.70115e-18
2.32469e-16
1.77254e-12
4.65653e-11
1.76787e-12
3.73036e-14
5.77298e-16
7.31001e-18
8.02228e-20
7.90109e-22
7.14731e-24
1.14829e-25
1.86171e-10
5.4912e-09
1.85242e-10
3.51625e-12
4.94451e-14
5.73636e-16
5.80814e-18
5.30913e-20
4.48148e-22
1.53934e-23
1.8208e-10
5.15e-11
1.85963e-12
3.86089e-14
5.92666e-16
7.4672e-18
8.16639e-20
8.0273e-22
4.42587e-23
2.33961e-21
3.46171e-08
1.0108e-09
1.85437e-11
2.5757e-13
2.97193e-15
3.00107e-17
2.73958e-19
2.40469e-21
6.69934e-21
4.00916e-19
)
;

boundaryField
{
    inlet
    {
        type            zeroGradient;
    }
    outlet
    {
        type            zeroGradient;
    }
    bottom
    {
        type            fixedValue;
        value           uniform 0;
    }
    top
    {
        type            symmetryPlane;
    }
    side1
    {
        type            symmetryPlane;
    }
    side2
    {
        type            symmetryPlane;
    }
    procBoundary4to3
    {
        type            processor;
        value           nonuniform List<scalar> 
20
(
2.82479e-08
3.80884e-06
2.81292e-08
1.18717e-10
9.77228e-06
0.00153843
9.73633e-06
3.59477e-08
3.30729e-08
4.37802e-06
3.29359e-08
1.09221e-09
6.45901e-11
7.3831e-09
1.2947e-09
2.89283e-07
1.76432e-13
3.26706e-11
4.87108e-09
5.77516e-07
)
;
    }
    procBoundary4to5
    {
        type            processor;
        value           nonuniform List<scalar> 
20
(
4.09731e-15
1.02589e-14
3.86795e-12
1.22142e-09
4.37542e-17
1.01622e-14
3.85217e-12
1.21692e-09
3.4479e-19
8.39518e-17
2.18454e-14
5.02248e-12
1.42833e-21
3.16752e-19
6.55273e-17
1.16208e-14
3.92303e-24
7.89302e-22
1.38607e-19
1.98249e-17
)
;
    }
    procBoundary4to12
    {
        type            processor;
        value           nonuniform List<scalar> 
50
(
6.04877e-12
2.30057e-13
4.86973e-15
7.56649e-17
1.36373e-18
5.12074e-17
6.06355e-15
6.52863e-13
6.18593e-11
4.88448e-09
5.48899e-09
1.85468e-10
3.52848e-12
4.97528e-14
5.79447e-16
5.68098e-17
6.03392e-15
6.49931e-13
6.16066e-11
4.86651e-09
3.80335e-06
1.12365e-07
1.89787e-09
2.40484e-11
2.53999e-13
2.36164e-15
4.97219e-17
2.93924e-15
2.53326e-13
1.80143e-11
0.00153843
3.89271e-05
5.74673e-07
6.46414e-09
6.13512e-11
5.17593e-13
4.00292e-15
3.61896e-17
5.73373e-16
3.70883e-14
3.80889e-06
1.1245e-07
1.89755e-09
2.40169e-11
2.53321e-13
2.35134e-15
1.98415e-17
1.68341e-19
9.44054e-19
5.60453e-17
)
;
    }
}


// ************************************************************************* //
