/*--------------------------------*- C++ -*----------------------------------*\
| =========                 |                                                 |
| \\      /  F ield         | OpenFOAM: The Open Source CFD Toolbox           |
|  \\    /   O peration     | Version:  2.4.0                                 |
|   \\  /    A nd           | Web:      www.OpenFOAM.org                      |
|    \\/     M anipulation  |                                                 |
\*---------------------------------------------------------------------------*/
FoamFile
{
    version     2.0;
    format      ascii;
    class       volScalarField;
    location    "0.04";
    object      p;
}
// * * * * * * * * * * * * * * * * * * * * * * * * * * * * * * * * * * * * * //

dimensions      [1 -1 -2 0 0 0 0];

internalField   nonuniform List<scalar> 
200
(
104865
145852
147652
104176
68896.3
56228.5
51990.7
47643.4
43236.2
40371.6
51253.8
59932
45962.7
53722.9
49695
47981.8
45905.5
41884.6
37142.8
32473
44082.5
40416.8
44309.3
44796.1
42867.5
41484.1
39003.2
37239
31904.1
29203.9
45166.3
42660.1
41607.1
39718
39639
37718.4
37296.1
32567.1
33012.8
31795.1
26907
31930.7
9006.14
29298
25774.4
35162.1
37084.4
37047.5
35973.4
33985.8
27819.8
15117.2
17097.2
14595.2
27332.6
31808.6
34928
33211.7
31375.5
29194.4
30724
28940.5
26608.3
26974.3
27892.1
30641
31710
28677.7
26888.8
24654.8
32111
28808.8
26372.4
25068.7
23795.3
23675.3
21671.2
25715
23561.3
24715
33896.2
32160.2
17052.5
8314.85
18574.7
24270.8
27552.8
29047.6
29447.8
29325.9
31246.9
28184.6
24356.6
23653.4
25966.3
29475.7
29708.1
29968.3
29033.4
28490.7
32791.2
31084.2
29978.1
29300.1
29742.9
29435.7
28302.3
28016.8
28348.1
27612.2
33044.3
31365
29922.6
28818.1
27212.8
24988.6
26026.5
23789.6
24100.6
24875.3
34340.5
33934.3
32560.1
30328
30735.4
29609.8
28526.2
28736
28828
28537
32097.5
32683.7
31998.1
31615
31495.8
31328.3
30216.5
29426.2
28614.9
27760.3
34069
33294.8
32490.2
31866.6
31336.9
31399.4
29964.5
29522
28614.3
27006.2
34335.3
33481
32502.7
31617.5
30634.1
29603.8
28416.3
28024.5
27203.7
26256.7
37358.9
36456.6
35704.8
35214.3
34578.4
34242.5
33291.5
32618.3
32546.2
32685.4
38616.9
38126
36324.2
35406.3
34276.1
33366.3
32452.1
31495.4
30473.2
27876.2
38584.4
37042.6
35683.5
34721.2
33719.5
32562.6
31846.5
30770.1
29015.2
28156.8
37086.8
36040.7
34925.7
34270.4
33715.9
32706.7
31396.7
30356.3
29097.1
27430.8
)
;

boundaryField
{
    inlet
    {
        type            zeroGradient;
    }
    outlet
    {
        type            fixedValue;
        value           nonuniform 0();
    }
    bottom
    {
        type            zeroGradient;
    }
    top
    {
        type            symmetryPlane;
    }
    side1
    {
        type            symmetryPlane;
    }
    side2
    {
        type            symmetryPlane;
    }
    procBoundary4to3
    {
        type            processor;
        value           nonuniform List<scalar> 
20
(
69909.9
48447.4
43598.8
45290.8
36404.2
28659.1
33626.1
34724.2
32825.2
34035.1
34912.8
34630.8
34117
29561.9
34657.5
35387.3
37073.3
41060.2
41447.7
38122
)
;
    }
    procBoundary4to5
    {
        type            processor;
        value           nonuniform List<scalar> 
20
(
37065.8
28982.1
26464.7
31802.9
32348.2
27332.3
23265.3
22335.8
28741.8
27691.3
26153.8
24134.8
27939.7
26066
27210.2
25193.7
35170.4
25253
25045.3
28379
)
;
    }
    procBoundary4to12
    {
        type            processor;
        value           nonuniform List<scalar> 
50
(
40757
40291.6
36154.7
35698.9
34865.6
36584.6
36503.6
34512.8
33718.5
34104.5
26663.8
17610.9
20624.1
22447.3
26184.8
25780.3
27483.8
26035
26977.1
27536.5
31863.4
30203.6
29133.8
28569.3
27373.2
26071.1
23977.7
24677.2
25468.2
25358.8
33961.5
33012.2
31881.7
30384
29033.8
27008.4
26731
24330.6
25332.5
24793
36055.3
35331.2
34655.1
34019.7
33161.8
33897.1
31530.4
30208.8
28694.6
27773.7
)
;
    }
}


// ************************************************************************* //
