/*--------------------------------*- C++ -*----------------------------------*\
| =========                 |                                                 |
| \\      /  F ield         | OpenFOAM: The Open Source CFD Toolbox           |
|  \\    /   O peration     | Version:  2.4.0                                 |
|   \\  /    A nd           | Web:      www.OpenFOAM.org                      |
|    \\/     M anipulation  |                                                 |
\*---------------------------------------------------------------------------*/
FoamFile
{
    version     2.0;
    format      ascii;
    class       volVectorField;
    location    "0.04";
    object      Uc;
}
// * * * * * * * * * * * * * * * * * * * * * * * * * * * * * * * * * * * * * //

dimensions      [0 1 -1 0 0 0 0];

internalField   nonuniform List<vector> 
200
(
(-1.05875e-08 1.03127e-09 -8.23959e-09)
(4.58113e-10 -9.58036e-12 -4.43828e-10)
(2.1922e-11 -8.03001e-13 -1.3338e-11)
(4.86468e-13 -1.92428e-14 -2.62918e-13)
(7.67624e-15 -3.118e-16 -3.95421e-15)
(9.81355e-17 -4.03361e-18 -4.93379e-17)
(1.08302e-18 -4.4531e-20 -5.36583e-19)
(3.67452e-20 3.58242e-20 1.54088e-20)
(3.76822e-18 5.50814e-18 3.04571e-18)
(5.34661e-16 8.02422e-16 4.36472e-16)
(-1.22301e-06 1.20266e-07 -9.51466e-07)
(5.70555e-08 -1.43559e-09 -4.99868e-08)
(2.33122e-09 -8.83543e-11 -1.3711e-09)
(4.61793e-11 -1.86653e-12 -2.4531e-11)
(6.60206e-13 -2.73115e-14 -3.36549e-13)
(7.72218e-15 -3.23024e-16 -3.85575e-15)
(7.85604e-17 -3.30524e-18 -3.87536e-17)
(1.50174e-18 6.11201e-20 4.27817e-20)
(5.70825e-17 6.74964e-18 2.88701e-17)
(3.38898e-15 4.08213e-16 1.71498e-15)
(-1.05367e-08 1.03626e-09 -8.20003e-09)
(4.56069e-10 -9.61411e-12 -4.41637e-10)
(2.18087e-11 -8.07099e-13 -1.32667e-11)
(4.83682e-13 -1.93533e-14 -2.61385e-13)
(7.62817e-15 -3.13767e-16 -3.92916e-15)
(9.74937e-17 -4.0593e-18 -4.89944e-17)
(3.57472e-18 2.45957e-19 7.31327e-19)
(2.2807e-16 2.66688e-17 1.15296e-16)
(1.80323e-14 2.11766e-15 9.11302e-15)
(1.1666e-12 1.37583e-13 5.89333e-13)
(-4.98947e-11 4.99556e-12 -3.86308e-11)
(2.08358e-12 -3.38707e-14 -2.15095e-12)
(1.14244e-13 -4.09215e-15 -7.03663e-14)
(2.80196e-15 -1.10378e-16 -1.51599e-15)
(4.83345e-17 -1.96175e-18 -2.47834e-17)
(5.66825e-18 5.54473e-19 2.19375e-18)
(5.47302e-16 6.40024e-17 2.76702e-16)
(5.40903e-14 6.35238e-15 2.73363e-14)
(4.66557e-12 5.50236e-13 2.35692e-12)
(3.32015e-10 3.93207e-11 1.67655e-10)
(-3.13249e-06 3.05754e-07 -2.44517e-06)
(3.39411e-07 -1.18352e-08 -2.20753e-07)
(1.24982e-08 -5.0043e-10 -6.64025e-09)
(2.42284e-10 -9.97358e-12 -1.22251e-10)
(3.43611e-12 -1.42853e-13 -1.69812e-12)
(4.00405e-14 -1.67182e-15 -1.95828e-14)
(4.065e-16 -1.70062e-17 -1.97628e-16)
(3.71731e-18 -1.59034e-19 -1.80446e-18)
(-3.06631e-19 -1.99852e-19 -1.04355e-19)
(-1.68228e-17 -8.31503e-18 -3.50288e-18)
(-0.000410764 4.0431e-05 -0.000320421)
(4.68233e-05 -1.71184e-06 -2.89582e-05)
(1.48462e-06 -6.05993e-08 -7.75266e-07)
(2.54795e-08 -1.06483e-09 -1.27446e-08)
(3.24608e-10 -1.36892e-11 -1.59579e-10)
(3.43465e-12 -1.45489e-13 -1.67391e-12)
(3.1935e-14 -1.35617e-15 -1.54869e-14)
(2.67954e-16 -1.26259e-17 -1.30937e-16)
(-1.28462e-16 -8.42043e-17 -3.96796e-17)
(-7.74116e-15 -4.98598e-15 -2.29213e-15)
(-3.11905e-06 3.07077e-07 -2.43468e-06)
(3.38017e-07 -1.18821e-08 -2.198e-07)
(1.24396e-08 -5.02776e-10 -6.60856e-09)
(2.41018e-10 -1.0026e-11 -1.21606e-10)
(3.41634e-12 -1.43683e-13 -1.6883e-12)
(3.9789e-14 -1.68247e-15 -1.94595e-14)
(3.98009e-16 -2.08127e-17 -1.97976e-16)
(-5.18535e-16 -3.36569e-16 -1.56406e-16)
(-4.12773e-14 -2.65862e-14 -1.22222e-14)
(-2.6695e-12 -1.71915e-12 -7.90516e-13)
(-1.27005e-08 1.32074e-09 -9.7538e-09)
(1.42188e-09 -4.7013e-11 -9.24249e-10)
(5.92304e-11 -2.34736e-12 -3.10783e-11)
(1.27601e-12 -5.24677e-14 -6.35161e-13)
(1.98959e-14 -8.29838e-16 -9.70346e-15)
(2.41305e-16 -1.79943e-17 -1.25455e-16)
(-1.25046e-15 -8.07458e-16 -3.72382e-16)
(-1.23817e-13 -7.97508e-14 -3.66625e-14)
(-1.06761e-11 -6.8754e-12 -3.16151e-12)
(-7.59473e-10 -4.89025e-10 -2.24921e-10)
(3.93734e-06 -1.66242e-07 -1.89931e-06)
(0.000133681 -5.66998e-06 -6.40349e-05)
(3.94793e-06 -1.67272e-07 -1.8911e-06)
(6.66408e-08 -2.82057e-09 -3.19217e-08)
(8.43721e-10 -3.56729e-11 -4.04152e-10)
(8.90201e-12 -3.75984e-13 -4.26416e-12)
(8.26543e-14 -3.4873e-15 -3.95924e-14)
(6.97676e-16 -2.94049e-17 -3.34195e-16)
(5.46645e-18 -2.31449e-19 -2.61997e-18)
(-5.0411e-20 -5.79441e-20 -4.21741e-20)
(0.000531286 -2.26332e-05 -0.000256026)
(0.0210452 -0.000899232 -0.0100809)
(0.00053251 -2.27534e-05 -0.000255078)
(7.86134e-06 -3.35904e-07 -3.76566e-06)
(8.84273e-08 -3.77837e-09 -4.23576e-08)
(8.39265e-10 -3.58606e-11 -4.02017e-10)
(7.0805e-12 -3.0254e-13 -3.39164e-12)
(5.47575e-14 -2.33972e-15 -2.62294e-14)
(3.95286e-16 -1.73636e-17 -1.89879e-16)
(-3.43021e-17 -2.48604e-17 -1.22613e-17)
(3.92241e-06 -1.6695e-07 -1.88972e-06)
(0.00013319 -5.69099e-06 -6.37993e-05)
(3.93135e-06 -1.67981e-07 -1.88316e-06)
(6.6326e-08 -2.83402e-09 -3.17708e-08)
(8.39296e-10 -3.58619e-11 -4.02031e-10)
(8.85067e-12 -3.78177e-13 -4.23956e-12)
(8.21346e-14 -3.50952e-15 -3.93433e-14)
(6.90138e-16 -3.13735e-17 -3.32735e-16)
(-1.97358e-16 -1.2987e-16 -6.21458e-17)
(-1.192e-14 -7.77135e-15 -3.51962e-15)
(4.5039e-07 -1.80729e-09 4.30002e-07)
(5.0667e-07 -2.10487e-08 -2.20457e-07)
(1.68738e-08 -7.09414e-10 -7.65378e-09)
(3.18884e-10 -1.34606e-11 -1.46641e-10)
(4.47383e-12 -1.89228e-13 -2.07144e-12)
(5.18282e-14 -2.19486e-15 -2.40956e-14)
(5.17521e-16 -2.648e-17 -2.46361e-16)
(-6.0718e-16 -3.89474e-16 -1.82105e-16)
(-4.83165e-14 -3.08686e-14 -1.42233e-14)
(-3.11654e-12 -2.01061e-12 -9.21672e-13)
(1.30016e-08 -5.49101e-10 -6.24937e-09)
(3.85785e-07 -1.63455e-08 -1.84795e-07)
(1.30192e-08 -5.51035e-10 -6.23631e-09)
(2.47222e-10 -1.04526e-11 -1.18422e-10)
(3.47772e-12 -1.46884e-13 -1.66586e-12)
(4.03618e-14 -1.70292e-15 -1.93337e-14)
(4.0882e-16 -1.72305e-17 -1.95829e-16)
(3.73835e-18 -1.57394e-19 -1.79071e-18)
(3.15491e-20 -1.33094e-21 -1.51168e-20)
(2.6917e-24 -1.86282e-22 -1.84921e-22)
(1.53481e-06 -6.54205e-08 -7.36085e-07)
(5.20286e-05 -2.22311e-06 -2.49222e-05)
(1.53574e-06 -6.56198e-08 -7.35633e-07)
(2.59097e-08 -1.10708e-09 -1.2411e-08)
(3.27867e-10 -1.40093e-11 -1.57051e-10)
(3.45751e-12 -1.47734e-13 -1.65618e-12)
(3.20862e-14 -1.371e-15 -1.53696e-14)
(2.70698e-16 -1.15665e-17 -1.29667e-16)
(2.11871e-18 -9.18712e-20 -1.01638e-18)
(-7.9414e-20 -6.71075e-20 -3.561e-20)
(4.74479e-07 -1.72586e-09 4.59721e-07)
(4.00523e-07 -1.64564e-08 -1.67504e-07)
(1.32798e-08 -5.54482e-10 -5.88162e-09)
(2.50586e-10 -1.05199e-11 -1.13095e-10)
(3.51297e-12 -1.47882e-13 -1.60042e-12)
(4.06784e-14 -1.71521e-15 -1.86362e-14)
(4.11332e-16 -1.73629e-17 -1.8915e-16)
(3.74822e-18 -1.63647e-19 -1.7342e-18)
(-5.06363e-19 -3.42675e-19 -1.70949e-19)
(-2.89204e-17 -1.91315e-17 -8.49832e-18)
(0.000146186 -3.71862e-07 0.000147578)
(4.44176e-06 -1.13636e-08 4.48165e-06)
(7.6554e-08 -1.972e-10 7.71916e-08)
(9.84813e-10 -2.55715e-12 9.92264e-10)
(1.0523e-11 -2.75729e-14 1.05933e-11)
(9.87185e-14 -2.61306e-16 9.92811e-14)
(8.4047e-16 -2.26182e-18 8.44347e-16)
(5.00098e-18 -1.0431e-18 6.18297e-18)
(-1.19067e-16 -7.53809e-17 -3.47265e-17)
(-7.02394e-15 -4.53803e-15 -2.07012e-15)
(2.41193e-11 -1.02046e-12 -1.15741e-11)
(6.36995e-10 -2.69607e-11 -3.04374e-10)
(2.41838e-11 -1.0225e-12 -1.15525e-11)
(5.10299e-13 -2.15529e-14 -2.43701e-13)
(7.89722e-15 -3.33194e-16 -3.7704e-15)
(9.99982e-17 -4.21461e-18 -4.77294e-17)
(1.09742e-18 -4.62039e-20 -5.23657e-19)
(1.08084e-20 -4.5458e-22 -5.15604e-21)
(9.77495e-23 -4.11566e-24 -4.66271e-23)
(3.60573e-25 -4.16318e-25 -5.18818e-25)
(2.52376e-09 -1.08198e-10 -1.21112e-09)
(7.51175e-08 -3.20966e-09 -3.59029e-08)
(2.53404e-09 -1.08276e-10 -1.21083e-09)
(4.81011e-11 -2.05529e-12 -2.29776e-11)
(6.76393e-13 -2.89013e-14 -3.2302e-13)
(7.84716e-15 -3.35297e-16 -3.74648e-15)
(7.94534e-17 -3.39493e-18 -3.79232e-17)
(7.26271e-19 -3.10325e-20 -3.46554e-19)
(6.12419e-21 -2.64393e-22 -2.92446e-21)
(-1.25449e-22 -1.30337e-22 -7.43603e-23)
(-6.85417e-10 -3.64252e-11 1.06803e-09)
(6.72677e-10 -2.75802e-11 -2.45131e-10)
(2.51994e-11 -1.03447e-12 -1.01683e-11)
(5.27108e-13 -2.17596e-14 -2.20975e-13)
(8.11191e-15 -3.36228e-16 -3.46967e-15)
(1.02319e-16 -4.2531e-18 -4.43066e-17)
(1.11963e-18 -4.6637e-20 -4.8886e-19)
(1.09857e-20 -4.68973e-22 -4.83686e-21)
(-9.24121e-22 -6.49507e-22 -3.37027e-22)
(-5.0546e-20 -3.40537e-20 -1.47375e-20)
(1.91173e-07 -4.4045e-09 3.81246e-07)
(1.26635e-08 -6.95354e-11 1.45246e-08)
(2.69402e-10 -1.00436e-12 2.85777e-10)
(3.96451e-12 -1.26319e-14 4.09665e-12)
(4.71597e-14 -1.39528e-16 4.81449e-14)
(4.85389e-16 -1.38255e-18 4.9217e-16)
(4.49003e-18 -1.25598e-20 4.53277e-18)
(3.51017e-20 -2.04173e-21 3.75797e-20)
(-2.1183e-19 -1.32936e-19 -6.0895e-20)
(-1.15138e-17 -7.45273e-18 -3.37046e-18)
)
;

boundaryField
{
    inlet
    {
        type            calculated;
        value           nonuniform 0();
    }
    outlet
    {
        type            calculated;
        value           nonuniform 0();
    }
    bottom
    {
        type            calculated;
        value           uniform (0 0 0);
    }
    top
    {
        type            symmetryPlane;
    }
    side1
    {
        type            symmetryPlane;
    }
    side2
    {
        type            symmetryPlane;
    }
    procBoundary4to3
    {
        type            processor;
        value           nonuniform List<vector> 
20
(
(-3.5982e-07 3.5045e-08 -2.78995e-07)
(-4.85176e-05 4.76547e-06 -3.76193e-05)
(-3.58308e-07 3.51935e-08 -2.77822e-07)
(-1.51212e-09 1.48526e-10 -1.17245e-09)
(-0.000124481 1.21367e-05 -9.65192e-05)
(-0.0195972 0.00192486 -0.0151951)
(-0.000124023 1.21817e-05 -9.61641e-05)
(-4.57851e-07 4.49732e-08 -3.55e-07)
(-2.92587e-07 3.21668e-08 -3.10457e-07)
(-4.05865e-05 4.42271e-06 -4.13307e-05)
(-2.9134e-07 3.23015e-08 -3.09082e-07)
(1.14543e-08 1.00505e-10 1.15505e-08)
(-3.45103e-10 4.71835e-11 -5.77664e-10)
(-4.39253e-08 5.75546e-09 -6.65482e-08)
(1.25716e-08 3.67298e-12 1.29895e-08)
(3.61905e-06 -1.03513e-08 3.70893e-06)
(-3.28035e-12 8.53058e-15 -1.51312e-12)
(-8.95434e-10 -6.25661e-12 -2.81559e-10)
(-1.82523e-07 -2.47461e-09 -4.19531e-08)
(-2.16183e-05 -2.93206e-07 -4.96801e-06)
)
;
    }
    procBoundary4to5
    {
        type            processor;
        value           nonuniform List<vector> 
20
(
(7.29835e-14 1.10938e-13 5.98429e-14)
(1.46796e-13 1.86176e-14 7.4452e-14)
(5.53535e-11 6.55587e-12 2.79542e-11)
(1.75031e-08 2.08168e-09 8.83584e-09)
(-4.17424e-16 4.86079e-17 6.48202e-17)
(-3.33812e-13 -2.1498e-13 -9.88539e-14)
(-1.26619e-10 -8.15344e-11 -3.75022e-11)
(-4.00236e-08 -2.57689e-08 -1.18558e-08)
(-2.23187e-18 -1.21056e-18 -2.01037e-19)
(-1.37279e-15 -1.02057e-15 -4.16395e-16)
(-4.99751e-13 -3.43258e-13 -1.49616e-13)
(-1.46589e-10 -9.61918e-11 -4.35749e-11)
(-4.67161e-21 -5.04025e-21 -6.45031e-22)
(-2.9869e-18 -2.65054e-18 -9.35175e-19)
(-1.07295e-15 -7.96768e-16 -3.25331e-16)
(-2.97293e-13 -1.99724e-13 -8.87156e-14)
(-5.14671e-24 -1.24501e-23 -6.38898e-25)
(-4.50636e-21 -4.98702e-21 -1.47111e-21)
(-1.65683e-18 -1.34865e-18 -5.08593e-19)
(-4.41328e-16 -3.04661e-16 -1.31916e-16)
)
;
    }
    procBoundary4to12
    {
        type            processor;
        value           nonuniform List<vector> 
50
(
(1.08761e-10 -2.59368e-13 1.09838e-10)
(4.1408e-12 -1.05949e-14 4.16538e-12)
(8.7618e-14 -2.36966e-16 8.77357e-14)
(1.36026e-15 -3.88201e-18 1.35489e-15)
(2.29988e-17 6.13055e-19 2.00018e-17)
(7.29885e-16 8.53363e-17 3.69126e-16)
(8.65392e-14 1.01637e-14 4.37377e-14)
(9.33029e-12 1.10044e-12 4.71377e-12)
(8.8525e-10 1.04847e-10 4.47065e-10)
(6.9995e-08 8.3247e-09 3.53347e-08)
(9.90083e-08 -2.47701e-10 9.99608e-08)
(3.3455e-09 -8.63725e-12 3.36991e-09)
(6.36195e-11 -1.6941e-13 6.39061e-11)
(8.965e-13 -2.46918e-15 8.97602e-13)
(1.04129e-14 -3.82232e-17 1.03957e-14)
(-1.56506e-15 -1.07676e-15 -3.89572e-16)
(-1.98094e-13 -1.27599e-13 -5.86566e-14)
(-2.13502e-11 -1.37503e-11 -6.32279e-12)
(-2.02498e-09 -1.30396e-09 -5.99765e-10)
(-1.60054e-07 -1.0305e-07 -4.74116e-08)
(6.86827e-05 -1.74707e-07 6.93366e-05)
(2.02881e-06 -5.21615e-09 2.04607e-06)
(3.42581e-08 -8.92495e-11 3.45062e-08)
(4.33956e-10 -1.1483e-12 4.3644e-10)
(4.58173e-12 -1.23421e-14 4.59988e-12)
(4.2568e-14 -1.2277e-16 4.26574e-14)
(-6.20519e-16 -6.31912e-16 6.9176e-17)
(-9.68363e-14 -6.23211e-14 -2.86936e-14)
(-8.34915e-12 -5.37273e-12 -2.47426e-12)
(-5.93885e-10 -3.82143e-10 -1.76009e-10)
(0.0277822 -7.06682e-05 0.0280468)
(0.000703008 -1.7882e-06 0.000709701)
(1.03785e-05 -2.63993e-08 1.04773e-05)
(1.16742e-07 -2.96951e-10 1.17854e-07)
(1.10801e-09 -2.81838e-12 1.11855e-09)
(9.34776e-12 -2.37775e-14 9.43677e-12)
(7.2289e-14 -1.85568e-16 7.29791e-14)
(2.8333e-16 -1.55038e-16 4.56883e-16)
(-1.89197e-14 -1.21647e-14 -5.60223e-15)
(-1.22366e-12 -7.87239e-13 -3.62716e-13)
(6.87796e-05 -1.74984e-07 6.92361e-05)
(2.03074e-06 -5.16585e-09 2.04335e-06)
(3.42689e-08 -8.71712e-11 3.44673e-08)
(4.33739e-10 -1.10331e-12 4.3607e-10)
(4.57494e-12 -1.16373e-14 4.59763e-12)
(4.2465e-14 -1.08018e-16 4.2658e-14)
(3.58329e-16 -9.14701e-19 3.59812e-16)
(2.37967e-18 -2.804e-19 2.69231e-18)
(-3.12095e-17 -2.00186e-17 -9.18993e-18)
(-1.85102e-15 -1.18998e-15 -5.47133e-16)
)
;
    }
}


// ************************************************************************* //
