/*--------------------------------*- C++ -*----------------------------------*\
| =========                 |                                                 |
| \\      /  F ield         | OpenFOAM: The Open Source CFD Toolbox           |
|  \\    /   O peration     | Version:  2.4.0                                 |
|   \\  /    A nd           | Web:      www.OpenFOAM.org                      |
|    \\/     M anipulation  |                                                 |
\*---------------------------------------------------------------------------*/
FoamFile
{
    version     2.0;
    format      ascii;
    class       volScalarField;
    location    "0.15";
    object      p;
}
// * * * * * * * * * * * * * * * * * * * * * * * * * * * * * * * * * * * * * //

dimensions      [1 -1 -2 0 0 0 0];

internalField   nonuniform List<scalar> 
200
(
-1.05401e+30
-1.07424e+30
-1.00809e+30
-9.25128e+29
-8.55275e+29
-7.86866e+29
-6.96769e+29
-6.00143e+29
-4.88679e+29
-3.76085e+29
-7.30711e+29
-7.34166e+29
-7.08832e+29
-6.83725e+29
-6.41684e+29
-5.91422e+29
-5.42568e+29
-4.74119e+29
-3.98354e+29
-3.27748e+29
-5.85893e+29
-5.74949e+29
-5.65121e+29
-5.33181e+29
-5.00233e+29
-4.57315e+29
-4.18623e+29
-3.76944e+29
-3.24127e+29
-2.75025e+29
-4.84592e+29
-4.74404e+29
-4.61993e+29
-4.38311e+29
-4.1188e+29
-3.75776e+29
-3.38387e+29
-3.05529e+29
-2.69918e+29
-2.35078e+29
-1.31854e+30
-1.41128e+30
-1.42827e+30
-1.31057e+30
-1.12798e+30
-9.76751e+29
-8.12629e+29
-6.81919e+29
-5.71838e+29
-4.66031e+29
-8.3371e+29
-8.47189e+29
-8.3119e+29
-7.97955e+29
-7.37978e+29
-6.53142e+29
-5.69301e+29
-4.98473e+29
-4.20437e+29
-3.47518e+29
-6.13827e+29
-6.03829e+29
-5.84633e+29
-5.51901e+29
-5.12308e+29
-4.66187e+29
-4.19424e+29
-3.70338e+29
-3.23228e+29
-2.77756e+29
-4.87017e+29
-4.7529e+29
-4.54045e+29
-4.31659e+29
-4.02232e+29
-3.7214e+29
-3.38905e+29
-3.0344e+29
-2.70802e+29
-2.40079e+29
-1.31516e+30
-1.386e+30
-1.3995e+30
-1.35171e+30
-1.24718e+30
-1.09222e+30
-9.18192e+29
-7.61155e+29
-6.37538e+29
-5.25832e+29
-8.08537e+29
-8.11114e+29
-8.03876e+29
-7.66537e+29
-7.07953e+29
-6.23766e+29
-5.37014e+29
-4.52224e+29
-3.79855e+29
-3.19803e+29
-5.67477e+29
-5.56563e+29
-5.35463e+29
-5.0739e+29
-4.66755e+29
-4.20221e+29
-3.69623e+29
-3.22082e+29
-2.76355e+29
-2.40237e+29
-4.55433e+29
-4.3801e+29
-4.17437e+29
-3.91268e+29
-3.61575e+29
-3.27108e+29
-2.93065e+29
-2.56371e+29
-2.30501e+29
-2.09858e+29
-7.56679e+29
-7.1464e+29
-8.34267e+29
-8.71976e+29
-8.09121e+29
-7.14429e+29
-6.22126e+29
-5.03437e+29
-3.85521e+29
-3.31692e+29
-5.23173e+29
-4.99222e+29
-4.84127e+29
-4.65582e+29
-4.22902e+29
-3.80283e+29
-3.29709e+29
-2.76023e+29
-2.34498e+29
-1.97855e+29
-4.25287e+29
-3.99665e+29
-3.73901e+29
-3.46313e+29
-3.1389e+29
-2.7964e+29
-2.42595e+29
-2.05819e+29
-1.7412e+29
-1.50408e+29
-3.70827e+29
-3.48718e+29
-3.24116e+29
-2.98174e+29
-2.71565e+29
-2.44099e+29
-2.16701e+29
-1.90019e+29
-1.65647e+29
-1.47679e+29
-1.27853e+29
-1.36922e+29
-2.1232e+29
-3.0718e+29
-3.33931e+29
-2.84241e+29
-2.49269e+29
-1.94058e+29
-1.20189e+29
-1.52166e+28
-2.67493e+29
-2.51713e+29
-2.45821e+29
-2.40226e+29
-2.26001e+29
-1.92642e+29
-1.68409e+29
-1.36942e+29
-1.02343e+29
-6.11138e+28
-3.04247e+29
-2.74451e+29
-2.51978e+29
-2.31473e+29
-2.06951e+29
-1.77975e+29
-1.47794e+29
-1.21724e+29
-9.17837e+28
-7.74891e+28
-3.12942e+29
-2.85981e+29
-2.58199e+29
-2.34853e+29
-2.12794e+29
-1.92311e+29
-1.74319e+29
-1.52489e+29
-1.30396e+29
-1.19023e+29
)
;

boundaryField
{
    inlet
    {
        type            zeroGradient;
    }
    outlet
    {
        type            fixedValue;
        value           nonuniform 0();
    }
    bottom
    {
        type            zeroGradient;
    }
    top
    {
        type            symmetryPlane;
    }
    side1
    {
        type            symmetryPlane;
    }
    side2
    {
        type            symmetryPlane;
    }
    procBoundary21to13
    {
        type            processor;
        value           nonuniform List<scalar> 
50
(
-1.72231e+30
-1.5998e+30
-1.59229e+30
-1.45484e+30
-1.28066e+30
-1.15823e+30
-9.62082e+29
-7.20265e+29
-5.22434e+29
-3.73385e+29
-2.51675e+30
-2.87734e+30
-3.32535e+30
-2.69757e+30
-2.17299e+30
-1.75007e+30
-1.43067e+30
-1.14464e+30
-8.87796e+29
-6.99033e+29
-2.6231e+30
-3.05969e+30
-3.42975e+30
-3.34079e+30
-2.72369e+30
-2.28643e+30
-1.9047e+30
-1.54826e+30
-1.22521e+30
-9.92077e+29
-1.73716e+30
-1.90356e+30
-2.00691e+30
-2.07012e+30
-1.65407e+30
-1.43227e+30
-1.32207e+30
-1.16773e+30
-9.07154e+29
-6.66603e+29
2.71605e+29
4.72009e+28
-4.09371e+29
-7.2521e+29
-7.15895e+29
-4.91803e+29
-3.26532e+29
-3.80717e+29
-4.65197e+29
-3.53508e+29
)
;
    }
    procBoundary21to20
    {
        type            processor;
        value           nonuniform List<scalar> 
20
(
-1.01548e+30
-7.19738e+29
-5.78962e+29
-4.8793e+29
-1.21755e+30
-8.04133e+29
-6.14052e+29
-5.00097e+29
-1.21464e+30
-7.87027e+29
-5.73049e+29
-4.67115e+29
-7.4053e+29
-5.46453e+29
-4.48524e+29
-3.91134e+29
-1.45491e+29
-2.92556e+29
-3.3707e+29
-3.3798e+29
)
;
    }
    procBoundary21to22
    {
        type            processor;
        value           nonuniform List<scalar> 
20
(
-2.85599e+29
-2.62379e+29
-2.30607e+29
-2.00602e+29
-3.69395e+29
-2.85579e+29
-2.3625e+29
-2.09837e+29
-4.34391e+29
-2.71133e+29
-2.1137e+29
-1.93153e+29
-2.95771e+29
-1.66559e+29
-1.33115e+29
-1.33229e+29
-1.63529e+28
-3.74936e+28
-7.45415e+28
-1.17517e+29
)
;
    }
    procBoundary21to29
    {
        type            processor;
        value           nonuniform List<scalar> 
50
(
-4.17444e+29
-4.04163e+29
-3.86625e+29
-3.67926e+29
-3.44998e+29
-3.20654e+29
-2.93575e+29
-2.66625e+29
-2.38872e+29
-2.09246e+29
-4.23438e+29
-4.07219e+29
-3.89292e+29
-3.68038e+29
-3.44984e+29
-3.19387e+29
-2.92928e+29
-2.66346e+29
-2.39185e+29
-2.10964e+29
-3.94694e+29
-3.79186e+29
-3.60598e+29
-3.40229e+29
-3.16363e+29
-2.91663e+29
-2.65222e+29
-2.40428e+29
-2.16616e+29
-1.92233e+29
-3.40258e+29
-3.21204e+29
-3.02395e+29
-2.80596e+29
-2.5839e+29
-2.35258e+29
-2.10221e+29
-1.93429e+29
-1.83714e+29
-1.71621e+29
-3.0679e+29
-2.86738e+29
-2.64518e+29
-2.41567e+29
-2.21271e+29
-2.02272e+29
-1.89488e+29
-1.79961e+29
-1.76791e+29
-1.84903e+29
)
;
    }
}


// ************************************************************************* //
