/*--------------------------------*- C++ -*----------------------------------*\
| =========                 |                                                 |
| \\      /  F ield         | OpenFOAM: The Open Source CFD Toolbox           |
|  \\    /   O peration     | Version:  2.4.0                                 |
|   \\  /    A nd           | Web:      www.OpenFOAM.org                      |
|    \\/     M anipulation  |                                                 |
\*---------------------------------------------------------------------------*/
FoamFile
{
    version     2.0;
    format      ascii;
    class       volScalarField;
    location    "0.06";
    object      p;
}
// * * * * * * * * * * * * * * * * * * * * * * * * * * * * * * * * * * * * * //

dimensions      [1 -1 -2 0 0 0 0];

internalField   nonuniform List<scalar> 
200
(
1.02191e+12
1.01821e+12
1.00406e+12
9.75239e+11
9.1571e+11
8.47724e+11
7.7851e+11
6.86985e+11
6.24313e+11
5.38901e+11
1.02501e+12
1.09706e+12
1.12433e+12
1.13196e+12
1.15928e+12
8.84733e+11
6.06706e+11
6.01661e+11
4.03609e+11
3.87849e+11
1.11108e+12
1.22417e+12
1.16414e+12
1.13815e+12
9.74554e+11
5.07017e+11
5.75805e+11
3.95885e+11
3.9591e+11
5.67516e+10
1.0589e+12
1.08878e+12
1.09746e+12
1.03557e+12
1.05432e+12
5.93872e+11
1.57698e+11
8.54022e+10
-1.09791e+11
-2.94141e+10
8.83813e+11
9.14806e+11
9.19579e+11
8.6856e+11
8.16119e+11
6.85259e+11
4.98093e+11
4.60524e+11
3.81267e+11
4.08514e+11
9.23231e+11
9.40628e+11
9.00767e+11
8.75319e+11
8.16114e+11
6.41598e+11
3.8379e+11
2.15704e+11
2.16841e+11
6.97983e+10
9.61182e+11
9.86319e+11
1.05479e+12
1.04577e+12
9.66428e+11
4.75687e+11
1.43574e+11
2.33713e+11
2.6457e+11
-3.52505e+10
8.87617e+11
9.17845e+11
9.75791e+11
9.71375e+11
8.95833e+11
7.22599e+11
5.12667e+11
3.25026e+11
2.1509e+11
-1.88566e+11
9.7947e+11
9.4497e+11
9.38512e+11
9.29778e+11
8.96089e+11
8.63925e+11
7.81816e+11
6.23182e+11
5.70932e+11
5.19457e+11
9.77212e+11
9.53896e+11
9.29492e+11
8.65395e+11
7.97527e+11
7.24959e+11
5.60737e+11
4.61558e+11
4.00602e+11
3.64949e+11
9.89918e+11
8.17201e+11
8.98957e+11
8.44224e+11
7.36312e+11
6.01335e+11
3.87025e+11
9.37529e+10
1.45129e+11
1.78509e+11
7.64995e+11
8.34808e+11
9.38056e+11
8.2913e+11
7.13992e+11
6.31281e+11
4.12436e+11
3.68271e+11
1.89401e+11
-2.70612e+11
1.01401e+12
9.77544e+11
9.48447e+11
9.25721e+11
9.0988e+11
9.05236e+11
8.54809e+11
7.64376e+11
6.47732e+11
5.68354e+11
9.86602e+11
9.47017e+11
9.15762e+11
8.85645e+11
8.52747e+11
8.06166e+11
7.18824e+11
5.25057e+11
4.15219e+11
4.05028e+11
9.21539e+11
9.05391e+11
8.29149e+11
8.04066e+11
7.5644e+11
6.8428e+11
4.85628e+11
3.43249e+11
2.51084e+11
2.44297e+11
8.98343e+11
7.86654e+11
8.21718e+11
8.48868e+11
7.3879e+11
5.93401e+11
4.49543e+11
3.64732e+11
2.77621e+11
1.08936e+11
1.01631e+12
9.94253e+11
9.70586e+11
9.42053e+11
8.96384e+11
8.58947e+11
8.80322e+11
8.34125e+11
7.21719e+11
6.78459e+11
1.01342e+12
9.82633e+11
9.55462e+11
9.22055e+11
9.03215e+11
8.92823e+11
9.02746e+11
8.03923e+11
6.75262e+11
6.08018e+11
9.81449e+11
9.50321e+11
9.08644e+11
8.68417e+11
8.34186e+11
7.97649e+11
7.45755e+11
6.63424e+11
5.78996e+11
5.04697e+11
9.62389e+11
9.21763e+11
8.73498e+11
8.40058e+11
7.99467e+11
7.46368e+11
6.73426e+11
5.94738e+11
5.32828e+11
4.40661e+11
)
;

boundaryField
{
    inlet
    {
        type            zeroGradient;
    }
    outlet
    {
        type            fixedValue;
        value           nonuniform 0();
    }
    bottom
    {
        type            zeroGradient;
    }
    top
    {
        type            symmetryPlane;
    }
    side1
    {
        type            symmetryPlane;
    }
    side2
    {
        type            symmetryPlane;
    }
    procBoundary22to14
    {
        type            processor;
        value           nonuniform List<scalar> 
50
(
1.02266e+12
9.97624e+11
9.8319e+11
9.59201e+11
9.23028e+11
8.591e+11
8.20102e+11
8.64943e+11
8.37127e+11
7.80814e+11
9.81136e+11
9.32317e+11
9.27634e+11
9.04363e+11
8.02862e+11
7.84738e+11
6.06822e+11
6.27771e+11
6.29331e+11
6.07585e+11
1.01388e+12
9.80254e+11
9.43904e+11
9.26672e+11
9.1562e+11
8.85225e+11
8.79111e+11
7.39429e+11
6.89431e+11
6.86403e+11
1.0306e+12
1.01241e+12
9.8859e+11
9.59572e+11
9.22948e+11
8.95537e+11
8.63335e+11
8.16099e+11
7.46098e+11
7.12144e+11
1.03001e+12
1.01305e+12
9.9265e+11
9.67382e+11
9.34011e+11
8.96195e+11
8.47026e+11
8.43082e+11
8.13086e+11
7.7049e+11
)
;
    }
    procBoundary22to21
    {
        type            processor;
        value           nonuniform List<scalar> 
20
(
1.0151e+12
1.01175e+12
1.02348e+12
1.02835e+12
9.57474e+11
8.88542e+11
9.70507e+11
9.0506e+11
1.02755e+12
1.00201e+12
9.84337e+11
9.19465e+11
1.0344e+12
1.0328e+12
9.80788e+11
9.74842e+11
1.03543e+12
1.02951e+12
1.01824e+12
9.88241e+11
)
;
    }
    procBoundary22to23
    {
        type            processor;
        value           nonuniform List<scalar> 
20
(
5.51384e+11
1.03585e+11
-1.3661e+11
-5.11674e+11
1.94654e+11
-3.96576e+09
-5.12083e+11
-6.92071e+11
5.72781e+11
2.21591e+11
-1.28323e+11
-4.8943e+11
5.5176e+11
4.11032e+11
1.72041e+11
-5.57431e+10
6.65591e+11
5.53733e+11
4.54811e+11
3.62567e+11
)
;
    }
    procBoundary22to30
    {
        type            processor;
        value           nonuniform List<scalar> 
50
(
1.01835e+12
1.02765e+12
1.02116e+12
9.70593e+11
8.67371e+11
6.62882e+11
3.42578e+11
1.83418e+10
2.4241e+11
3.88906e+10
8.73085e+11
9.74055e+11
1.013e+12
9.57237e+11
8.45386e+11
7.8822e+11
7.29032e+11
6.74176e+11
2.77243e+11
-6.87967e+10
8.68809e+11
1.04315e+12
9.91754e+11
9.37378e+11
8.34659e+11
7.15699e+11
6.50725e+11
5.58204e+11
4.23251e+11
6.93528e+10
8.76565e+11
8.7973e+11
9.72589e+11
8.85111e+11
7.56406e+11
5.94035e+11
4.94605e+11
3.97846e+11
2.84769e+11
1.25593e+11
9.48182e+11
9.14492e+11
8.86548e+11
8.5147e+11
7.85493e+11
7.19193e+11
6.41155e+11
6.0119e+11
5.22075e+11
4.41172e+11
)
;
    }
}


// ************************************************************************* //
