/*--------------------------------*- C++ -*----------------------------------*\
| =========                 |                                                 |
| \\      /  F ield         | OpenFOAM: The Open Source CFD Toolbox           |
|  \\    /   O peration     | Version:  2.4.0                                 |
|   \\  /    A nd           | Web:      www.OpenFOAM.org                      |
|    \\/     M anipulation  |                                                 |
\*---------------------------------------------------------------------------*/
FoamFile
{
    version     2.0;
    format      ascii;
    class       volSymmTensorField;
    location    "0.14";
    object      B;
}
// * * * * * * * * * * * * * * * * * * * * * * * * * * * * * * * * * * * * * //

dimensions      [0 2 -2 0 0 0 0];

internalField   nonuniform List<symmTensor> 
200
(
(4.3541e+27 -1.04889e+26 -2.06717e+26 4.75717e+27 6.85762e+25 4.55141e+27)
(6.89587e+26 5.39485e+25 -2.33944e+26 1.49758e+27 -1.83217e+26 8.35558e+26)
(1.32196e+27 -1.57371e+27 -2.48222e+27 1.22353e+27 -7.92508e+26 1.1595e+27)
(2.44322e+27 1.54007e+26 -3.63961e+26 2.2865e+27 -3.76118e+26 1.64302e+27)
(5.17024e+26 7.66517e+26 1.152e+26 -3.79233e+26 -3.77929e+26 -1.87549e+25)
(2.0883e+27 -2.82353e+26 -2.40734e+26 1.66279e+27 -1.22891e+26 1.35852e+27)
(1.65605e+27 1.71111e+26 2.3381e+26 9.09641e+26 -2.01627e+26 1.25861e+27)
(3.5504e+26 -2.2324e+25 -1.21137e+26 2.69825e+26 -6.0613e+24 3.67508e+26)
(1.55143e+26 -3.61254e+25 -4.63356e+25 1.15425e+24 -2.95489e+25 1.25993e+26)
(1.97235e+26 -3.18844e+25 -4.79058e+25 1.69286e+26 1.97647e+25 2.42083e+26)
(-1.71908e+25 3.58444e+25 -4.00085e+25 8.03385e+25 -3.03067e+24 9.26259e+25)
(1.97446e+27 -5.10513e+25 -1.16808e+26 2.13598e+27 4.16087e+25 2.04429e+27)
(2.40341e+26 1.05655e+26 -1.53917e+26 4.35766e+26 -5.60671e+25 2.62736e+26)
(1.706e+27 2.1408e+26 -4.79467e+26 3.14627e+27 4.48393e+26 2.1387e+27)
(2.17362e+26 2.6523e+25 -1.84786e+26 1.3459e+26 -3.39729e+25 -1.47183e+25)
(7.12043e+26 1.08245e+26 -3.42563e+25 6.7768e+26 5.44885e+25 6.09074e+26)
(3.5303e+26 -3.40641e+25 -1.40443e+26 3.87891e+26 -4.6363e+24 2.65852e+26)
(1.45419e+26 3.85003e+25 -3.28921e+25 4.46031e+25 -2.45015e+25 9.09612e+25)
(3.27858e+26 -4.00161e+25 -1.01372e+26 2.62962e+26 2.37586e+25 2.1825e+26)
(1.87781e+26 8.9755e+24 -7.38187e+24 4.51429e+25 -1.37602e+25 9.36288e+25)
(9.43663e+25 -1.71078e+25 -1.28672e+25 4.59351e+25 3.17478e+22 8.72095e+25)
(1.10108e+25 2.45562e+25 -3.55579e+25 8.35139e+25 -2.28115e+25 5.57053e+25)
(3.54109e+26 -1.05362e+25 -5.90607e+25 4.29038e+26 2.81747e+25 4.02609e+26)
(2.59442e+25 4.18164e+25 -8.68177e+25 1.35656e+26 -1.95897e+25 4.94913e+25)
(3.46585e+26 7.31448e+25 -1.08599e+26 4.08796e+26 6.85045e+25 3.78672e+26)
(1.50179e+26 2.6198e+25 -7.90061e+25 2.13725e+26 2.33774e+24 1.1601e+26)
(1.65531e+26 6.27733e+25 -2.84125e+25 1.58724e+26 2.83745e+25 1.67087e+26)
(1.92822e+26 1.14359e+25 -8.21771e+25 2.22255e+26 4.11687e+25 1.44966e+26)
(1.28699e+26 1.55677e+25 -3.06937e+25 8.38533e+25 5.15008e+24 1.10194e+26)
(3.36246e+26 -2.54474e+25 -1.08674e+26 3.11715e+26 2.81723e+25 2.64936e+26)
(7.76101e+25 3.74663e+25 2.30465e+25 2.93825e+26 -5.37164e+25 1.2368e+26)
(3.53642e+25 -1.62061e+25 -2.58453e+25 6.38614e+25 -1.05754e+25 5.55091e+25)
(1.7451e+26 7.79349e+25 -4.66226e+25 4.0605e+26 -5.49592e+25 2.17652e+26)
(1.5311e+26 -1.84927e+25 -5.48207e+25 2.46056e+26 1.63267e+25 1.94867e+26)
(2.04403e+26 6.87065e+25 -2.92287e+25 4.37888e+26 -4.68545e+25 2.4528e+26)
(1.17216e+26 5.85703e+24 -4.96662e+25 1.96623e+26 2.45553e+25 1.74201e+26)
(1.77672e+26 2.99346e+25 -8.74298e+25 2.98094e+26 -2.83382e+25 1.72882e+26)
(1.23039e+26 3.04271e+24 -6.09525e+25 1.13244e+26 1.20024e+25 1.18463e+26)
(2.8653e+26 2.43126e+25 -1.22753e+26 2.97318e+26 -3.17476e+25 1.96071e+26)
(1.34689e+26 5.34425e+24 -5.23598e+25 7.26267e+25 5.36188e+24 5.52972e+25)
(1.73914e+27 -7.09184e+24 1.17208e+25 1.85849e+27 -2.77905e+25 1.76207e+27)
(5.16891e+26 -5.59573e+25 -2.26848e+25 5.51212e+26 3.6712e+25 6.13717e+26)
(1.22468e+27 2.05416e+26 1.12169e+26 2.40317e+27 -1.89644e+26 1.69562e+27)
(9.22772e+26 1.1023e+26 1.94744e+26 1.10051e+27 4.70946e+26 1.78037e+27)
(1.78844e+27 2.39015e+26 -1.33232e+25 2.12457e+27 -1.43748e+26 1.96278e+27)
(3.65374e+26 4.56753e+25 5.98152e+25 2.73338e+26 4.00498e+25 5.35906e+26)
(4.18485e+26 2.4582e+25 -8.13757e+25 3.56347e+26 -4.14394e+25 4.33704e+26)
(2.94722e+26 1.04887e+25 1.34247e+25 1.45754e+26 -3.83839e+24 2.43793e+26)
(3.41547e+26 6.92449e+25 -4.16995e+25 2.69823e+26 -4.11805e+25 3.38486e+26)
(1.46963e+26 -2.37165e+25 -1.21119e+25 -1.4023e+25 -1.73221e+25 1.02234e+26)
(6.6607e+25 -3.7892e+25 -2.50011e+24 6.6459e+25 -1.8441e+25 6.39302e+25)
(1.42047e+26 -1.54561e+25 4.61927e+24 1.97328e+26 -1.48942e+25 1.60289e+26)
(4.73992e+26 -2.64157e+24 -1.70221e+24 4.92927e+26 8.51831e+24 4.92695e+26)
(2.28335e+26 1.78967e+25 -1.59073e+24 3.11241e+26 -2.30331e+25 2.82572e+26)
(2.85517e+26 5.0094e+25 -7.80463e+24 3.13843e+26 8.05794e+25 4.4502e+26)
(1.01088e+26 4.90075e+25 -6.18309e+24 8.37503e+25 -3.30356e+25 1.21823e+26)
(1.96689e+26 5.92545e+25 2.86047e+25 1.24561e+26 3.1833e+25 2.49187e+26)
(1.3278e+26 4.07307e+25 -3.17302e+24 1.3655e+26 -2.92151e+25 1.76334e+26)
(2.19232e+26 3.13241e+25 -1.12225e+25 1.39457e+26 -4.64388e+23 2.15788e+26)
(2.36176e+26 2.31102e+25 -5.23923e+24 1.53275e+26 -3.24192e+25 2.27012e+26)
(8.24527e+25 -1.73209e+23 -3.83689e+25 1.24065e+26 -1.56744e+25 1.12636e+26)
(3.26963e+25 -1.2554e+25 -1.41977e+25 1.4593e+25 5.35301e+24 2.79726e+25)
(6.01141e+25 4.97125e+24 -8.85611e+24 1.09189e+26 -2.47084e+25 6.87362e+25)
(1.33374e+25 -1.75932e+24 -4.17455e+24 2.15658e+25 1.47673e+25 3.29585e+25)
(9.59531e+25 2.40952e+25 -1.01083e+24 1.39199e+26 -1.45909e+25 1.10736e+26)
(1.11661e+26 6.77823e+24 -2.38399e+24 1.02248e+26 5.69425e+24 1.14502e+26)
(5.97803e+25 1.4313e+25 1.44833e+24 7.01726e+25 -1.21676e+25 5.76726e+25)
(3.4357e+25 1.74835e+25 -7.29774e+24 -4.96206e+24 -3.19278e+24 2.69934e+25)
(6.08495e+25 1.19469e+25 -1.30817e+24 5.12425e+25 -1.35859e+25 5.17513e+25)
(7.38178e+25 1.59993e+25 -8.46029e+24 5.61916e+25 -4.95033e+24 6.9927e+25)
(1.92329e+26 -3.89083e+25 -1.60243e+25 1.55155e+26 6.84217e+24 1.66648e+26)
(1.13604e+26 1.51276e+25 -1.14371e+25 1.82319e+26 -6.6421e+24 1.25694e+26)
(1.15716e+25 1.23493e+25 -2.95154e+25 3.67596e+25 1.03053e+25 1.82321e+25)
(8.83265e+25 3.97974e+25 -3.25557e+24 1.88962e+26 -1.11981e+25 9.62535e+25)
(3.8452e+25 -1.97693e+25 -9.89673e+24 5.38755e+25 6.778e+24 3.82398e+25)
(1.13938e+26 1.92743e+25 1.03094e+25 2.06635e+26 -7.24545e+24 1.18333e+26)
(3.15075e+25 1.26636e+25 -2.18189e+25 3.54916e+25 6.49555e+24 2.44924e+25)
(7.82011e+25 9.31276e+24 2.41316e+24 9.1412e+25 -5.98566e+24 6.45845e+25)
(2.95161e+25 7.68963e+24 -1.15198e+25 3.69002e+25 1.57056e+24 3.07466e+25)
(3.99175e+25 1.39412e+24 -5.00309e+24 3.38735e+25 -1.01194e+25 2.79175e+25)
(3.85453e+26 -6.83426e+25 -4.9557e+25 1.79082e+26 2.37826e+25 2.42519e+26)
(1.53717e+27 1.2525e+26 -3.93149e+25 2.91251e+27 -1.19358e+26 1.85993e+27)
(1.75585e+26 -5.78754e+25 6.69846e+24 1.1072e+26 4.31846e+25 2.38995e+26)
(1.6618e+27 3.30771e+26 5.32423e+25 2.46877e+27 -2.86507e+26 1.57645e+27)
(1.57789e+26 -9.06198e+25 7.22984e+25 1.9654e+26 -6.32868e+24 3.03308e+26)
(1.32572e+27 2.70652e+26 6.464e+25 1.6452e+27 -1.76714e+26 1.27602e+27)
(8.82884e+25 -3.72984e+25 2.10947e+25 7.87407e+25 -1.86109e+25 1.32747e+26)
(5.85034e+26 1.18351e+26 -3.30308e+24 6.57479e+26 -9.34757e+25 4.75415e+26)
(7.42549e+25 -4.38269e+25 1.77887e+25 6.55611e+24 -2.97744e+25 7.0638e+25)
(3.37323e+26 3.76151e+25 2.61317e+25 2.70351e+26 -3.14831e+25 2.61664e+26)
(5.36913e+26 -2.08327e+23 -4.46844e+24 6.39833e+26 3.58284e+24 5.69568e+26)
(-1.16548e+25 -4.672e+25 -1.11591e+25 3.41066e+25 -1.05021e+25 3.09294e+25)
(6.64423e+26 4.58741e+25 -2.54479e+23 9.05679e+26 9.74496e+23 7.06894e+26)
(-2.36841e+23 -9.76639e+24 1.30297e+24 4.70611e+24 2.97424e+24 1.34465e+25)
(5.58926e+26 5.8326e+25 5.6025e+24 7.03782e+26 -8.82375e+24 5.802e+26)
(8.44036e+23 -2.17441e+24 7.3097e+23 6.29835e+23 -5.81887e+23 5.5856e+24)
(2.16819e+26 5.03092e+25 9.19764e+24 2.30282e+26 -2.21729e+25 2.01205e+26)
(1.04402e+25 2.06815e+24 3.84109e+24 -4.82756e+24 -2.1691e+24 2.57332e+24)
(9.76797e+25 2.12257e+25 6.78114e+24 7.99346e+25 -1.17315e+25 8.10889e+25)
(5.19506e+25 -7.97655e+24 -3.29416e+24 6.07521e+24 -1.19662e+25 2.92071e+25)
(8.1455e+25 -1.43963e+25 -3.50936e+24 1.32249e+26 -1.42487e+25 8.55018e+25)
(9.80423e+24 4.41757e+24 -5.342e+24 3.27611e+25 -6.01493e+24 2.61535e+25)
(3.97401e+24 1.66404e+24 -4.18649e+24 2.74929e+25 -1.90735e+24 1.53832e+25)
(5.08189e+25 1.76087e+25 -1.4632e+24 8.07044e+25 -8.41736e+24 7.45293e+25)
(-2.11703e+24 5.14879e+24 -1.17275e+24 -1.65441e+24 2.24275e+24 -1.96106e+24)
(5.30341e+25 1.47223e+25 -1.03574e+24 4.86954e+25 -1.30989e+25 6.27404e+25)
(1.13229e+25 6.39705e+24 -3.7486e+24 7.1084e+24 3.74369e+22 1.01189e+25)
(6.41629e+25 1.48001e+25 7.25864e+24 4.45841e+25 -1.4158e+25 7.05137e+25)
(1.89433e+25 5.24564e+24 -3.4238e+24 3.35263e+24 -2.74236e+24 1.07585e+25)
(7.12762e+25 7.2086e+24 7.17679e+24 4.24526e+25 -1.19115e+25 7.87576e+25)
(6.09878e+25 -3.43704e+24 -2.11483e+25 6.15295e+25 -1.19078e+25 8.13193e+25)
(3.65288e+25 1.8003e+24 -9.47973e+24 4.76245e+25 6.47253e+24 3.85809e+25)
(4.15957e+25 7.64102e+24 -1.13256e+25 5.56309e+25 -1.02666e+25 7.72048e+25)
(6.564e+24 2.11045e+24 -9.97806e+24 1.0374e+25 6.65334e+24 1.42944e+25)
(4.31973e+25 2.87922e+24 -3.88958e+24 5.4194e+25 -1.16856e+25 7.69831e+25)
(3.13577e+25 7.15462e+24 -1.36019e+25 2.75213e+25 1.10987e+25 3.42319e+25)
(4.42465e+25 6.51099e+24 3.50287e+24 4.29693e+25 -1.16499e+25 6.73682e+25)
(3.64715e+25 1.13208e+25 -1.28806e+25 2.23041e+25 9.28441e+24 4.65938e+25)
(7.47485e+25 -5.36584e+24 5.83841e+24 5.42384e+25 -1.69135e+25 9.23626e+25)
(2.94095e+25 8.59178e+24 -6.72922e+24 2.16736e+25 5.887e+24 4.86752e+25)
(3.39835e+26 3.87766e+25 7.108e+25 6.80101e+26 3.5773e+25 5.43982e+26)
(2.57799e+26 -9.61824e+25 -6.47441e+25 6.48135e+25 -6.51396e+24 1.49784e+26)
(6.43359e+26 7.19733e+25 6.63767e+25 1.17083e+27 -1.41455e+25 8.1727e+26)
(1.00378e+26 -4.71828e+25 -4.69529e+24 1.10222e+26 -2.57212e+25 1.35504e+26)
(8.22188e+26 1.61718e+26 1.0151e+26 1.15434e+27 -5.40888e+25 8.08132e+26)
(3.74032e+25 -4.98829e+25 -4.9448e+24 8.95526e+25 -4.3386e+25 8.9287e+25)
(9.11763e+26 1.38e+26 3.58579e+25 9.92121e+26 -6.96668e+25 7.87593e+26)
(2.41866e+25 -2.18335e+25 -7.26271e+24 4.56925e+25 -3.03963e+25 5.28429e+25)
(3.57199e+26 4.16006e+25 1.93502e+25 3.16117e+26 -2.89816e+25 2.77819e+26)
(1.01497e+26 -4.77948e+25 -1.8389e+23 4.23694e+25 -4.45483e+25 7.32247e+25)
(1.75807e+26 -3.55328e+25 -4.68087e+24 1.92096e+26 -5.09331e+24 1.66814e+26)
(9.61904e+25 -8.2399e+23 -1.27484e+25 2.3484e+26 2.01446e+25 1.55464e+26)
(3.61276e+25 -3.27636e+25 -1.21488e+23 4.71221e+25 -9.89709e+24 4.45496e+25)
(3.84972e+26 5.78648e+25 1.58358e+25 5.35376e+26 1.65736e+25 4.10904e+26)
(1.44887e+25 -1.46041e+25 4.11208e+23 3.18968e+25 -1.03834e+25 2.96278e+25)
(3.17144e+26 5.08358e+25 1.80181e+25 3.75323e+26 -2.36671e+24 3.08153e+26)
(8.80613e+24 -4.66123e+24 1.63723e+24 1.57649e+25 -9.01097e+24 1.47728e+25)
(1.15032e+26 2.1885e+25 6.28638e+24 1.14589e+26 -4.25042e+24 9.79271e+25)
(3.6147e+25 -6.62075e+24 3.06853e+24 1.81492e+25 -1.44137e+25 2.31528e+25)
(3.54961e+25 4.29589e+24 5.13056e+24 2.18599e+25 -3.02009e+24 2.28212e+25)
(-1.95353e+24 -2.77396e+24 -1.34511e+24 3.67377e+24 1.69659e+24 2.98407e+23)
(1.87522e+25 -7.72715e+24 -9.34022e+23 5.38015e+25 -4.32432e+24 3.25619e+25)
(3.54204e+25 3.73767e+24 7.64775e+22 4.82794e+25 3.5392e+24 4.08408e+25)
(4.80013e+24 -3.61412e+24 2.54255e+24 2.62717e+25 -4.09001e+24 1.50544e+25)
(1.6103e+25 6.52447e+24 2.68909e+24 2.23952e+25 3.97469e+24 1.90412e+25)
(3.08175e+24 9.86699e+23 8.46688e+23 7.91856e+24 -1.51336e+24 4.97829e+24)
(1.69989e+25 6.02491e+24 7.47204e+23 1.62217e+25 1.36485e+24 1.90941e+25)
(7.02501e+24 6.9575e+23 7.21903e+23 2.82194e+24 -2.50121e+24 5.61645e+24)
(1.73787e+25 2.11916e+24 1.71263e+24 5.74685e+24 7.82862e+23 1.43358e+25)
(1.88721e+25 -8.38551e+23 1.63058e+23 6.17506e+24 -5.82948e+24 1.2431e+25)
(9.59411e+24 -9.32475e+23 1.83343e+23 2.7147e+25 1.90953e+22 1.58213e+25)
(-3.48056e+23 1.37428e+22 -4.06506e+23 3.34318e+24 7.43398e+23 4.78933e+24)
(8.8448e+23 1.0789e+24 8.71701e+23 1.30233e+25 1.85055e+24 9.4023e+24)
(5.04566e+24 -1.5694e+24 4.42638e+23 7.58588e+24 -6.06725e+22 1.21574e+25)
(7.98049e+24 3.37473e+24 -3.02116e+23 1.27268e+25 2.44267e+24 1.27357e+25)
(7.1499e+24 3.16368e+23 -5.75291e+23 5.76352e+24 -4.85577e+23 1.35895e+25)
(1.10175e+25 3.15248e+24 -1.40135e+24 4.96914e+24 2.96475e+24 1.48919e+25)
(1.85085e+25 -1.88625e+24 5.39386e+23 1.20427e+25 -1.3707e+24 2.26775e+25)
(1.9329e+25 4.85823e+24 -2.22298e+24 1.26846e+25 2.9483e+24 2.56425e+25)
(1.66049e+25 -3.00666e+23 -1.6194e+24 6.75021e+24 -1.59823e+24 1.94772e+25)
(1.42126e+26 -1.63723e+25 -8.36673e+22 1.21519e+26 -7.67584e+24 1.18329e+26)
(3.65154e+26 8.62292e+25 -7.19856e+24 5.10115e+26 1.73542e+25 4.71815e+26)
(4.30137e+25 -4.8383e+24 -1.14742e+25 4.98678e+25 -3.46195e+24 4.75047e+25)
(1.47724e+26 2.0513e+25 2.67129e+25 2.27003e+26 2.20238e+25 1.87533e+26)
(2.15067e+25 -4.59487e+24 -8.08275e+24 3.11423e+25 -4.06336e+24 2.60424e+25)
(1.82544e+26 2.14455e+25 2.56147e+25 2.28232e+26 8.41658e+24 1.8008e+26)
(1.4307e+25 -1.24789e+24 -3.79522e+24 2.22548e+25 -4.99906e+24 1.37995e+25)
(1.19887e+26 1.55161e+25 1.1991e+25 1.37052e+26 -3.28122e+24 1.05032e+26)
(3.28369e+25 1.28898e+24 -5.52872e+24 1.78157e+25 -1.3314e+25 1.45942e+25)
(7.51665e+25 1.39403e+25 7.48732e+24 5.50023e+25 -1.39414e+25 4.83993e+25)
(7.45082e+26 4.41889e+25 -1.69195e+25 8.34173e+26 -4.56548e+24 7.92059e+26)
(5.43139e+24 -4.05072e+24 -5.11441e+24 2.20799e+25 1.55328e+24 1.94076e+25)
(3.31555e+25 3.75553e+24 1.82746e+24 5.33607e+25 2.08869e+24 5.16816e+25)
(-9.81139e+23 -3.57751e+23 -2.85217e+24 1.11921e+25 -5.542e+23 1.04362e+25)
(2.8169e+25 5.49181e+24 4.17037e+24 4.20995e+25 4.49047e+23 4.00577e+25)
(2.92406e+23 6.38017e+23 -1.45168e+23 4.99896e+24 -1.59161e+24 4.99272e+24)
(1.82761e+25 4.7434e+24 2.30614e+24 2.23754e+25 -2.53338e+24 2.07503e+25)
(6.24046e+24 1.20516e+24 7.90605e+23 4.20472e+24 -2.64212e+24 6.25493e+24)
(1.58904e+25 2.48123e+24 2.13018e+24 1.02073e+25 -4.32534e+24 1.1573e+25)
(1.09631e+25 -1.71664e+24 2.60232e+23 3.35368e+24 -4.39791e+24 6.7729e+24)
(1.66868e+24 -6.46532e+24 -3.13639e+24 2.2173e+25 5.51264e+23 2.30763e+25)
(6.10286e+24 1.34341e+24 2.33875e+23 1.30993e+25 -5.97704e+23 1.27184e+25)
(3.80891e+24 -8.00716e+23 4.2659e+21 1.72389e+25 1.33936e+24 1.78627e+25)
(2.54799e+24 1.19402e+24 6.69323e+23 7.6231e+24 -3.7232e+23 8.5664e+24)
(2.35664e+24 5.32496e+23 8.36076e+23 7.86529e+24 4.42243e+23 8.55148e+24)
(3.04742e+24 1.40311e+24 1.0817e+23 4.4889e+24 -3.10916e+23 5.00398e+24)
(1.97985e+24 4.35188e+23 1.13117e+24 2.72983e+24 -1.69033e+23 3.82362e+24)
(3.57855e+24 1.0735e+24 8.2482e+23 1.09269e+24 -7.62647e+23 3.00074e+24)
(2.33605e+24 5.4319e+23 5.37711e+23 1.49232e+24 -4.74881e+23 2.00221e+24)
(3.97144e+24 1.80745e+24 -4.90289e+23 2.21644e+24 -7.40658e+23 2.50923e+24)
(1.02389e+25 8.46518e+23 1.08122e+24 2.3791e+25 -1.53683e+24 1.68381e+25)
(9.72164e+24 -1.50443e+24 2.71915e+24 3.28442e+25 2.9057e+24 2.40736e+25)
(8.01055e+24 -1.091e+24 1.5368e+23 1.95707e+25 -2.1967e+24 1.34263e+25)
(1.13451e+25 1.90611e+24 1.87443e+24 2.64613e+25 3.45038e+24 1.82947e+25)
(4.87886e+24 -3.89538e+23 -6.63841e+23 1.09709e+25 -1.59815e+24 6.33541e+24)
(7.31784e+24 1.59406e+24 2.26608e+24 1.57291e+25 2.78061e+24 9.87872e+24)
(4.62902e+24 -7.78933e+23 9.92002e+22 6.72966e+24 -1.52789e+24 4.3047e+24)
(9.96544e+24 2.09547e+24 1.13613e+24 1.33488e+25 2.09124e+24 9.3432e+24)
(5.15927e+24 9.24985e+22 -9.16312e+23 5.10345e+24 -1.67197e+24 2.87016e+24)
(1.04967e+25 8.03968e+23 1.33675e+24 7.65963e+24 2.72557e+24 6.40303e+24)
)
;

boundaryField
{
    inlet
    {
        type            calculated;
        value           nonuniform 0();
    }
    outlet
    {
        type            calculated;
        value           nonuniform 0();
    }
    bottom
    {
        type            calculated;
        value           nonuniform List<symmTensor> 
40
(
(-1.62413e+12 -1.01056e+12 -3.09016e+12 2.25926e+12 7.2093e+11 2.27686e+11)
(-7.24367e+11 2.91746e+11 -4.16412e+11 6.94463e+10 -2.39851e+11 4.83861e+11)
(2.46726e+11 -2.8144e+11 -4.85454e+11 -5.50014e+11 1.25425e+11 4.17601e+11)
(-3.59876e+11 1.69477e+11 1.90295e+11 6.18163e+11 -1.01932e+12 1.47742e+11)
(-1.01692e+12 1.72334e+11 -1.56353e+12 1.56415e+12 -2.04692e+12 -2.65697e+12)
(-7.19837e+11 -6.3771e+11 -2.14391e+12 1.29782e+12 6.93046e+11 5.52171e+11)
(-3.72898e+11 1.96405e+11 -2.61333e+11 2.06996e+11 -6.09054e+11 2.32646e+11)
(-1.41602e+11 -1.58111e+11 -5.31629e+11 1.36423e+11 3.73112e+11 2.28873e+11)
(-2.36179e+11 -1.32409e+12 -3.52705e+12 -3.18999e+11 -7.80815e+11 -2.84707e+11)
(-5.51069e+11 5.71909e+11 -1.19274e+12 5.06764e+11 -1.44701e+12 -2.01763e+12)
(-6.13193e+11 -1.50637e+11 -1.29772e+12 4.58079e+11 5.91327e+11 5.07903e+11)
(-3.91233e+11 3.70708e+11 -1.60797e+11 7.1012e+11 -1.092e+12 2.12585e+11)
(1.14817e+12 4.59903e+11 -1.82244e+12 6.80165e+11 -3.49977e+12 -5.82288e+12)
(-9.97866e+11 4.30088e+11 -1.80183e+12 1.89564e+12 1.1709e+12 -3.73674e+11)
(-4.65702e+11 2.74351e+11 -7.97895e+11 2.541e+11 -9.25738e+11 -7.39191e+11)
(-3.92933e+11 -1.70989e+11 -9.37104e+11 4.6647e+11 6.74017e+11 2.71986e+11)
(3.03391e+11 1.13103e+12 -5.83449e+11 -1.01908e+12 -2.82039e+11 -1.07533e+12)
(2.48259e+11 1.05314e+11 -1.44274e+12 -8.04018e+10 -1.22262e+12 -2.80289e+12)
(-1.5502e+11 4.59457e+11 -1.32501e+12 2.35754e+11 6.8099e+11 2.14915e+11)
(-5.07142e+11 3.94196e+11 -2.52118e+11 8.32459e+11 -1.25395e+12 -1.24956e+11)
(1.40579e+12 -7.93845e+11 -1.17663e+12 2.09455e+11 -1.46632e+12 -3.42381e+12)
(5.2496e+11 7.55172e+11 -9.06309e+11 2.8523e+11 5.88722e+11 -3.6536e+11)
(-1.3256e+11 2.07036e+11 -8.78423e+11 3.69628e+11 -7.78544e+11 -1.05161e+12)
(-4.1245e+11 5.49367e+10 -1.12438e+12 3.3236e+11 9.2679e+11 7.00754e+11)
(1.43781e+12 7.13463e+11 9.27948e+11 -1.67442e+12 -9.89072e+11 -7.25484e+11)
(1.10841e+11 -2.07374e+11 -1.31408e+12 3.23063e+11 -6.68533e+11 -1.73725e+12)
(-4.14102e+10 6.53769e+11 -1.0126e+12 -1.12303e+11 6.17238e+11 -3.71751e+10)
(-1.94429e+11 1.7742e+11 -7.39285e+11 5.19306e+11 -9.66792e+11 -1.38268e+11)
(2.7854e+11 -8.47826e+10 -3.34917e+11 -4.50914e+10 1.23849e+11 5.57215e+11)
(3.67186e+11 3.53768e+11 -9.22995e+11 -5.59179e+11 -2.2335e+10 -8.55653e+11)
(7.52037e+10 7.43066e+10 -8.06864e+11 2.66452e+11 -1.10493e+11 -3.75873e+11)
(1.57405e+10 3.08622e+10 -1.36444e+12 -8.36102e+10 6.83733e+11 5.56056e+11)
(2.79749e+11 -3.00987e+11 -4.17768e+11 -1.00325e+12 -1.76051e+11 -5.17933e+11)
(4.09859e+11 -2.23715e+11 -8.49408e+11 4.70479e+10 -7.6766e+10 -8.86516e+11)
(2.71151e+11 2.38045e+11 -1.17049e+12 -4.1458e+11 4.6668e+11 -4.56637e+10)
(1.8997e+11 1.31651e+11 -8.85308e+11 2.48384e+11 -7.699e+11 -4.47938e+11)
(5.11804e+10 -2.50225e+11 -1.68417e+11 -1.68166e+11 3.06874e+11 7.38729e+11)
(6.08214e+11 7.22304e+10 -5.42049e+11 -5.39666e+11 6.71798e+10 -7.57993e+11)
(2.67475e+11 -1.75929e+11 -9.19774e+11 9.78805e+10 -4.77891e+10 -2.12362e+11)
(3.53229e+11 4.2543e+10 -1.05594e+12 -1.40815e+11 4.26563e+11 2.17088e+10)
)
;
    }
    top
    {
        type            symmetryPlane;
    }
    side1
    {
        type            symmetryPlane;
    }
    side2
    {
        type            symmetryPlane;
    }
    procBoundary29to21
    {
        type            processor;
        value           nonuniform List<symmTensor> 
50
(
(-5.53976e+26 -2.9321e+26 -3.37851e+26 1.11489e+27 -5.00129e+26 -1.50207e+26)
(5.47214e+27 -1.08036e+27 3.16147e+24 -9.9369e+27 -2.15589e+27 -1.90682e+26)
(1.93729e+27 2.00142e+26 -4.87419e+26 1.20951e+27 -1.09506e+27 1.33212e+26)
(-2.87584e+26 -2.50572e+27 -5.34993e+26 -9.79535e+27 -5.64832e+27 -8.45357e+26)
(1.84795e+27 -2.87869e+26 -5.30228e+26 1.17856e+27 -9.19404e+26 5.17126e+26)
(5.65695e+26 -3.18305e+26 5.95503e+26 -2.03404e+27 -1.45039e+27 8.96632e+25)
(-1.09501e+26 1.00405e+25 -2.15857e+26 1.36192e+26 5.50362e+25 4.06029e+26)
(-1.00558e+26 -2.77448e+26 -2.04849e+26 -3.07286e+26 -7.26167e+25 7.60459e+25)
(-7.99113e+25 1.48096e+25 -1.06089e+26 4.68249e+25 9.44694e+25 2.10826e+26)
(1.26673e+24 -1.5694e+26 -3.70243e+25 -2.08222e+26 6.09972e+25 9.18913e+25)
(3.75419e+25 -9.87697e+25 -3.93882e+25 -2.7102e+26 3.16042e+26 6.92531e+25)
(-4.12835e+26 7.27013e+26 3.2631e+26 2.63699e+27 -6.61152e+26 3.4412e+26)
(-8.49174e+25 -6.66062e+26 -2.01403e+25 -1.4105e+27 7.13696e+25 -2.12023e+26)
(4.32397e+26 7.72279e+26 1.26537e+26 1.50358e+27 -7.84967e+26 6.10388e+26)
(-1.56611e+26 -2.15758e+26 3.22761e+26 -4.33703e+26 -1.19621e+26 7.00164e+25)
(2.55398e+26 4.55528e+26 -5.15587e+26 5.53866e+26 -3.9895e+26 2.33715e+26)
(1.62012e+25 -1.09778e+26 4.64816e+25 -1.44727e+26 -1.07212e+26 -3.87963e+25)
(2.63332e+26 -6.71543e+25 -1.05859e+26 2.28717e+23 -1.32844e+26 1.69339e+26)
(3.30938e+25 -9.16785e+25 8.31378e+24 -8.39724e+25 -2.24728e+25 -1.04536e+24)
(1.03589e+26 -1.70132e+24 -6.13401e+25 -3.09907e+25 5.09017e+24 5.33815e+25)
(-5.18317e+26 -7.92295e+25 4.42039e+26 9.75177e+26 -1.53639e+26 -2.5591e+26)
(2.94831e+26 3.0429e+25 8.13023e+25 -7.59441e+26 2.91321e+26 -2.95671e+24)
(-3.98186e+25 3.19681e+26 3.06171e+26 4.14615e+26 -3.45252e+26 3.94297e+25)
(-3.62691e+26 -4.74419e+26 4.31209e+26 -1.16644e+26 -2.17988e+26 2.00646e+26)
(1.4871e+26 2.60592e+26 -1.65463e+26 1.22628e+26 -4.41308e+26 -3.45607e+25)
(-2.27097e+26 -1.79568e+26 1.6402e+26 3.73526e+25 -1.94256e+26 8.04332e+25)
(2.85215e+25 7.52932e+25 -1.21438e+24 1.72519e+26 -2.22446e+26 7.47503e+25)
(-1.4033e+26 -1.09063e+26 4.14998e+25 -1.80482e+25 -1.00732e+26 3.70297e+25)
(2.21462e+26 5.53006e+25 -4.81314e+25 -1.54662e+25 -8.18856e+25 1.19159e+25)
(-2.14855e+25 -7.67568e+25 3.02659e+25 -3.55826e+25 -3.91934e+25 2.55067e+24)
(3.04255e+26 8.61699e+25 -5.4529e+26 -2.79664e+26 5.63342e+25 9.83164e+25)
(-2.19474e+26 -6.60248e+25 2.83735e+26 3.21837e+26 -9.23319e+24 -1.01386e+26)
(-8.93322e+25 -9.62095e+25 -7.88759e+24 -3.02994e+25 -1.36421e+26 9.812e+25)
(1.61178e+26 8.58056e+25 7.61332e+25 1.92711e+26 -3.65482e+25 -2.62814e+26)
(-1.09435e+26 -6.73675e+25 -2.89513e+25 8.09003e+25 -1.07035e+26 -2.0853e+25)
(1.02214e+26 3.20368e+25 1.54921e+25 2.1675e+26 -8.93716e+25 -1.39334e+26)
(-1.20053e+26 -2.45459e+25 -3.73196e+25 6.55517e+25 -8.9159e+25 -3.34018e+25)
(1.07191e+26 8.8597e+25 -4.08806e+25 2.05153e+26 -1.06997e+26 -1.17723e+26)
(-2.18994e+25 -2.38934e+25 -3.6988e+25 -8.84904e+24 -3.72729e+25 -1.24949e+25)
(2.26491e+26 -4.11599e+25 -1.6216e+25 -2.94829e+25 -3.90011e+25 -2.26124e+25)
(-2.93479e+25 5.37673e+24 3.69727e+25 -1.01641e+26 8.70807e+25 4.57886e+25)
(2.89834e+25 -3.22218e+25 -5.39663e+25 -2.42814e+23 -3.13905e+25 2.12392e+25)
(-9.30311e+25 4.95101e+25 7.61117e+25 1.11452e+26 4.95986e+25 -6.64571e+25)
(-2.53547e+24 -2.93571e+25 -6.9515e+25 2.36574e+25 -3.33719e+25 -2.45843e+25)
(-5.73112e+24 2.49243e+25 7.79755e+25 1.46037e+26 4.21267e+25 -9.84475e+25)
(-2.58809e+25 -2.80582e+25 -3.78842e+25 3.82492e+25 -2.03625e+25 -3.57819e+25)
(1.60276e+25 5.63901e+25 6.95349e+25 2.50548e+26 -6.64609e+24 -1.33026e+26)
(-3.97206e+25 -4.05552e+24 -2.79265e+25 4.4517e+25 -2.60365e+25 -4.45591e+25)
(1.1947e+26 8.86688e+25 8.09187e+25 2.1304e+26 -1.36744e+25 -1.07315e+26)
(-1.14241e+25 -1.34952e+26 -6.71706e+24 1.25197e+25 -2.50691e+25 -5.97134e+25)
)
;
    }
    procBoundary29to28
    {
        type            processor;
        value           nonuniform List<symmTensor> 
20
(
(-1.93278e+26 5.94265e+25 -6.73563e+25 9.68261e+25 3.60342e+25 3.91016e+25)
(-1.88034e+24 -4.39081e+25 -5.60657e+24 6.86683e+24 -2.74922e+25 1.92266e+25)
(-2.35654e+25 -1.15389e+23 1.11619e+25 1.6812e+25 -1.8481e+25 2.07569e+25)
(6.63591e+25 -7.98412e+25 -1.6185e+25 -4.3636e+25 1.21154e+25 -1.5444e+25)
(-1.16464e+25 4.06591e+24 3.64677e+25 -2.71059e+24 -6.36016e+25 1.31585e+25)
(-5.91863e+24 -7.37843e+24 4.66994e+23 -5.60819e+24 2.3062e+24 -3.03754e+24)
(-1.90169e+24 -5.26659e+24 -3.64587e+24 3.74195e+24 8.25046e+23 2.33256e+24)
(-8.64863e+24 2.24834e+25 -2.33844e+25 -2.29463e+25 -4.77416e+25 2.19138e+25)
(-8.82196e+25 -4.67465e+25 -3.24878e+24 1.12594e+26 -9.16671e+24 -2.48499e+25)
(-4.83795e+25 -5.22676e+25 -8.21551e+24 6.34676e+25 -3.70073e+25 1.22612e+24)
(-8.87782e+23 -8.11482e+22 -2.04907e+24 2.3524e+24 -1.29108e+24 -8.09663e+24)
(-2.51322e+24 -6.00683e+22 -9.84776e+24 9.62791e+24 1.06015e+24 -3.06874e+24)
(-5.35028e+23 2.71604e+25 -3.98994e+25 3.47547e+25 -5.4791e+24 -5.24897e+25)
(-2.62731e+25 9.90007e+24 -2.94369e+24 1.56979e+25 6.40463e+22 2.54244e+24)
(1.05558e+26 -4.26736e+25 -3.86147e+25 9.88782e+24 -3.78504e+24 -2.80885e+24)
(1.27314e+25 -8.37272e+24 2.52979e+22 -1.40368e+24 8.96754e+22 -2.16343e+24)
(6.84291e+25 -5.67904e+25 -1.83628e+25 -1.25878e+26 6.46049e+25 8.15151e+25)
(6.72102e+24 -4.11876e+23 5.73129e+24 -2.72974e+24 -1.08239e+25 -7.95031e+24)
(-3.4195e+25 2.12443e+25 -6.17755e+24 4.30986e+25 -7.33763e+24 8.75988e+23)
(-1.12215e+25 -1.6921e+25 1.25747e+24 7.00621e+24 -3.19434e+23 3.25891e+24)
)
;
    }
    procBoundary29to30
    {
        type            processor;
        value           nonuniform List<symmTensor> 
20
(
(2.68421e+25 -2.48208e+25 -8.03364e+24 -7.21762e+25 -9.35827e+24 1.34645e+25)
(4.33947e+25 -5.67131e+25 -7.61953e+25 -1.43623e+25 7.20545e+24 1.5025e+25)
(2.46716e+25 1.33595e+25 -1.05727e+25 -2.65879e+25 -4.10637e+24 -1.63419e+25)
(6.72284e+25 7.47041e+23 -1.27098e+26 2.16748e+25 5.26507e+24 -5.21977e+25)
(6.56237e+25 -1.70584e+25 -3.53546e+25 -5.63783e+25 -5.81959e+24 4.86184e+25)
(1.03735e+25 8.55744e+24 -2.53612e+24 -2.63781e+25 -8.77586e+24 -6.04284e+23)
(1.16032e+25 2.71366e+23 -1.50059e+24 -1.64145e+25 -1.80231e+25 1.79282e+25)
(1.65951e+24 2.89345e+24 -3.5231e+24 -2.25049e+24 -5.83631e+23 -2.7077e+24)
(4.22836e+25 -6.36302e+25 3.75695e+25 -7.25111e+25 -4.56857e+25 -4.61262e+24)
(2.15461e+25 7.2595e+24 1.2137e+25 -2.37884e+25 -1.42938e+25 5.34484e+24)
(3.93037e+24 -7.37263e+23 -4.31188e+24 -5.55716e+24 -7.24517e+24 1.40558e+24)
(2.91336e+24 -2.63555e+24 3.80868e+24 -2.66424e+25 -1.75478e+25 3.09345e+25)
(4.97954e+25 -1.10068e+25 1.86502e+25 -1.11582e+25 -1.40469e+25 -1.82715e+25)
(2.43465e+25 -2.27123e+25 8.86978e+24 -1.86792e+25 -2.51069e+25 -7.06365e+24)
(2.4398e+24 1.91057e+24 1.8276e+21 -4.75937e+24 -4.18698e+23 -1.77008e+23)
(4.3266e+24 -2.22614e+23 -1.71295e+22 -7.7065e+24 6.7312e+23 5.10565e+24)
(3.32227e+23 1.97921e+24 -1.33659e+25 6.37109e+25 -2.44313e+25 -2.15015e+25)
(6.01691e+24 9.88858e+23 5.70835e+23 -1.2056e+25 -7.30999e+24 -3.97375e+24)
(2.02828e+24 -9.85647e+23 7.61863e+23 -7.59102e+23 -5.81478e+23 -1.14976e+23)
(1.45915e+24 -1.64435e+24 -2.30386e+23 -2.81038e+23 -2.81237e+24 -1.58436e+24)
)
;
    }
}


// ************************************************************************* //
