/*--------------------------------*- C++ -*----------------------------------*\
| =========                 |                                                 |
| \\      /  F ield         | OpenFOAM: The Open Source CFD Toolbox           |
|  \\    /   O peration     | Version:  2.4.0                                 |
|   \\  /    A nd           | Web:      www.OpenFOAM.org                      |
|    \\/     M anipulation  |                                                 |
\*---------------------------------------------------------------------------*/
FoamFile
{
    version     2.0;
    format      ascii;
    class       volScalarField;
    location    "0.03";
    object      p;
}
// * * * * * * * * * * * * * * * * * * * * * * * * * * * * * * * * * * * * * //

dimensions      [1 -1 -2 0 0 0 0];

internalField   nonuniform List<scalar> 
200
(
6589.99
6015.16
5106.71
4862.43
4924.08
4990.24
4821
4797.37
4917.47
5156.47
6665.95
5922.01
5144.67
5133.01
4090.23
4034.09
4365.77
4574.02
5066.91
5628.95
6615.22
5687.86
4885.17
3770.65
3319.74
2856.61
2633.23
3330.66
4192.6
5398.82
6842.83
5437.91
4121.82
3074.1
1889.19
969.092
83.8578
1.77662
1019.04
2239.12
4683.28
3869.44
3240.71
2214.59
2302.33
1068.8
1533.61
2805
4089.45
5434.77
3433.9
2534.9
1409.71
297.973
-24.9503
223.702
408.636
1295.14
2444.57
4317.01
3199.93
1258.23
-890.223
-3225.81
-5195.96
-4968.47
-4514.93
-3209.91
-884.369
1004.93
3401.57
1305.5
-836.248
-3282.74
-6389.7
-8251.12
-9467.53
-8933.2
-7923.05
-5171.41
1939.08
66.7774
-1138.33
-2304.54
-3079.96
-3110.51
-2466.69
-1456.22
-185.773
1950.56
120.774
-2212.11
-5277.92
-7406.32
-7749.96
-8187.88
-7063.52
-5644.3
-3571.44
-1850.06
-975.691
-4900.66
-9577.83
-11809.9
-12844.6
-13029
-12949.5
-11230.2
-9906.49
-6431.61
-2446.54
-7472.03
-10007.1
-13285.7
-16378.7
-16839.4
-16752.5
-16454.6
-14030
-14429.8
908.425
-2086.89
-5378.11
-8718.38
-10309.3
-11454.1
-11177.6
-10663.5
-7768.98
-5671.4
-460.792
-4664.87
-10911.6
-13807.8
-15324.7
-15556.5
-15701.2
-14432.5
-13590.1
-9558.48
-535.775
-7697.81
-14982.1
-18404.2
-21009.8
-21673.5
-20818.3
-21975.7
-18840.9
-18672.8
-2584.68
-8338.01
-19344.4
-29796
-42688
-30249.4
-26631.4
-25166.9
-29173.4
-23181.2
1940.07
-298.154
-3073.91
-5845.42
-7690.99
-10901.8
-12826.6
-11664.9
-11608.5
-6678.22
1928.81
-914.641
-5637.01
-8128.37
-11688.1
-13302.1
-15149.3
-15986.7
-12912.9
-13306.9
691.958
-5438.48
-11668.1
-15609.3
-17241.8
-19782.9
-19350.2
-19523
-22785.1
-14259.2
-2694.4
-6685.41
-17991.9
-23348.2
-23783.7
-27777
-25588.4
-16614.3
-20772.8
-31458
)
;

boundaryField
{
    inlet
    {
        type            zeroGradient;
    }
    outlet
    {
        type            fixedValue;
        value           nonuniform 0();
    }
    bottom
    {
        type            zeroGradient;
    }
    top
    {
        type            symmetryPlane;
    }
    side1
    {
        type            symmetryPlane;
    }
    side2
    {
        type            symmetryPlane;
    }
    procBoundary22to14
    {
        type            processor;
        value           nonuniform List<scalar> 
50
(
7253.33
6379.36
5820.1
5142.64
5555.63
5940.01
5231.14
5178.55
5171.91
5373.16
5896.16
5129.44
4183.62
3791.19
3873.6
3540.69
3333.86
3778.12
4619.93
5524.24
3044.81
2207.39
1328.67
280.669
-177.739
-1628.22
-690.068
441.495
1775.3
3171.4
2828.72
368.712
-1995.96
-4180
-5883.83
-6875.9
-7761.68
-6695.5
-4837.74
-2411.22
3048.57
-24.6246
-2202.3
-4199.26
-5830.1
-7288.36
-9253.6
-10381.3
-7915.08
-5747.25
)
;
    }
    procBoundary22to21
    {
        type            processor;
        value           nonuniform List<scalar> 
20
(
7428.43
7354.62
7521.32
8186.63
5793.93
5029.8
4964.97
5049.34
3223.71
2226.28
1448.99
1956.28
3802.89
2140.39
2532.73
2071.8
4468.65
3261.39
1863.99
1346.37
)
;
    }
    procBoundary22to23
    {
        type            processor;
        value           nonuniform List<scalar> 
20
(
5261.43
6268.02
6633.47
3986.86
7044.09
5669.44
3762.4
-3395.23
3225.67
894.007
-4342.27
-9586.65
-2217.81
-8099.44
-13252.8
-26003.7
-5365.94
-5257.12
-14233.3
-9359.65
)
;
    }
    procBoundary22to30
    {
        type            processor;
        value           nonuniform List<scalar> 
50
(
8312.88
6667.67
5011.18
3829.67
2410.96
907.823
-364.793
-1345.99
-2319.23
-1674.65
4290.81
2328.6
118.932
-2442.41
-5143.97
-6996.75
-8875.69
-10325.4
-9313.84
-10278.5
-65.5997
-2802.5
-6845.54
-12575.1
-19022.3
-16696.3
-15284.8
-15315.6
-16046.5
-14183.4
1453.87
-1153.8
-10428.3
-27142.4
-28199.7
-25263.8
-15990.6
-19016.3
-22867.2
-27371
5226.55
-940.02
-14265
-6544.61
607.553
-13774
-8136.18
-22427.5
-7148.16
-13078.1
)
;
    }
}


// ************************************************************************* //
