/*--------------------------------*- C++ -*----------------------------------*\
| =========                 |                                                 |
| \\      /  F ield         | OpenFOAM: The Open Source CFD Toolbox           |
|  \\    /   O peration     | Version:  2.4.0                                 |
|   \\  /    A nd           | Web:      www.OpenFOAM.org                      |
|    \\/     M anipulation  |                                                 |
\*---------------------------------------------------------------------------*/
FoamFile
{
    version     2.0;
    format      ascii;
    class       volVectorField;
    location    "0.03";
    object      U;
}
// * * * * * * * * * * * * * * * * * * * * * * * * * * * * * * * * * * * * * //

dimensions      [0 1 -1 0 0 0 0];

internalField   nonuniform List<vector> 
200
(
(63.8391 -30.3174 9.82667)
(74.3193 -12.2112 -25.1905)
(67.7138 -47.7155 21.6577)
(106.523 69.1294 -55.2801)
(92.5832 -9.77355 0.859586)
(76.4166 -42.0858 21.2503)
(71.6514 -51.1085 22.644)
(55.1283 -59.3869 31.5839)
(59.0923 -31.0059 20.5951)
(48.9466 -28.9975 24.8273)
(60.9453 -37.7608 -7.61748)
(71.5378 -42.9946 13.9138)
(67.0241 -38.3804 5.09962)
(88.6349 -33.3707 29.9487)
(91.3048 -5.81807 15.7819)
(99.6389 -42.3474 -11.6457)
(71.1382 -55.9742 23.3675)
(64.4125 -45.6038 27.6863)
(44.3753 -46.9072 32.3776)
(42.2942 -23.2996 17.2125)
(53.8532 -64.2452 18.0823)
(65.0224 -55.4272 9.85351)
(70.4033 -62.5815 8.10579)
(64.5627 -78.8437 55.6052)
(86.7651 -46.5522 38.6092)
(70.2014 -36.8274 10.9967)
(76.5646 -58.921 7.4906)
(52.4165 -61.7015 18.102)
(53.2738 -43.6645 13.8751)
(23.9136 -25.1432 33.5691)
(39.2309 -89.8239 -46.9306)
(53.7247 -80.8713 -2.99499)
(54.1756 -70.2032 -11.4259)
(55.4235 -75.1718 -4.07449)
(47.9025 -106.689 26.1958)
(60.24 -80.295 30.931)
(44.8705 -68.5123 6.6246)
(56.2898 -70.2333 3.65307)
(27.4814 -57.5374 4.36546)
(46.0497 -41.8038 -8.05122)
(60.7701 -75.7801 11.5552)
(85.911 -41.2763 7.03537)
(70.148 -36.9225 19.189)
(89.3301 -27.0883 33.2297)
(75.3004 -31.3846 44.2641)
(87.8222 5.28215 37.6522)
(55.1854 -17.0994 45.7483)
(62.6683 -7.96981 49.1549)
(45.4743 0.544756 54.989)
(44.1159 16.7671 26.0869)
(67.4877 -51.7334 1.56346)
(69.8742 -57.0447 18.8655)
(82.1637 -43.8339 -3.5815)
(76.4148 -41.1317 46.6164)
(104.798 -39.2377 50.3218)
(68.7192 -32.4527 70.6085)
(80.4988 -16.04 63.3098)
(44.2893 -14.7847 69.2763)
(46.0664 9.12078 51.7504)
(6.36487 44.8949 86.5425)
(43.6095 -44.267 2.66993)
(81.2005 -62.324 -2.12839)
(58.2432 -69.5498 -8.85759)
(71.7256 -64.1755 1.49548)
(89.7116 -55.6088 65.5284)
(103.956 -48.0896 61.7427)
(65.0416 -13.9337 78.1018)
(85.1984 7.87948 59.7699)
(20.442 38.3224 92.5787)
(32.9852 58.2513 35.0373)
(63.5357 -66.2052 -13.0766)
(19.2352 -71.534 -15.0512)
(79.9036 -72.7366 36.7202)
(12.39 -79.2733 4.01517)
(61.2296 -93.8539 37.4021)
(30.2868 -70.6317 61.4978)
(67.08 -42.7545 59.995)
(21.2194 8.51649 86.8695)
(60.275 35.4238 47.4436)
(-22.9027 111.3 130.682)
(47.5343 -11.1314 -30.1692)
(52.9208 -62.8221 -8.97699)
(82.5424 -16.2542 2.37305)
(58.8925 -22.7385 20.7007)
(93.9877 14.0487 35.5412)
(63.861 5.97661 55.2458)
(82.2078 14.0393 60.8935)
(50.5947 13.7739 79.9275)
(64.0603 23.524 60.1803)
(20.86 54.9636 105.766)
(-7.14183 -92.0155 -34.6605)
(109.392 -50.5312 -25.2983)
(38.0069 -52.6816 7.47371)
(97.0951 -23.701 13.1588)
(45.9081 -16.3299 62.3697)
(89.2544 13.7885 85.8488)
(52.8079 22.4731 99.5122)
(70.2732 35.5819 86.7406)
(14.4808 66.1237 127.668)
(33.7926 66.8503 48.3096)
(78.3231 -78.5755 -35.9827)
(-14.7104 -79.3414 -25.0008)
(55.5426 -49.3973 51.3906)
(35.287 -57.9733 52.3004)
(86.0234 -43.2553 69.7854)
(36.7919 0.0590084 105.101)
(76.4401 24.1419 87.1222)
(10.4233 68.5264 139.079)
(49.6599 61.8796 66.0974)
(-40.045 165.93 189.538)
(-83.7151 -98.3984 -48.9462)
(15.5703 -73.3657 8.99025)
(-28.6859 -110.626 31.9751)
(25.7487 -71.5138 28.7969)
(-34.147 -25.2694 103.452)
(17.5205 -8.60739 91.5482)
(-44.9678 69.3846 153.373)
(60.1232 32.4558 52.7544)
(-46.593 167.595 211.497)
(45.4683 72.6458 35.1557)
(-0.467311 -116.338 -19.1689)
(85.1065 -59.5547 -31.2109)
(27.1365 -46.5195 -33.1173)
(78.4065 20.4556 -9.36841)
(41.8161 27.5146 9.94102)
(72.4515 32.9345 18.5269)
(43.5749 27.1468 44.4451)
(70.7025 27.2273 37.2882)
(19.4415 55.7079 96.3071)
(51.1486 47.5433 41.4953)
(27.6414 -82.203 -35.5011)
(-44.7935 -85.0124 -47.3291)
(28.6354 -11.1617 -3.92974)
(-5.74071 25.3719 38.7986)
(70.0832 45.4115 35.4696)
(37.7653 45.1445 64.6077)
(73.7078 48.1419 56.3584)
(14.51 75.2532 107.27)
(60.3058 56.9594 43.3)
(-27.8761 148.967 165.661)
(-138.886 -119.744 -55.4621)
(-26.1116 -43.8041 12.0041)
(-84.5917 -26.9458 63.8524)
(29.4787 76.5421 41.2631)
(-38.4989 120.534 91.7829)
(49.7741 69.3361 44.0055)
(-24.9499 116.93 132.751)
(70.5452 62.8979 39.4015)
(-33.3222 164.469 175.253)
(41.6657 85.0497 21.4119)
(-83.3739 -32.5734 70.4686)
(-170.699 -104.979 56.2857)
(-13.7525 -24.3219 12.9198)
(-71.7007 -38.9757 39.8345)
(-63.2956 33.4526 49.4319)
(-189.306 85.5352 111.322)
(14.2786 21.211 26.0619)
(-111.259 180.579 182.379)
(73.7345 47.8498 10.3886)
(-96.4731 314.453 296.715)
(26.3309 -88.3682 -9.32779)
(-15.1301 -66.625 -29.1129)
(-21.2546 -25.1474 -67.9615)
(-35.7858 -44.5644 -16.6002)
(-19.7649 -20.8677 -41.1873)
(-90.7417 21.7361 61.0257)
(5.79223 -13.4154 -18.8556)
(-80.7128 129.021 174.043)
(19.9749 19.7635 -5.38945)
(-67.1493 138.231 159.99)
(-20.811 -61.2111 -27.8537)
(-41.4917 -65.8149 -101.057)
(-30.5346 -82.5005 -62.7667)
(-29.3887 -24.3008 -60.622)
(-91.937 -6.25278 -4.68429)
(-34.1593 0.426512 -36.2601)
(-141.65 88.2046 113.463)
(1.86381 8.12286 -28.3651)
(-130.823 238.647 241.337)
(16.0132 26.0226 -30.2213)
(-62.5283 -64.5409 -156.901)
(-69.7957 -221.016 -158.543)
(-49.2557 -49.6451 -66.9493)
(-113.42 -29.59 -21.4429)
(-46.4573 8.22561 -46.3098)
(-198.441 81.7933 65.5279)
(-34.7801 -6.95494 -49.6215)
(-211.404 215.263 230.58)
(16.5341 16.8854 -41.5029)
(-185.283 361.051 326.461)
(-163.33 -319.332 -185.396)
(-87.1082 -90.7919 -93.8628)
(-314.33 -12.2828 -138.832)
(-124.373 -34.1444 -5.34819)
(-266.484 95.9955 87.9292)
(-101.348 67.7278 -44.8424)
(-346.233 124.898 114.545)
(-59.9765 10.5722 -46.2413)
(-369.562 438.797 450.042)
(29.2905 20.9857 -60.8748)
)
;

boundaryField
{
    inlet
    {
        type            calculated;
        value           nonuniform 0();
    }
    outlet
    {
        type            calculated;
        value           nonuniform 0();
    }
    bottom
    {
        type            calculated;
        value           uniform (0 0 0);
    }
    top
    {
        type            symmetryPlane;
    }
    side1
    {
        type            symmetryPlane;
    }
    side2
    {
        type            symmetryPlane;
    }
    procBoundary22to14
    {
        type            processor;
        value           nonuniform List<vector> 
50
(
(70.7392 -12.2771 -36.6972)
(53.1085 -25.8312 -0.75165)
(94.9439 31.9637 -91.4716)
(81.9859 -7.69113 7.04897)
(62.9462 -28.4832 17.1454)
(69.6317 -38.7909 16.8149)
(61.7535 -58.874 44.964)
(71.2754 -23.1941 23.8428)
(63.0377 -20.6033 17.7395)
(65.4275 -9.16034 8.78506)
(75.7499 -37.7048 1.35029)
(75.2993 -33.6483 0.529518)
(81.4249 -23.8621 15.3925)
(67.3318 -31.1543 21.5196)
(95.5367 21.893 1.30221)
(49.6672 -143.244 -49.3054)
(72.1543 -63.0495 54.5047)
(69.2278 0.545197 42.0009)
(62.5013 1.15413 29.5787)
(46.4398 -1.34288 40.1073)
(54.4453 -74.3603 -14.3975)
(82.824 -27.9276 -15.3547)
(72.1674 -52.0336 -12.977)
(95.7135 1.82217 8.03945)
(90.8498 -11.6234 25.9035)
(85.1634 39.037 56.5614)
(58.9863 18.6925 65.0196)
(72.8659 14.0212 48.3238)
(54.3761 14.8554 63.5751)
(59.3175 23.2929 46.087)
(60.6439 -32.1905 -44.3674)
(51.0493 -71.9161 -21.4301)
(79.7367 -27.2861 -18.4814)
(57.2431 -17.904 -6.2359)
(83.535 5.9819 -7.37369)
(49.6491 2.00143 12.9814)
(78.9579 18.153 6.06049)
(46.5983 17.269 41.4294)
(71.8353 18.4594 32.6544)
(28.658 40.9682 82.476)
(1.35214 -103.812 -15.7784)
(62.6994 -79.1424 -15.8128)
(-7.21849 -33.7527 -25.7455)
(32.2409 -45.8584 -27.0633)
(-18.1852 -26.3076 0.749411)
(25.3308 -25.5343 -24.5603)
(-61.7058 42.6439 93.8169)
(29.4925 6.78668 5.40807)
(-31.2692 65.3305 97.1766)
(12.1924 15.8973 19.4692)
)
;
    }
    procBoundary22to21
    {
        type            processor;
        value           nonuniform List<vector> 
20
(
(58.3535 -29.9322 -17.8031)
(53.498 -42.476 8.63482)
(47.0742 -61.9232 -8.1167)
(24.7213 -69.9337 -4.88465)
(62.4189 -41.2759 -13.1795)
(66.4247 -28.5979 10.5338)
(54.3816 -68.7158 -0.946692)
(10.7953 -76.7073 -62.3009)
(53.6635 -44.9468 -31.9279)
(49.6312 -33.2604 -39.4697)
(-31.3848 -105.125 -38.1991)
(21.6063 -72.1886 -42.9008)
(48.3026 -46.3023 -49.8443)
(-58.2051 -157.036 -33.7111)
(-19.499 -94.9006 -28.3648)
(-231.108 -149.87 -61.188)
(0.258434 -92.2669 14.0027)
(-1.52612 -79.6393 9.60131)
(-37.7726 -54.9869 -35.8182)
(-138.811 -3.81885 -58.3142)
)
;
    }
    procBoundary22to23
    {
        type            processor;
        value           nonuniform List<vector> 
20
(
(51.1892 -4.64008 -3.49749)
(15.8534 11.0552 57.5303)
(30.6688 10.286 0.0413361)
(7.95958 12.4395 40.5683)
(2.87887 68.7358 78.6478)
(2.01233 77.5021 -16.1151)
(-44.7872 176.51 159.689)
(28.3015 86.6189 10.5416)
(17.8607 68.2961 21.7263)
(-48.3705 205.884 190.141)
(12.5717 101.011 16.8388)
(-82.3695 286.742 269.577)
(-18.2306 128.367 145.267)
(21.8491 86.4904 10.1041)
(-86.0367 292.246 249.411)
(56.1001 69.5005 -15.8431)
(10.9653 31.7275 -6.36657)
(-121.238 268.194 240.341)
(25.0018 22.9607 -57.5753)
(-302.067 548.945 492.432)
)
;
    }
    procBoundary22to30
    {
        type            processor;
        value           nonuniform List<vector> 
50
(
(26.5636 -48.9128 -47.3065)
(2.83095 -61.842 -62.4333)
(32.8945 -76.5867 -27.8357)
(37.9814 -85.0575 -30.0511)
(25.4018 -124.025 -37.3801)
(40.8361 -125.783 -1.61556)
(39.8266 -112.827 -5.05237)
(23.3115 -88.0261 -0.152838)
(49.1956 -86.5687 -19.853)
(12.436 -51.7267 -5.52039)
(6.27572 -65.8259 -50.9075)
(10.9215 -106.857 -5.4901)
(9.2998 -97.6478 -0.238942)
(26.1321 -95.5326 27.6558)
(-5.04781 -97.8097 64.6216)
(35.9553 -87.7853 25.6601)
(-42.0867 -2.76916 107.861)
(75.1446 -32.6655 22.0117)
(-18.2292 73.4806 132.476)
(62.9919 39.7769 23.1044)
(-23.1617 -91.7193 -47.3023)
(-64.8232 -119.719 -29.2472)
(-16.5678 -104.169 -42.895)
(-33.9108 -98.8468 25.569)
(-58.6275 -60.8784 74.7759)
(-148.958 -34.4335 115.134)
(1.80485 -45.8138 8.73458)
(-114.18 80.491 154.346)
(65.3556 -9.34648 18.9697)
(-84.6655 263.192 293.368)
(-231.451 -103.469 -32.8889)
(-120.485 -131.211 -118.719)
(-237.526 -71.37 -110.822)
(-263.095 60.3248 144.598)
(-91.2731 884.809 1028.68)
(86.4254 -160.567 -76.5398)
(-201.638 88.0363 147.595)
(29.1036 -50.6582 7.36655)
(-199.486 237.016 235.371)
(87.9302 -9.27079 -29.9053)
(-251.455 -82.4357 -159.41)
(-516.11 9.06205 -243.428)
(-424.348 -8.21733 289.488)
(-449.95 -37.6617 -54.0009)
(-445.085 10.0007 -446.348)
(-340.634 336.26 476.365)
(-166.39 82.3131 7.8012)
(-434.042 216.502 194.523)
(-55.154 69.8103 -48.2894)
(-490.262 602.038 584.517)
)
;
    }
}


// ************************************************************************* //
