/*--------------------------------*- C++ -*----------------------------------*\
| =========                 |                                                 |
| \\      /  F ield         | OpenFOAM: The Open Source CFD Toolbox           |
|  \\    /   O peration     | Version:  2.4.0                                 |
|   \\  /    A nd           | Web:      www.OpenFOAM.org                      |
|    \\/     M anipulation  |                                                 |
\*---------------------------------------------------------------------------*/
FoamFile
{
    version     2.0;
    format      ascii;
    class       volScalarField;
    location    "0.02";
    object      alpha;
}
// * * * * * * * * * * * * * * * * * * * * * * * * * * * * * * * * * * * * * //

dimensions      [0 0 0 0 0 0 0];

internalField   nonuniform List<scalar> 
200
(
5.22824e-17
3.19455e-15
1.789e-13
8.10141e-12
2.0348e-10
7.72502e-12
1.63041e-13
3.29874e-15
6.79277e-17
1.2814e-18
1.14507e-14
8.02285e-13
5.07187e-11
2.55257e-09
7.21331e-08
2.43395e-09
4.62221e-11
8.70041e-13
1.68185e-14
2.95891e-16
1.79226e-12
1.4726e-10
1.06822e-08
6.04796e-07
1.95297e-05
5.76685e-07
9.73499e-09
1.69561e-10
3.05848e-12
4.98319e-14
1.51079e-10
1.48739e-08
1.26558e-06
8.18875e-05
0.00308458
7.80806e-05
1.15334e-06
1.84676e-08
3.08453e-10
4.61365e-12
1.05525e-14
3.01648e-13
3.8565e-12
1.01388e-10
4.60002e-12
1.13275e-13
1.78444e-14
3.76024e-13
1.58524e-14
3.73984e-16
2.07974e-12
6.93016e-11
1.21438e-09
3.59549e-08
1.44986e-09
3.21157e-11
5.00929e-12
1.18502e-10
4.49583e-12
9.62681e-14
2.46372e-10
1.03342e-08
2.87607e-07
9.73821e-06
3.43645e-07
6.76444e-09
1.0446e-09
2.8084e-08
9.47236e-10
1.82304e-11
6.46642e-09
5.74767e-07
3.89309e-05
0.00153866
4.65448e-05
8.01465e-07
1.22523e-07
3.80346e-06
1.12266e-07
1.91801e-09
4.51154e-12
1.18871e-10
4.52739e-12
4.71252e-13
2.01326e-14
8.15897e-14
3.84647e-12
1.01356e-10
3.84649e-12
8.23867e-14
9.47221e-10
2.8083e-08
9.51716e-10
1.36495e-10
5.5126e-12
2.31271e-11
1.21243e-09
3.59458e-08
1.21244e-09
2.33345e-11
1.12264e-07
3.80337e-06
1.13211e-07
2.99811e-08
1.12547e-09
4.87026e-09
2.87387e-07
9.73631e-06
2.87387e-07
4.90988e-09
9.71188e-10
2.9977e-08
1.13219e-07
3.8038e-06
1.29812e-07
5.76941e-07
3.89271e-05
0.00153843
3.89272e-05
5.81141e-07
1.21627e-09
3.60469e-08
1.21627e-09
2.30925e-11
3.24824e-13
4.13748e-15
1.58908e-14
3.7602e-13
1.63595e-14
3.98101e-16
2.87386e-07
9.73631e-06
2.87386e-07
4.84873e-09
6.13649e-11
7.42044e-13
4.50198e-12
1.18506e-10
4.73577e-12
1.06618e-13
3.89271e-05
0.00153843
3.89271e-05
5.74719e-07
6.46626e-09
7.93718e-11
9.47819e-10
2.80867e-08
1.04834e-09
2.21475e-11
2.87386e-07
9.73632e-06
2.87571e-07
1.03344e-08
2.82778e-10
1.89898e-09
1.12287e-07
3.80456e-06
1.48211e-07
3.15344e-09
4.52082e-12
1.19091e-10
4.52084e-12
9.53846e-14
1.47604e-15
1.96001e-17
3.61994e-17
7.76221e-16
3.82977e-17
1.04707e-18
9.48975e-10
2.81292e-08
9.48976e-10
1.80148e-11
2.53351e-13
3.15477e-15
9.30643e-15
2.20081e-13
1.02669e-14
2.65886e-16
1.12449e-07
3.80883e-06
1.12449e-07
1.8976e-09
2.40199e-11
2.90477e-13
1.76131e-12
4.6361e-11
2.13438e-12
5.3872e-14
9.48976e-10
2.81292e-08
9.49205e-10
2.40485e-11
5.43682e-13
3.52599e-12
1.85337e-10
5.49568e-09
3.03959e-10
8.16572e-12
)
;

boundaryField
{
    inlet
    {
        type            zeroGradient;
    }
    outlet
    {
        type            zeroGradient;
    }
    bottom
    {
        type            fixedValue;
        value           uniform 0;
    }
    top
    {
        type            symmetryPlane;
    }
    side1
    {
        type            symmetryPlane;
    }
    side2
    {
        type            symmetryPlane;
    }
    procBoundary7to6
    {
        type            processor;
        value           nonuniform List<scalar> 
20
(
1.77798e-18
6.59664e-16
2.6082e-13
1.02782e-10
2.3161e-16
4.07876e-14
4.15945e-12
6.17686e-11
9.51669e-14
1.79774e-11
1.89403e-09
1.82308e-11
2.30916e-11
4.8485e-09
5.74673e-07
4.8485e-09
9.53821e-14
1.80143e-11
1.89754e-09
1.80143e-11
)
;
    }
    procBoundary7to15
    {
        type            processor;
        value           nonuniform List<scalar> 
50
(
1.21848e-09
1.64334e-10
1.06823e-08
6.04797e-07
1.95297e-05
5.76686e-07
9.73502e-09
1.69564e-10
3.1158e-12
5.23042e-14
6.61135e-11
4.84936e-09
2.87423e-07
9.73821e-06
3.43764e-07
6.76896e-09
1.04474e-09
2.80858e-08
9.93527e-10
2.00236e-11
4.76244e-12
1.36798e-10
9.7481e-10
2.92996e-08
3.70471e-08
6.0827e-09
2.87428e-07
9.73726e-06
3.15471e-07
5.87508e-09
1.21242e-09
3.5946e-08
1.21429e-09
7.38085e-11
1.21589e-10
8.38724e-11
5.79583e-09
3.1547e-07
9.73732e-06
2.92253e-07
4.50491e-12
1.18716e-10
4.50765e-12
1.61617e-13
2.27549e-13
2.99777e-13
1.97733e-11
9.95324e-10
2.81312e-08
9.67028e-10
)
;
    }
}


// ************************************************************************* //
