/*--------------------------------*- C++ -*----------------------------------*\
| =========                 |                                                 |
| \\      /  F ield         | OpenFOAM: The Open Source CFD Toolbox           |
|  \\    /   O peration     | Version:  2.4.0                                 |
|   \\  /    A nd           | Web:      www.OpenFOAM.org                      |
|    \\/     M anipulation  |                                                 |
\*---------------------------------------------------------------------------*/
FoamFile
{
    version     2.0;
    format      ascii;
    class       surfaceScalarField;
    location    "0.02";
    object      phib;
}
// * * * * * * * * * * * * * * * * * * * * * * * * * * * * * * * * * * * * * //

dimensions      [0 3 -1 0 0 0 0];

internalField   nonuniform List<scalar> 
490
(
5.41239e-05
5.4711e-05
-6.13115e-05
6.19912e-05
2.42979e-05
-3.21652e-05
5.25681e-05
1.53431e-05
-5.91996e-06
4.72148e-05
9.7699e-06
-4.41655e-06
4.36678e-05
6.55903e-06
-3.01205e-06
4.22637e-05
3.5838e-06
-2.17974e-06
3.92574e-05
1.99875e-06
1.00754e-06
3.62657e-05
9.004e-07
2.09133e-06
3.39949e-05
-4.72499e-07
2.74331e-06
1.34649e-06
1.46073e-07
3.01113e-05
3.10614e-05
-1.5035e-05
3.21723e-05
2.14817e-05
7.55139e-07
3.3283e-05
1.56169e-05
-1.38447e-06
3.41711e-05
1.05826e-05
-1.70087e-06
3.55443e-05
7.88033e-06
-2.69447e-06
3.39399e-05
5.67217e-06
-4.83951e-07
3.37907e-05
3.65372e-06
-1.50575e-06
3.12637e-05
1.6631e-06
1.76425e-06
2.96863e-05
2.25148e-06
-1.14655e-06
7.98776e-07
1.30854e-06
1.32469e-05
1.80675e-05
5.96254e-06
1.73489e-05
1.4906e-05
2.47375e-06
1.99361e-05
1.08709e-05
2.15884e-06
2.29745e-05
8.63963e-06
-1.09542e-06
2.48666e-05
7.53848e-06
-1.55024e-06
3.04222e-05
6.73366e-06
-6.61718e-06
2.73823e-05
4.72732e-06
1.96636e-06
2.58242e-05
4.32152e-06
-1.10034e-06
2.43256e-05
3.20443e-06
5.46038e-07
3.33515e-06
-2.0868e-06
9.16485e-06
2.49234e-06
1.26947e-05
2.48132e-06
1.55088e-05
4.51648e-07
1.80314e-05
-1.46284e-06
2.31553e-05
-5.32642e-06
2.08447e-05
2.6654e-06
1.99506e-05
5.18652e-07
1.9914e-05
-3.3935e-09
2.1414e-05
-2.51256e-06
-4.79795e-07
5.91292e-05
-3.66574e-05
-6.19958e-05
5.80342e-05
6.39358e-05
-9.50061e-05
6.38559e-05
2.91552e-05
-4.08968e-05
4.7798e-05
1.86737e-05
-7.03228e-06
3.88298e-05
1.2049e-05
-6.09288e-06
3.41694e-05
7.39327e-06
-4.91257e-06
3.26188e-05
4.19594e-06
-1.63782e-06
3.22529e-05
1.43589e-06
1.02133e-06
3.85136e-05
2.29114e-06
-5.80848e-06
1.06593e-06
-2.72025e-06
-3.12354e-05
4.47308e-05
-5.68785e-05
2.35451e-05
3.43621e-05
-2.44517e-05
2.64917e-05
2.76999e-05
-2.8758e-06
2.72335e-05
1.88392e-05
-2.60823e-06
2.71518e-05
1.29349e-05
-3.49872e-06
2.67947e-05
8.33991e-06
-1.07349e-06
2.54468e-05
3.86173e-06
1.76347e-07
2.80719e-05
3.9437e-06
-3.3687e-06
2.7334e-05
4.37384e-06
-2.49111e-06
8.86399e-06
-8.2738e-06
-9.02621e-06
2.14331e-05
1.36472e-06
2.06869e-06
2.05341e-05
5.20681e-06
9.72434e-06
1.64376e-05
5.76547e-06
1.32246e-05
1.10836e-05
3.15995e-06
1.62315e-05
7.23364e-06
1.14411e-06
1.38027e-05
3.35643e-06
7.95146e-07
1.79733e-05
2.90079e-06
-1.24331e-06
1.92898e-05
4.28259e-06
-2.75515e-06
2.28623e-05
8.17144e-06
-6.79894e-06
7.16931e-06
-3.05149e-06
-4.60243e-06
7.51533e-06
1.92114e-06
6.34213e-06
6.6023e-06
5.62482e-06
9.71406e-06
2.12669e-06
6.72328e-06
2.27543e-06
1.00535e-05
8.75241e-07
1.20535e-05
-1.57545e-06
1.50096e-05
-4.3595e-06
1.56382e-05
-3.84726e-06
-5.1186e-06
5.6968e-05
-3.4429e-05
-4.61594e-05
9.857e-05
-5.58259e-05
-8.07822e-05
9.84431e-05
7.11122e-05
-0.000111882
9.62267e-05
3.92627e-05
-4.40787e-05
6.04377e-05
3.36452e-05
-3.94904e-06
4.07497e-05
1.59727e-05
-1.19727e-06
3.42994e-05
6.49997e-06
-1.68754e-06
3.58031e-05
2.12791e-06
-2.61027e-06
3.3378e-05
2.1404e-06
-5.5237e-06
1.78648e-06
-8.98823e-06
2.17443e-05
-6.37156e-05
-2.8778e-05
-2.79565e-05
4.46041e-05
-7.51824e-05
2.72213e-05
3.71349e-05
-2.40961e-05
2.20708e-05
3.76684e-05
4.1366e-06
2.39292e-05
2.47628e-05
3.52522e-06
2.69341e-05
1.07428e-05
1.15159e-06
2.74445e-05
4.32568e-06
1.84018e-06
2.64637e-05
2.59357e-06
-2.85354e-06
2.95819e-05
2.30961e-06
-5.77855e-06
2.04292e-06
-9.70333e-06
-6.57952e-05
5.8682e-06
-9.45228e-06
-3.77185e-05
1.16489e-05
1.00854e-05
-2.43879e-05
1.20158e-05
1.75541e-05
-1.0833e-05
1.381e-05
1.34635e-05
3.38866e-06
5.33025e-06
6.35495e-06
1.02324e-05
1.28796e-06
3.40621e-06
1.4317e-05
4.67714e-07
-1.46991e-06
1.65073e-05
1.25916e-07
-2.48008e-06
1.51362e-05
3.74281e-06
-6.86095e-06
9.75909e-06
-6.66172e-06
-2.13713e-05
1.27438e-05
-1.32253e-05
1.02911e-05
-1.08841e-05
1.09852e-05
-4.14258e-06
8.69752e-06
3.12449e-07
5.75234e-06
5.80007e-06
-1.75985e-07
8.11001e-06
-1.11728e-06
7.75042e-06
-4.46449e-06
7.00595e-06
-4.39592e-06
-5.39068e-06
6.45983e-05
-2.72539e-05
-8.79615e-06
8.30315e-05
-5.12101e-05
-4.8006e-05
0.000130379
-7.84842e-05
-8.08056e-05
0.000126868
6.81695e-05
-0.000108736
0.000103999
3.76885e-05
-1.87688e-05
6.19807e-05
3.05158e-05
1.03052e-05
4.23197e-05
1.08061e-05
7.1673e-06
3.55866e-05
3.45832e-06
6.64539e-07
3.57587e-05
-3.06356e-06
-2.63223e-06
-2.4387e-06
-8.78985e-06
4.20629e-05
-1.45251e-05
-1.3328e-05
5.00623e-05
-9.39487e-05
-4.04119e-05
-1.88183e-05
2.90793e-05
-6.27799e-05
2.56407e-05
3.06452e-05
-2.77633e-06
2.48258e-05
2.85276e-05
1.35007e-05
1.77421e-05
2.36467e-05
1.51043e-05
1.77843e-05
5.76626e-06
6.83805e-06
1.70796e-05
-6.09815e-07
1.91856e-06
1.24034e-05
-1.38285e-07
-4.02781e-06
1.22155e-07
-2.47659e-06
-1.08968e-05
-2.06763e-05
1.24882e-05
-7.5562e-05
-4.0182e-06
-1.51785e-05
-4.97473e-05
8.1758e-06
1.26202e-05
-2.55202e-05
1.15267e-05
8.35462e-06
-1.88371e-05
1.80309e-05
1.01684e-05
-1.1135e-06
3.90999e-06
5.41958e-06
3.7029e-06
-4.40524e-06
3.89532e-06
6.44079e-06
-3.57711e-06
-2.25063e-06
3.64657e-06
-2.12648e-06
-2.09077e-06
-5.77757e-07
-6.86426e-06
-1.36604e-05
8.05063e-07
-3.56002e-05
2.64985e-05
-2.02979e-05
-4.0585e-07
-2.21844e-05
3.71357e-06
-7.36541e-06
2.87147e-06
-4.11894e-07
4.69856e-06
3.77901e-06
-2.62665e-06
2.4571e-06
-1.46993e-06
2.2466e-06
-4.81704e-06
-1.94178e-06
0.000108809
-1.05777e-05
0.000108638
-4.78344e-05
6.62916e-05
-3.84589e-05
7.41769e-05
-0.000116621
2.08725e-05
3.45359e-05
9.14679e-06
2.20313e-05
9.57441e-06
6.74002e-06
1.34691e-05
-3.22984e-06
1.36899e-05
-2.85274e-06
-3.89174e-06
9.15226e-05
-2.29496e-05
2.99873e-05
-2.67101e-05
1.10229e-05
-8.22247e-05
-9.62677e-05
-1.21068e-05
-5.98593e-05
1.16285e-05
-3.38619e-05
1.1139e-05
-2.30166e-05
2.73339e-06
-1.59159e-05
-8.41152e-06
-1.57255e-05
-7.07039e-06
-6.38593e-06
4.32448e-05
-4.70625e-06
2.29913e-05
-2.16349e-05
-2.61081e-05
-2.05047e-05
-2.6925e-05
-2.93507e-06
-1.396e-05
8.83207e-06
-1.61261e-05
1.87252e-05
-8.32911e-06
-1.16789e-06
-9.10654e-06
-9.88219e-06
-1.13806e-05
-6.88618e-06
-4.63699e-06
3.93857e-05
4.66898e-05
2.43155e-05
1.33648e-05
5.52706e-07
7.25779e-06
1.41555e-05
1.30297e-05
8.6008e-06
)
;

boundaryField
{
    inlet
    {
        type            fixedValue;
        value           nonuniform 0();
    }
    outlet
    {
        type            calculated;
        value           nonuniform List<scalar> 
20
(
3.25023e-05
2.89255e-05
2.38786e-05
2.31044e-05
4.0314e-05
2.91251e-05
2.5534e-05
1.95509e-05
3.78595e-05
3.07551e-05
1.10327e-05
1.14636e-05
3.7999e-05
2.61582e-06
4.54878e-06
-1.89574e-06
8.79213e-06
-1.57072e-05
-1.99918e-05
5.23107e-06
)
;
    }
    bottom
    {
        type            fixedValue;
        value           uniform 0;
    }
    top
    {
        type            symmetryPlane;
        value           nonuniform List<scalar> 
40
(
-5.18222e-11
-5.22401e-11
-9.00554e-11
-1.21199e-10
-3.97413e-11
-6.99185e-11
-2.09924e-10
-1.79977e-10
-6.91912e-11
-1.41962e-10
-2.22728e-10
-2.26578e-10
-2.49343e-10
-2.93685e-10
-2.64276e-10
-2.19779e-10
-3.22413e-10
-2.82328e-10
-2.11646e-10
-2.94242e-10
-3.47023e-10
-7.8324e-10
-4.10924e-10
-3.46616e-10
-3.35095e-10
-5.97823e-10
-4.78968e-10
-3.70893e-10
-2.70898e-10
-5.22436e-10
-5.0706e-10
-5.16838e-10
-2.96787e-10
-5.18832e-10
-8.49117e-10
-6.58205e-10
-3.62079e-10
-7.30923e-10
-1.97528e-09
-1.13566e-09
)
;
    }
    side1
    {
        type            symmetryPlane;
        value           uniform 0;
    }
    side2
    {
        type            symmetryPlane;
        value           nonuniform 0();
    }
    procBoundary7to6
    {
        type            processor;
        value           nonuniform List<scalar> 
20
(
-4.75235e-05
8.57338e-06
-6.21556e-06
-3.69584e-06
-2.17875e-05
-8.30926e-06
3.69218e-05
1.07218e-05
-3.83754e-05
-2.05582e-05
7.02837e-06
2.06545e-05
-7.47076e-05
-7.02411e-05
-4.89249e-06
7.38018e-06
-0.000107028
-9.24786e-05
-4.89998e-05
-3.97493e-05
)
;
    }
    procBoundary7to15
    {
        type            processor;
        value           nonuniform List<scalar> 
50
(
1.01061e-05
8.89477e-06
7.60515e-06
7.57987e-06
7.74108e-06
6.3788e-06
5.1028e-06
4.36196e-06
4.23656e-06
2.17488e-06
1.02907e-05
1.01498e-05
6.58326e-06
4.38235e-06
2.62257e-06
1.81634e-06
2.99496e-06
5.68255e-06
8.87765e-06
7.89111e-06
1.35657e-06
-4.46167e-07
4.31423e-06
4.97658e-07
-2.60169e-06
-3.14843e-06
-2.30042e-06
5.90468e-07
5.03594e-06
5.57359e-06
-2.45735e-06
1.71418e-06
4.26447e-06
1.83971e-05
6.09281e-06
-7.91807e-06
-7.08661e-06
-5.24669e-06
-1.49487e-06
1.15679e-07
-3.53748e-06
-2.44032e-06
1.46406e-06
1.17294e-05
2.45159e-05
1.6719e-05
-1.06919e-05
-1.02257e-05
-7.2737e-06
-3.2079e-06
)
;
    }
}


// ************************************************************************* //
