/*--------------------------------*- C++ -*----------------------------------*\
| =========                 |                                                 |
| \\      /  F ield         | OpenFOAM: The Open Source CFD Toolbox           |
|  \\    /   O peration     | Version:  2.4.0                                 |
|   \\  /    A nd           | Web:      www.OpenFOAM.org                      |
|    \\/     M anipulation  |                                                 |
\*---------------------------------------------------------------------------*/
FoamFile
{
    version     2.0;
    format      ascii;
    class       volScalarField;
    location    "0.01";
    object      nut;
}
// * * * * * * * * * * * * * * * * * * * * * * * * * * * * * * * * * * * * * //

dimensions      [0 2 -1 0 0 0 0];

internalField   nonuniform List<scalar> 
41
(
93667.9
74257
74160.8
82231.9
58871.5
33153.5
148603
118665
73397
67503.3
67055.9
191228
150293
142382
117031
103361
103871
74722.2
39408.9
117259
75917
211432
155058
106821
52504.5
36354
78064.7
82288.8
94783.1
88837.5
112005
266155
316907
348675
245992
195654
396707
176300
196576
223956
156516
)
;

boundaryField
{
    inlet
    {
        type            calculated;
        value           nonuniform 0();
    }
    outlet
    {
        type            calculated;
        value           nonuniform 0();
    }
    bottom
    {
        type            calculated;
        value           nonuniform 0();
    }
    top
    {
        type            symmetryPlane;
    }
    side1
    {
        type            symmetryPlane;
    }
    side2
    {
        type            symmetryPlane;
    }
    procBoundary73to9
    {
        type            processor;
        value           nonuniform List<scalar> 
22
(
88087.9
44547
61896.8
111155
81179.6
46229.6
147622
126409
128272
108874
57756.7
296493
305184
290206
156496
81622.1
81622.1
171452
174455
162257
159558
159558
)
;
    }
    procBoundary73to72
    {
        type            processor;
        value           nonuniform List<scalar> 8(196888 221353 288289 115674 250617 113580 366286 295314);
    }
    procBoundary73to74
    {
        type            processor;
        value           nonuniform List<scalar> 9(95019.5 33034.6 38562.6 97418.6 60945.3 38046.1 85336.1 142602 119695);
    }
    procBoundary73to89
    {
        type            processor;
        value           nonuniform List<scalar> 
11
(
59246.1
99811
108644
69586.5
74006.9
87285.7
382608
157738
72527.6
334523
364275
)
;
    }
}


// ************************************************************************* //
