/*--------------------------------*- C++ -*----------------------------------*\
| =========                 |                                                 |
| \\      /  F ield         | OpenFOAM: The Open Source CFD Toolbox           |
|  \\    /   O peration     | Version:  2.4.0                                 |
|   \\  /    A nd           | Web:      www.OpenFOAM.org                      |
|    \\/     M anipulation  |                                                 |
\*---------------------------------------------------------------------------*/
FoamFile
{
    version     2.0;
    format      ascii;
    class       volVectorField;
    location    "0.1";
    object      A_Source;
}
// * * * * * * * * * * * * * * * * * * * * * * * * * * * * * * * * * * * * * //

dimensions      [1 -2 -2 0 0 0 0];

internalField   nonuniform List<vector> 
200
(
(1.08377e-55 -9.51815e-56 1.75502e-55)
(8.18985e-58 -7.19121e-58 1.32623e-57)
(6.32097e-60 -5.5492e-60 1.02359e-59)
(4.79211e-62 -4.20631e-62 7.76015e-62)
(3.53016e-64 -3.09813e-64 5.7166e-64)
(2.52752e-66 -2.21782e-66 4.09296e-66)
(1.76515e-68 -1.54859e-68 2.85841e-68)
(1.20727e-70 -1.05896e-70 1.95501e-70)
(8.11525e-73 -7.11692e-73 1.31415e-72)
(5.37611e-75 -4.71377e-75 8.70586e-75)
(3.99464e-58 -3.50934e-58 6.46875e-58)
(2.72834e-60 -2.3965e-60 4.41816e-60)
(1.94122e-62 -1.7048e-62 3.14353e-62)
(1.41141e-64 -1.23928e-64 2.28558e-64)
(1.02938e-66 -9.03683e-67 1.66694e-66)
(7.44163e-69 -6.53181e-69 1.20507e-68)
(5.30171e-71 -4.65272e-71 8.58537e-71)
(3.71538e-73 -3.26002e-73 6.01653e-73)
(2.56156e-75 -2.24722e-75 4.14809e-75)
(1.73931e-77 -1.5256e-77 2.81657e-77)
(1.32859e-60 -1.16743e-60 2.15146e-60)
(9.06239e-63 -7.96219e-63 1.46753e-62)
(6.25859e-65 -5.49799e-65 1.01349e-64)
(4.39314e-67 -3.85861e-67 7.11407e-67)
(3.12133e-69 -2.74106e-69 5.05455e-69)
(2.22821e-71 -1.95641e-71 3.60828e-71)
(1.58694e-73 -1.39312e-73 2.56983e-73)
(1.12181e-75 -9.84633e-76 1.81662e-75)
(7.84703e-78 -6.88628e-78 1.27072e-77)
(5.42337e-80 -4.75854e-80 8.78238e-80)
(4.00877e-63 -3.50352e-63 6.49165e-63)
(2.8269e-65 -2.46981e-65 4.57776e-65)
(1.97435e-67 -1.72448e-67 3.19719e-67)
(1.37871e-69 -1.20395e-69 2.23263e-69)
(9.67046e-72 -8.44311e-72 1.56599e-71)
(6.81519e-74 -5.94931e-74 1.10362e-73)
(4.8141e-76 -4.20185e-76 7.79575e-76)
(3.3966e-78 -2.96418e-78 5.50032e-78)
(2.38569e-80 -2.08162e-80 3.86328e-80)
(1.66368e-82 -1.45136e-82 2.69409e-82)
(1.64569e-57 -1.44511e-57 2.66497e-57)
(1.2774e-59 -1.12148e-59 2.06858e-59)
(1.01238e-61 -8.88649e-62 1.63941e-61)
(7.87511e-64 -6.91145e-64 1.27526e-63)
(5.94746e-66 -5.21883e-66 9.63107e-66)
(4.36223e-68 -3.82717e-68 7.06401e-68)
(3.11875e-70 -2.73573e-70 5.05038e-70)
(2.18238e-72 -1.914e-72 3.53405e-72)
(1.50008e-74 -1.31534e-74 2.42916e-74)
(1.01566e-76 -8.90395e-77 1.64471e-76)
(6.24227e-60 -5.48322e-60 1.01085e-59)
(4.37002e-62 -3.83801e-62 7.07664e-62)
(3.18695e-64 -2.79845e-64 5.16082e-64)
(2.37454e-66 -2.08468e-66 3.84523e-66)
(1.77396e-68 -1.55714e-68 2.87269e-68)
(1.31295e-70 -1.15228e-70 2.12614e-70)
(9.57117e-73 -8.39842e-73 1.54992e-72)
(6.85928e-75 -6.01778e-75 1.11076e-74)
(4.83369e-77 -4.23995e-77 7.82749e-77)
(3.353e-79 -2.9406e-79 5.42971e-79)
(2.13263e-62 -1.87371e-62 3.45349e-62)
(1.4899e-64 -1.30887e-64 2.41268e-64)
(1.05349e-66 -9.25353e-67 1.70599e-66)
(7.56935e-69 -6.64755e-69 1.22575e-68)
(5.50338e-71 -4.83232e-71 8.91194e-71)
(4.01886e-73 -3.52819e-73 6.50798e-73)
(2.92676e-75 -2.56898e-75 4.73947e-75)
(2.11462e-77 -1.8558e-77 3.42433e-77)
(1.51114e-79 -1.32595e-79 2.44708e-79)
(1.06649e-81 -9.35635e-82 1.72703e-81)
(6.60149e-65 -5.768e-65 1.06902e-64)
(4.76575e-67 -4.1627e-67 7.71747e-67)
(3.4058e-69 -2.97401e-69 5.51522e-69)
(2.43257e-71 -2.12369e-71 3.93921e-71)
(1.74456e-73 -1.52277e-73 2.82508e-73)
(1.25668e-75 -1.09675e-75 2.03502e-75)
(9.0704e-78 -7.9149e-78 1.46882e-77)
(6.53681e-80 -5.70323e-80 1.05854e-79)
(4.68792e-82 -4.08944e-82 7.59143e-82)
(3.33666e-84 -2.91015e-84 5.40325e-84)
(1.28989e-59 -1.13252e-59 2.0888e-59)
(1.02784e-61 -9.02254e-62 1.66444e-61)
(8.36014e-64 -7.3373e-64 1.35381e-63)
(6.66913e-66 -5.85221e-66 1.07997e-65)
(5.16111e-68 -4.52817e-68 8.35769e-68)
(3.87618e-70 -3.40025e-70 6.27693e-70)
(2.83584e-72 -2.48721e-72 4.59224e-72)
(2.02949e-74 -1.77965e-74 3.28647e-74)
(1.42593e-76 -1.25015e-76 2.30909e-76)
(9.86393e-79 -8.64613e-79 1.59733e-78)
(5.03188e-62 -4.41944e-62 8.14842e-62)
(3.60889e-64 -3.16912e-64 5.84408e-64)
(2.6963e-66 -2.3673e-66 4.36628e-66)
(2.05775e-68 -1.80633e-68 3.33224e-68)
(1.57402e-70 -1.38145e-70 2.54891e-70)
(1.19219e-72 -1.04615e-72 1.93059e-72)
(8.88913e-75 -7.7989e-75 1.43947e-74)
(6.51239e-77 -5.71267e-77 1.05459e-76)
(4.6891e-79 -4.11255e-79 7.59333e-79)
(3.32189e-81 -2.91291e-81 5.37933e-81)
(1.76488e-64 -1.55043e-64 2.85798e-64)
(1.26225e-66 -1.10874e-66 2.04404e-66)
(9.13417e-69 -8.02218e-69 1.47915e-68)
(6.7149e-71 -5.89644e-71 1.08738e-70)
(4.99391e-73 -4.38444e-73 8.08693e-73)
(3.72909e-75 -3.2734e-75 6.03874e-75)
(2.77592e-77 -2.43627e-77 4.49522e-77)
(2.04923e-79 -1.79818e-79 3.31843e-79)
(1.49557e-81 -1.31213e-81 2.42187e-81)
(1.0775e-83 -9.45173e-84 1.74486e-83)
(5.60176e-67 -4.89326e-67 9.07126e-67)
(4.13824e-69 -3.61367e-69 6.7013e-69)
(3.02481e-71 -2.64064e-71 4.89825e-71)
(2.20887e-73 -1.9279e-73 3.57696e-73)
(1.61911e-75 -1.41291e-75 2.62193e-75)
(1.19171e-77 -1.03978e-77 1.9298e-77)
(8.78594e-80 -7.66478e-80 1.42276e-79)
(6.46543e-82 -5.63958e-82 1.04699e-81)
(4.73289e-84 -4.12766e-84 7.66424e-84)
(3.43724e-86 -2.99715e-86 5.56612e-86)
(6.92745e-62 -6.08141e-62 1.1218e-61)
(5.66314e-64 -4.97048e-64 9.17066e-64)
(4.72439e-66 -4.14578e-66 7.65048e-66)
(3.8627e-68 -3.38905e-68 6.25509e-68)
(3.06142e-70 -2.68559e-70 4.95753e-70)
(2.3531e-72 -2.06388e-72 3.81052e-72)
(1.7608e-74 -1.5441e-74 2.85136e-74)
(1.28815e-76 -1.12941e-76 2.08598e-76)
(9.24727e-79 -8.1061e-79 1.49747e-78)
(6.5328e-81 -5.72541e-81 1.0579e-80)
(2.77732e-64 -2.43898e-64 4.49748e-64)
(2.0395e-66 -1.79075e-66 3.30268e-66)
(1.5602e-68 -1.36965e-68 2.52653e-68)
(1.21897e-70 -1.06989e-70 1.97395e-70)
(9.54189e-73 -8.37338e-73 1.54518e-72)
(7.39243e-75 -6.486e-75 1.1971e-74)
(5.63498e-77 -4.94319e-77 9.12506e-77)
(4.21838e-79 -3.69986e-79 6.83108e-79)
(3.10211e-81 -2.72032e-81 5.02344e-81)
(2.24346e-83 -1.96698e-83 3.63297e-83)
(9.99419e-67 -8.77872e-67 1.61842e-66)
(7.31363e-69 -6.42343e-69 1.18434e-68)
(5.41355e-71 -4.75393e-71 8.76649e-71)
(4.06986e-73 -3.57336e-73 6.59057e-73)
(3.09458e-75 -2.71657e-75 5.01123e-75)
(2.36184e-77 -2.07297e-77 3.82467e-77)
(1.79632e-79 -1.57633e-79 2.90888e-79)
(1.3543e-81 -1.18824e-81 2.19311e-81)
(1.00903e-83 -8.85149e-84 1.63398e-83)
(7.41825e-86 -6.50637e-86 1.20128e-85)
(3.25074e-69 -2.83888e-69 5.26412e-69)
(2.45615e-71 -2.14426e-71 3.9774e-71)
(1.83535e-73 -1.60184e-73 2.9721e-73)
(1.36967e-75 -1.19514e-75 2.21799e-75)
(1.02568e-77 -8.94827e-78 1.66095e-77)
(7.71028e-80 -6.72564e-80 1.24857e-79)
(5.80394e-82 -5.06207e-82 9.39867e-82)
(4.35941e-84 -3.80164e-84 7.05946e-84)
(3.25613e-86 -2.83907e-86 5.27285e-86)
(2.41199e-88 -2.10267e-88 3.90588e-88)
(2.87351e-64 -2.52222e-64 4.62179e-64)
(2.40864e-66 -2.11373e-66 3.87344e-66)
(2.05983e-68 -1.8073e-68 3.31194e-68)
(1.72525e-70 -1.51348e-70 2.77351e-70)
(1.39972e-72 -1.22771e-72 2.24981e-72)
(1.1006e-74 -9.65183e-75 1.76873e-74)
(8.41996e-77 -7.38268e-77 1.35291e-76)
(6.29438e-79 -5.51791e-79 1.01121e-78)
(4.61507e-81 -4.04494e-81 7.41301e-81)
(3.32851e-83 -2.91669e-83 5.34556e-83)
(1.18327e-66 -1.03898e-66 1.90284e-66)
(8.89256e-69 -7.80694e-69 1.42981e-68)
(6.96212e-71 -6.111e-71 1.11924e-70)
(5.566e-73 -4.88462e-73 8.94648e-73)
(4.45681e-75 -3.91049e-75 7.16244e-75)
(3.53033e-77 -3.09704e-77 5.67257e-77)
(2.75008e-79 -2.41213e-79 4.41812e-79)
(2.10287e-81 -1.84413e-81 3.37779e-81)
(1.57883e-83 -1.38433e-83 2.53562e-83)
(1.16525e-85 -1.02151e-85 1.87109e-85)
(4.36621e-69 -3.83474e-69 7.02021e-69)
(3.26778e-71 -2.86969e-71 5.25327e-71)
(2.4731e-73 -2.1715e-73 3.9751e-73)
(1.90058e-75 -1.66851e-75 3.05438e-75)
(1.47691e-77 -1.29635e-77 2.37313e-77)
(1.15167e-79 -1.01068e-79 1.85021e-79)
(8.94598e-82 -7.84942e-82 1.43698e-81)
(6.88593e-84 -6.04082e-84 1.1059e-83)
(5.23572e-86 -4.59234e-86 8.40729e-86)
(3.9267e-88 -3.44357e-88 6.30427e-88)
(1.45463e-71 -1.27001e-71 2.33844e-71)
(1.12363e-73 -9.80696e-74 1.80604e-73)
(8.58015e-76 -7.48658e-76 1.37889e-75)
(6.54104e-78 -5.70608e-78 1.05102e-77)
(5.00234e-80 -4.36304e-80 8.03651e-80)
(3.8392e-82 -3.34808e-82 6.16688e-82)
(2.94973e-84 -2.57205e-84 4.73734e-84)
(2.26069e-86 -1.97096e-86 3.63013e-86)
(1.72237e-88 -1.5014e-88 2.76527e-88)
(1.30096e-90 -1.13384e-90 2.08834e-90)
)
;

boundaryField
{
    inlet
    {
        type            zeroGradient;
    }
    outlet
    {
        type            zeroGradient;
    }
    bottom
    {
        type            zeroGradient;
    }
    top
    {
        type            symmetryPlane;
    }
    side1
    {
        type            symmetryPlane;
    }
    side2
    {
        type            symmetryPlane;
    }
    procBoundary26to18
    {
        type            processor;
        value           nonuniform List<vector> 
50
(
(1.18688e-52 -1.04192e-52 1.92198e-52)
(7.94046e-55 -6.9698e-55 1.28585e-54)
(5.21268e-57 -4.57484e-57 8.44121e-57)
(3.38063e-59 -2.96647e-59 5.47445e-59)
(2.17747e-61 -1.91034e-61 3.52611e-61)
(1.39789e-63 -1.22612e-63 2.26369e-63)
(8.9614e-66 -7.85827e-66 1.45117e-65)
(5.73943e-68 -5.03157e-68 9.2942e-68)
(3.67053e-70 -3.21694e-70 5.94391e-70)
(2.34141e-72 -2.05149e-72 3.79159e-72)
(1.77641e-54 -1.5592e-54 2.87665e-54)
(1.22e-56 -1.0707e-56 1.97562e-56)
(8.21595e-59 -7.20951e-59 1.33046e-58)
(5.46273e-61 -4.79277e-61 8.84613e-61)
(3.60531e-63 -3.16252e-63 5.83829e-63)
(2.3704e-65 -2.07881e-65 3.83853e-65)
(1.55553e-67 -1.36383e-67 2.51896e-67)
(1.01936e-69 -8.93494e-70 1.65071e-69)
(6.6673e-72 -5.84241e-72 1.07968e-71)
(4.34778e-74 -3.80878e-74 7.04062e-74)
(1.37267e-56 -1.20464e-56 2.22285e-56)
(9.67202e-59 -8.48708e-59 1.56625e-58)
(6.67831e-61 -5.85933e-61 1.08146e-60)
(4.55009e-63 -3.99144e-63 7.36823e-63)
(3.07557e-65 -2.69743e-65 4.98046e-65)
(2.07001e-67 -1.81508e-67 3.35209e-67)
(1.38995e-69 -1.21847e-69 2.25084e-69)
(9.3161e-72 -8.16447e-72 1.50861e-71)
(6.22955e-74 -5.45791e-74 1.00879e-73)
(4.15135e-76 -3.63609e-76 6.72252e-76)
(7.26962e-59 -6.37875e-59 1.17721e-58)
(5.25199e-61 -4.60784e-61 8.50486e-61)
(3.71593e-63 -3.25974e-63 6.01743e-63)
(2.59284e-65 -2.27415e-65 4.19874e-65)
(1.794e-67 -1.57318e-67 2.90512e-67)
(1.23541e-69 -1.08309e-69 2.00057e-69)
(8.4839e-72 -7.43599e-72 1.37385e-71)
(5.81309e-74 -5.09366e-74 9.41349e-74)
(3.97221e-76 -3.4796e-76 6.43243e-76)
(2.7039e-78 -2.3679e-78 4.37858e-78)
(2.97416e-61 -2.60928e-61 4.78412e-61)
(2.20195e-63 -1.93159e-63 3.5414e-63)
(1.59561e-65 -1.39951e-65 2.56581e-65)
(1.13968e-67 -9.99447e-68 1.83236e-67)
(8.06813e-70 -7.07395e-70 1.29697e-69)
(5.68219e-72 -4.98085e-72 9.13276e-72)
(3.98915e-74 -3.49586e-74 6.41056e-74)
(2.7932e-76 -2.44711e-76 4.48793e-76)
(1.9497e-78 -1.70762e-78 3.13213e-78)
(1.35518e-80 -1.18658e-80 2.17671e-80)
)
;
    }
    procBoundary26to25
    {
        type            processor;
        value           nonuniform List<vector> 
20
(
(4.91914e-53 -4.32006e-53 7.96586e-53)
(1.33608e-55 -1.17365e-55 2.1636e-55)
(3.47631e-58 -3.0543e-58 5.62939e-58)
(8.72919e-61 -7.63374e-61 1.41357e-60)
(7.35927e-55 -6.46208e-55 1.19173e-54)
(2.05127e-57 -1.80164e-57 3.32175e-57)
(5.4739e-60 -4.80878e-60 8.86422e-60)
(1.40905e-62 -1.23193e-62 2.28176e-62)
(5.68421e-57 -4.99051e-57 9.20478e-57)
(1.62503e-59 -1.42708e-59 2.6315e-59)
(4.44524e-62 -3.90461e-62 7.19844e-62)
(1.17242e-64 -1.0248e-64 1.89857e-64)
(3.00906e-59 -2.64146e-59 4.87276e-59)
(8.81769e-62 -7.74254e-62 1.4279e-61)
(2.47111e-64 -2.1703e-64 4.00162e-64)
(6.67413e-67 -5.8324e-67 1.08078e-66)
(1.23057e-61 -1.08007e-61 1.97945e-61)
(3.6943e-64 -3.24341e-64 5.94157e-64)
(1.06012e-66 -9.30954e-67 1.70473e-66)
(2.93066e-69 -2.56043e-69 4.71189e-69)
)
;
    }
    procBoundary26to27
    {
        type            processor;
        value           nonuniform List<vector> 
20
(
(7.61211e-78 -6.67466e-78 1.23267e-77)
(3.58368e-80 -3.14385e-80 5.80326e-80)
(1.46568e-82 -1.28622e-82 2.37347e-82)
(5.4151e-85 -4.72084e-85 8.76899e-85)
(1.45311e-79 -1.27397e-79 2.35311e-79)
(6.99617e-82 -6.13673e-82 1.13293e-81)
(2.9222e-84 -2.56409e-84 4.7321e-84)
(1.10179e-86 -9.60293e-87 1.7842e-86)
(1.42583e-81 -1.24987e-81 2.30892e-81)
(7.01808e-84 -6.15513e-84 1.13648e-83)
(2.99278e-86 -2.62569e-86 4.84639e-86)
(1.15124e-88 -1.00314e-88 1.86427e-88)
(9.53913e-84 -8.36074e-84 1.54473e-83)
(4.79806e-86 -4.20753e-86 7.76978e-86)
(2.08813e-88 -1.83178e-88 3.38144e-88)
(8.19202e-91 -7.13634e-91 1.32658e-90)
(4.90904e-86 -4.30199e-86 7.88325e-86)
(2.52237e-88 -2.21163e-88 4.04987e-88)
(1.11996e-90 -9.82346e-91 1.79789e-90)
(4.47974e-93 -3.90146e-93 7.19018e-93)
)
;
    }
}


// ************************************************************************* //
