/*--------------------------------*- C++ -*----------------------------------*\
| =========                 |                                                 |
| \\      /  F ield         | OpenFOAM: The Open Source CFD Toolbox           |
|  \\    /   O peration     | Version:  2.4.0                                 |
|   \\  /    A nd           | Web:      www.OpenFOAM.org                      |
|    \\/     M anipulation  |                                                 |
\*---------------------------------------------------------------------------*/
FoamFile
{
    version     2.0;
    format      ascii;
    class       volSymmTensorField;
    location    "0.1";
    object      B;
}
// * * * * * * * * * * * * * * * * * * * * * * * * * * * * * * * * * * * * * //

dimensions      [0 2 -2 0 0 0 0];

internalField   nonuniform List<symmTensor> 
200
(
(3.81885e+12 6.30814e+11 8.45276e+11 2.38191e+12 7.87656e+11 2.9843e+12)
(4.31159e+12 1.83976e+11 6.48996e+11 3.20691e+12 1.15494e+12 3.64201e+12)
(2.68866e+13 7.5852e+11 3.68459e+12 2.25154e+13 9.30665e+11 2.43096e+13)
(2.17098e+12 -1.98553e+11 3.13705e+10 1.9973e+12 1.4806e+12 3.38891e+12)
(3.4693e+13 9.33404e+12 8.94165e+12 1.77752e+13 1.24722e+12 1.82452e+13)
(1.45959e+13 -3.2119e+11 4.78914e+11 9.90566e+12 1.96347e+12 1.28644e+13)
(9.23275e+13 7.73403e+12 1.30696e+13 8.67896e+13 5.04609e+12 8.37428e+13)
(4.30194e+13 -3.26532e+12 7.97441e+12 3.51945e+13 7.12368e+12 4.93454e+13)
(1.49039e+13 9.45801e+12 5.91517e+12 -4.4471e+12 5.45878e+12 1.16908e+13)
(7.11942e+13 -8.92081e+12 1.98669e+13 5.5118e+13 1.30005e+13 8.69771e+13)
(4.85857e+12 3.93903e+11 7.42073e+11 3.93873e+12 9.80837e+11 4.56315e+12)
(4.63472e+12 -4.54668e+11 8.59209e+11 2.84278e+12 7.41418e+11 3.94068e+12)
(5.27023e+12 -6.35261e+11 9.43817e+11 4.10228e+12 1.60387e+12 3.97853e+12)
(4.85125e+13 1.88279e+12 4.67421e+12 4.07646e+13 -8.44705e+11 4.29582e+13)
(9.04819e+12 -1.47147e+12 2.36686e+11 4.8045e+12 1.45337e+12 7.91321e+12)
(7.25151e+13 1.45467e+13 2.51018e+13 6.01316e+13 4.91913e+12 5.29815e+13)
(2.15638e+13 -2.03036e+12 4.73962e+12 1.74444e+13 2.77827e+12 2.36659e+13)
(2.53658e+13 6.14781e+12 1.37739e+13 9.34269e+12 1.88379e+12 2.25698e+13)
(5.98475e+13 -7.9563e+12 1.71064e+13 5.75929e+13 5.29664e+12 7.75605e+13)
(1.75985e+13 1.1847e+11 4.59984e+12 1.06313e+13 3.81888e+11 2.08772e+13)
(4.98758e+12 -2.73247e+11 2.15462e+12 3.85402e+12 8.34867e+11 5.95473e+12)
(7.99668e+12 5.82297e+11 1.75907e+12 7.03049e+12 1.76394e+12 8.49224e+12)
(3.89675e+12 -1.02944e+12 2.35462e+11 1.16119e+12 7.30328e+11 3.05533e+12)
(1.14564e+13 -3.12344e+12 -1.612e+12 1.03704e+13 1.20004e+12 9.24562e+12)
(1.26147e+14 3.47766e+12 6.28619e+12 1.17384e+14 -1.5894e+12 1.18299e+14)
(1.4063e+13 -2.76458e+12 3.61163e+12 6.28503e+12 -1.19357e+11 1.21113e+13)
(5.54365e+13 7.9654e+12 2.58639e+13 7.14971e+13 1.57896e+13 5.82934e+13)
(4.49147e+13 -3.56801e+12 9.73491e+12 4.27369e+13 1.81523e+12 5.15605e+13)
(1.58628e+13 2.57678e+12 4.53772e+12 5.33298e+12 -4.62322e+11 1.3817e+13)
(2.74474e+13 -2.33428e+12 1.74859e+13 3.39152e+13 1.85518e+12 5.24612e+13)
(1.18147e+13 1.07461e+12 2.53484e+12 9.50426e+12 1.32808e+12 1.31399e+13)
(6.36698e+12 -1.68155e+12 1.73196e+12 2.92231e+12 6.31273e+09 8.18553e+12)
(2.3221e+12 2.44279e+11 9.37637e+11 8.67633e+11 9.7752e+11 4.37286e+12)
(3.80526e+12 2.41471e+11 4.79546e+11 1.62616e+12 6.73878e+11 2.73544e+12)
(2.95517e+13 -2.85637e+12 -1.65158e+12 2.99973e+13 2.25938e+11 2.76864e+13)
(3.88069e+14 3.78422e+12 7.15162e+12 3.83673e+14 -3.21323e+12 3.8145e+14)
(1.85749e+14 2.67996e+12 1.21608e+13 1.69561e+14 1.67979e+13 1.88761e+14)
(1.67914e+13 -2.90562e+13 -1.54946e+13 2.28595e+13 -2.88313e+13 4.11218e+13)
(6.05878e+13 -1.93975e+12 2.34291e+13 5.83484e+13 1.48239e+13 7.80803e+13)
(1.38763e+13 -2.54233e+10 5.39256e+12 1.09304e+13 -5.54519e+12 1.65291e+13)
(1.04489e+12 5.10416e+11 -9.58155e+10 5.80619e+11 2.38901e+11 1.2559e+12)
(2.25268e+12 6.58787e+11 4.33125e+11 1.74433e+12 -3.05199e+11 3.06319e+12)
(2.07071e+12 4.60044e+11 -3.95165e+11 1.91196e+12 -4.50681e+10 2.03746e+12)
(8.00589e+12 2.12931e+12 -6.86501e+11 6.70824e+12 1.27655e+12 6.8108e+12)
(4.93353e+12 4.85947e+11 -1.26944e+12 3.411e+12 -8.35998e+10 4.34306e+12)
(1.8865e+13 3.73931e+12 4.09517e+11 1.36966e+13 7.5738e+11 1.37944e+13)
(1.00858e+13 -1.84767e+12 -4.80837e+11 5.2571e+12 -8.16281e+11 1.08437e+13)
(5.69543e+13 1.14703e+13 6.18809e+12 5.19214e+13 2.88011e+12 4.35957e+13)
(2.84399e+13 -4.47161e+12 6.1968e+12 2.07473e+13 6.85894e+11 3.84701e+13)
(3.38527e+12 -9.77506e+12 7.57676e+12 1.74158e+13 -6.83036e+12 2.8451e+13)
(8.74493e+11 -7.51114e+10 1.51551e+11 3.17755e+11 -6.71476e+11 1.17692e+12)
(1.82138e+12 6.06014e+11 -3.0954e+11 1.37581e+12 1.56391e+11 1.29101e+12)
(1.05459e+13 8.44922e+11 -2.4476e+11 1.00063e+13 1.15766e+12 1.07829e+13)
(3.89378e+12 6.06004e+10 -7.57281e+11 2.91033e+12 3.26372e+11 2.93455e+12)
(1.19957e+13 2.59627e+12 -4.58543e+10 6.21936e+12 1.56016e+12 7.22508e+12)
(1.33425e+13 -1.33263e+12 -9.77448e+11 8.40697e+12 -1.27137e+12 1.16422e+13)
(7.19003e+13 7.86724e+12 6.82106e+12 6.60281e+13 2.69567e+12 6.12834e+13)
(2.96596e+13 -5.863e+12 5.73739e+12 2.6901e+13 -1.33924e+12 3.76056e+13)
(2.7969e+13 9.28848e+12 2.56552e+12 7.10527e+12 -2.61705e+12 1.11449e+13)
(1.34444e+13 3.69655e+12 -8.89892e+12 5.43116e+12 9.49084e+11 1.37678e+13)
(3.99112e+12 1.11259e+12 3.69147e+10 2.94064e+12 7.78118e+11 3.70179e+12)
(2.09035e+12 4.02223e+11 -7.05067e+11 5.24906e+11 -3.3742e+11 1.83899e+12)
(3.49774e+12 6.32511e+11 -6.21727e+11 2.62567e+12 1.20108e+12 2.72441e+12)
(1.55051e+13 1.41156e+12 -2.49963e+11 1.4581e+13 2.30181e+12 1.62057e+13)
(1.85378e+13 -1.43251e+12 -1.40678e+12 1.32234e+13 -2.43536e+12 1.50957e+13)
(5.84142e+13 6.32835e+12 7.99277e+12 4.62901e+13 -2.0578e+12 4.6217e+13)
(2.22257e+13 -3.71973e+12 3.78803e+12 2.04773e+13 -1.38877e+12 2.53505e+13)
(2.36535e+13 7.42685e+12 -5.71926e+11 4.23934e+12 2.18172e+12 2.80047e+12)
(1.31322e+13 -6.17194e+12 8.96883e+12 1.785e+13 -2.38864e+12 3.28317e+13)
(1.50252e+13 8.57696e+11 5.10441e+12 1.19917e+13 -1.98405e+12 1.63807e+13)
(4.54439e+12 -1.60024e+12 4.12932e+11 3.09666e+12 -9.65508e+11 4.35437e+12)
(3.86042e+12 1.51931e+12 7.40074e+11 2.49965e+12 1.10785e+12 3.42977e+12)
(6.35889e+12 1.48389e+12 -1.2871e+11 3.86099e+12 9.27279e+11 6.17443e+12)
(3.05194e+13 -1.97394e+12 -2.52395e+12 2.55626e+13 -7.61126e+11 2.59928e+13)
(2.69828e+12 1.27571e+12 -1.86486e+12 4.12265e+12 1.45047e+12 4.33675e+12)
(7.88641e+12 -2.35553e+12 4.93897e+11 1.23348e+13 2.11495e+12 1.68982e+13)
(9.61183e+13 2.40003e+12 4.38922e+12 9.09075e+13 -3.68434e+12 8.92306e+13)
(5.01728e+13 -3.83795e+12 5.8097e+12 4.841e+13 2.83257e+12 5.36031e+13)
(1.79936e+13 3.26373e+12 -5.97235e+12 2.48956e+12 -3.4337e+12 -1.2092e+12)
(1.39451e+12 2.41001e+12 5.89053e+12 6.84808e+12 -2.47381e+11 2.27036e+13)
(1.2152e+13 2.22841e+12 1.40329e+12 8.00176e+12 -8.04998e+11 1.11263e+13)
(2.21952e+12 -3.26578e+11 -4.62864e+11 9.00346e+11 -8.28806e+11 1.8852e+12)
(2.10005e+14 1.7697e+13 1.96586e+11 2.27085e+14 1.34359e+12 2.07782e+14)
(2.72009e+12 2.54495e+11 -1.22718e+12 2.12269e+12 -4.01758e+11 1.07297e+12)
(9.05946e+12 -4.77446e+12 4.23686e+12 2.76844e+12 6.37982e+12 1.05305e+13)
(2.14944e+13 -2.10588e+12 1.11755e+12 1.40639e+13 -1.46708e+12 2.00841e+13)
(2.97812e+13 1.58607e+12 1.93605e+12 2.54183e+13 5.49174e+11 2.87168e+13)
(3.10441e+13 -6.9732e+12 1.38695e+13 2.8971e+13 -1.49393e+12 5.22767e+13)
(1.09154e+14 -1.00978e+13 2.41195e+13 1.21592e+14 -5.74254e+12 1.35092e+14)
(1.27077e+14 1.65288e+13 -7.78722e+12 9.7906e+13 -6.43658e+12 1.02008e+14)
(2.01473e+12 -1.83435e+11 -4.35486e+11 1.42958e+12 9.30145e+10 1.50162e+12)
(1.66611e+14 9.63851e+12 9.14252e+10 1.65028e+14 -4.6593e+11 1.66486e+14)
(3.69104e+12 7.56416e+11 -4.01943e+11 3.88226e+12 -4.53688e+10 2.503e+12)
(6.77673e+12 -8.1049e+12 3.79957e+12 1.4813e+12 7.06223e+12 1.59186e+13)
(5.4508e+13 -1.42121e+12 -1.92692e+11 4.19305e+13 -1.70902e+12 4.95358e+13)
(2.80377e+13 -1.0876e+12 1.27215e+12 2.04427e+13 9.20801e+11 2.60751e+13)
(3.26976e+13 -8.46078e+12 1.31093e+13 3.85672e+13 -5.12694e+12 5.50924e+13)
(5.30563e+13 6.02181e+12 1.17319e+13 4.32982e+13 -1.58213e+12 4.80123e+13)
(4.42487e+12 7.88187e+12 -4.9804e+12 -6.00337e+11 -2.27362e+12 6.0713e+12)
(1.30232e+14 -1.04227e+13 2.25683e+13 1.77911e+14 -1.34427e+13 1.83733e+14)
(-1.45161e+12 2.50588e+11 8.64843e+11 8.7954e+11 -7.0749e+11 6.78252e+11)
(1.17061e+13 8.88115e+11 -2.83003e+11 1.13398e+13 8.69333e+11 9.80265e+12)
(1.11055e+14 3.55538e+12 4.25399e+10 1.06163e+14 2.46929e+11 1.10053e+14)
(2.35803e+14 -1.09075e+13 -4.7707e+12 2.12451e+14 -1.64961e+12 2.19253e+14)
(8.89856e+12 -9.95261e+12 2.0702e+12 2.6831e+12 2.0103e+12 1.70022e+13)
(-4.09117e+11 1.74696e+13 2.20704e+13 3.48073e+13 -4.90448e+12 4.72779e+13)
(5.48159e+13 6.22544e+12 4.2292e+12 3.90041e+13 1.59711e+12 4.21226e+13)
(2.68934e+13 -5.69871e+12 1.04571e+13 3.77727e+13 -3.90737e+12 4.70096e+13)
(4.16398e+13 1.03063e+12 1.68038e+13 4.32702e+13 -6.94314e+12 4.93951e+13)
(2.61524e+13 6.86217e+12 -1.14981e+13 1.45735e+13 5.37639e+12 1.7587e+13)
(8.29541e+12 2.71902e+12 4.43473e+11 7.23144e+12 1.37576e+12 6.2774e+12)
(1.35377e+13 5.4152e+12 6.87511e+11 1.0061e+13 -1.76907e+11 1.08961e+13)
(7.89827e+13 -6.17105e+12 -4.42637e+12 6.93702e+13 5.71853e+11 7.09124e+13)
(1.0495e+14 1.07073e+13 -2.65116e+12 8.93042e+13 -2.58936e+12 9.58183e+13)
(1.31353e+13 3.06279e+12 7.92781e+12 1.37803e+13 5.29429e+12 1.44533e+13)
(1.13306e+13 -1.22969e+13 1.65699e+13 1.37675e+13 1.0187e+12 2.67535e+13)
(5.08979e+13 -5.65064e+12 5.53709e+12 5.79706e+13 -1.18369e+12 6.12958e+13)
(2.10801e+13 4.25751e+12 1.61551e+12 1.69688e+13 8.85698e+11 1.33223e+13)
(3.85611e+12 5.27094e+12 1.18746e+13 1.85381e+13 -7.1208e+12 2.96606e+13)
(4.90989e+13 -6.40546e+12 1.03581e+13 5.57054e+13 -3.6493e+12 5.73905e+13)
(4.73312e+12 -8.95436e+11 5.39657e+10 3.99217e+12 -5.3025e+11 3.69072e+12)
(7.06403e+13 6.20597e+12 -4.68381e+12 6.90183e+13 3.40706e+11 7.00536e+13)
(9.20999e+12 1.89016e+12 -2.66899e+12 1.14727e+13 -1.15111e+12 1.06646e+13)
(3.28291e+13 1.20115e+13 2.39185e+13 2.19965e+13 4.80144e+12 2.55899e+13)
(3.99512e+13 -4.94514e+12 4.18122e+12 2.4878e+13 2.04385e+12 3.28294e+13)
(2.78055e+13 3.33889e+12 7.10493e+12 1.40589e+13 -9.45571e+11 2.08996e+13)
(2.78235e+13 -1.67658e+13 2.01667e+13 1.1372e+13 6.90313e+12 3.25725e+13)
(1.55008e+14 -1.09443e+13 2.42146e+13 1.56717e+14 -4.69098e+12 1.71311e+14)
(1.2082e+14 5.2737e+12 -9.84129e+12 9.33662e+13 -5.15386e+12 8.68478e+13)
(-3.63916e+13 -1.30309e+13 1.93686e+13 5.89018e+13 -7.91946e+12 7.00748e+13)
(1.98293e+12 1.71556e+12 5.37965e+10 1.47423e+12 5.74052e+11 2.09566e+12)
(9.4879e+12 1.73988e+11 -7.67751e+11 9.67101e+12 -2.02075e+11 9.02039e+12)
(4.98733e+13 7.34802e+12 4.87618e+11 4.29154e+13 -3.73894e+11 4.80137e+13)
(2.28481e+13 -8.49208e+11 1.63169e+12 1.52939e+13 5.96592e+11 1.72435e+13)
(1.83117e+13 5.28516e+12 1.35254e+12 -5.77338e+11 -4.33441e+12 1.2129e+13)
(4.13873e+13 -1.40671e+13 8.62966e+12 3.55566e+13 3.11799e+12 4.36045e+13)
(4.05001e+13 -1.18131e+11 5.13423e+12 3.46717e+13 -3.15347e+12 3.8924e+13)
(8.21845e+12 4.08681e+12 -7.81815e+12 1.08919e+12 3.86087e+11 -6.14429e+12)
(1.80656e+14 -8.48272e+12 3.18394e+13 2.13765e+14 -1.66625e+13 2.23115e+14)
(1.13797e+14 3.58767e+12 -7.33334e+12 9.93549e+13 1.25929e+12 9.22125e+13)
(4.36985e+12 6.67991e+11 -7.9017e+11 3.99926e+12 6.52528e+10 3.14739e+12)
(1.31132e+13 1.19282e+12 2.25693e+11 1.32642e+13 6.61571e+10 1.31266e+13)
(1.44895e+13 3.47075e+11 -5.19024e+11 1.02834e+13 1.45032e+11 1.02533e+13)
(4.33551e+13 8.88007e+12 -5.83996e+11 3.04595e+13 -5.63789e+12 3.77304e+13)
(3.7653e+13 -8.99392e+12 1.61492e+12 3.50834e+13 3.59568e+12 3.97695e+13)
(3.27434e+13 8.38868e+12 -8.45472e+11 1.64852e+13 -3.7817e+12 2.43652e+13)
(-8.80191e+11 -7.5883e+12 1.11151e+13 7.33598e+12 -5.84185e+11 8.81882e+12)
(5.59098e+13 -1.30677e+12 9.83342e+12 5.98345e+13 -8.13499e+12 5.87416e+13)
(2.66487e+13 1.68549e+12 -5.17614e+12 2.26687e+13 2.61486e+12 1.9394e+13)
(1.38222e+14 3.28878e+12 3.58764e+13 1.88061e+14 -2.69095e+13 1.94231e+14)
(2.69103e+12 2.77121e+12 -4.11297e+11 2.38425e+12 -1.08776e+12 -9.4563e+11)
(1.38316e+13 -8.12103e+11 -1.5127e+12 9.57848e+12 8.72895e+11 8.86231e+12)
(1.57194e+13 3.15374e+12 -5.05845e+11 1.31137e+13 -1.52734e+12 1.3467e+13)
(2.35535e+13 -3.70929e+12 -2.23399e+12 1.51491e+13 4.13443e+12 2.19183e+13)
(3.96418e+13 4.81818e+12 -1.6302e+12 2.91873e+13 -6.14455e+12 3.50634e+13)
(2.61762e+13 -1.08822e+13 7.51934e+12 3.04303e+13 6.47587e+11 2.83513e+13)
(2.12643e+13 4.94996e+12 1.34606e+12 1.97277e+13 9.72357e+11 1.16514e+13)
(4.97612e+11 7.8321e+12 8.98042e+12 1.1642e+13 -5.59088e+12 1.00224e+13)
(6.89072e+13 -7.12892e+12 1.03396e+13 7.89934e+13 -4.43254e+12 7.60884e+13)
(5.22168e+13 7.69097e+12 -8.26815e+12 5.02196e+13 7.50306e+12 4.17392e+13)
(9.23183e+12 -6.80903e+11 -4.11909e+10 5.84582e+12 1.56947e+12 5.80258e+12)
(3.59358e+12 -2.19395e+11 5.78133e+11 1.58225e+12 -1.48337e+12 1.80479e+12)
(1.74145e+13 1.79089e+12 -2.77235e+12 1.67014e+13 -1.04475e+12 2.12583e+13)
(5.03077e+12 -3.90016e+11 -2.32542e+11 5.65217e+12 -1.16316e+12 7.83847e+12)
(2.63498e+13 7.93829e+12 3.47522e+12 1.82074e+13 2.31641e+12 2.22367e+13)
(2.99402e+13 -3.44298e+12 3.13451e+12 2.11212e+13 3.02477e+12 2.44213e+13)
(1.1698e+14 -7.4875e+12 2.08932e+13 9.03751e+13 -4.5357e+12 9.52339e+13)
(2.85387e+14 -1.35559e+13 -1.61633e+13 2.29736e+14 2.10432e+12 2.16736e+14)
(1.07668e+14 -3.72757e+13 5.46426e+13 9.58086e+13 -8.6174e+12 8.28593e+13)
(3.80014e+14 -8.38009e+12 4.70381e+13 2.4643e+14 -2.09642e+13 1.72837e+14)
(6.46224e+12 7.18857e+11 -2.63017e+11 4.57151e+12 -1.71352e+12 5.19851e+12)
(2.10796e+12 -8.78755e+10 5.14468e+10 1.40717e+12 1.38211e+12 9.92837e+11)
(3.53843e+12 -6.00844e+11 -5.50384e+11 3.79461e+12 -1.74801e+12 4.66459e+12)
(1.43622e+13 2.03514e+12 -1.41515e+10 1.30819e+13 -1.58339e+11 1.35738e+13)
(3.9047e+12 -1.14295e+12 8.2744e+11 2.08261e+12 8.03098e+11 2.65123e+12)
(2.26888e+13 -1.39484e+12 2.3501e+12 1.18663e+13 -4.6381e+12 1.41827e+13)
(6.59544e+13 -7.45703e+12 -6.93547e+11 5.95795e+13 3.54066e+12 5.52679e+13)
(1.74414e+14 -8.16647e+12 2.75063e+13 1.72328e+14 -1.7044e+13 1.66076e+14)
(2.30733e+14 -1.25799e+13 -2.62916e+13 1.86073e+14 1.93959e+13 1.41851e+14)
(7.17752e+12 2.584e+13 -3.03803e+13 6.56536e+13 -2.26912e+13 1.3903e+13)
(5.27766e+12 -3.92708e+10 -6.82676e+10 2.38994e+12 1.65877e+12 3.33774e+12)
(5.66112e+12 8.31316e+11 -8.87656e+11 4.30011e+12 -1.94903e+12 5.61656e+12)
(1.46959e+12 1.34841e+12 -2.60529e+10 1.68811e+12 4.16769e+11 1.40481e+12)
(1.80627e+12 -2.11877e+11 -6.28834e+11 5.75302e+11 -5.15898e+11 2.22951e+12)
(2.15152e+13 1.63429e+12 -2.19305e+11 1.90192e+13 -9.48345e+11 2.00683e+13)
(9.00718e+12 -1.86154e+12 1.25537e+12 8.67859e+12 1.1391e+12 8.26296e+12)
(4.45926e+13 -4.93688e+11 3.75844e+12 4.12511e+13 -1.12027e+13 3.7816e+13)
(6.70197e+13 -7.93821e+12 -3.40474e+12 6.02454e+13 9.44911e+12 5.03623e+13)
(1.92839e+14 -4.7595e+12 3.91665e+13 2.04825e+14 -3.11263e+13 1.87011e+14)
(2.29847e+14 -4.66373e+12 -2.41227e+13 1.85833e+14 2.4099e+13 1.46634e+14)
(7.43017e+12 1.68414e+12 -7.0803e+11 6.07354e+12 -2.30204e+12 6.24976e+12)
(6.11278e+12 2.18946e+12 -8.62475e+11 1.90167e+12 1.31392e+12 4.47279e+12)
(6.70499e+12 -6.41692e+11 -8.77774e+11 2.61275e+12 -2.43727e+10 5.99266e+12)
(9.11924e+12 1.9968e+12 -5.94462e+11 6.4837e+12 -1.11827e+12 8.87986e+12)
(6.18611e+12 -8.42204e+11 -1.01166e+12 2.63117e+12 1.93857e+12 7.33443e+12)
(3.8971e+13 1.97284e+12 -2.11248e+12 3.09596e+13 -4.072e+12 3.61557e+13)
(3.01011e+13 -4.96707e+12 5.88147e+12 2.95974e+13 4.01582e+12 2.97629e+13)
(6.57992e+13 -3.59756e+12 1.2265e+13 7.69373e+13 -1.56667e+13 6.10425e+13)
(8.07526e+13 2.21074e+12 -9.04295e+12 8.42517e+13 2.03619e+13 5.92094e+13)
(2.02959e+14 -2.67343e+12 3.36243e+13 2.37457e+14 -5.71874e+13 2.04338e+14)
)
;

boundaryField
{
    inlet
    {
        type            calculated;
        value           nonuniform 0();
    }
    outlet
    {
        type            calculated;
        value           nonuniform 0();
    }
    bottom
    {
        type            calculated;
        value           nonuniform List<symmTensor> 
40
(
(46694.6 33958.9 105521 -30661.4 172663 -56882.9)
(33916.6 30871 160330 -38173 75174.5 40380.4)
(2585.26 -12556.2 174533 -49504.2 145808 19592.2)
(18947.8 52390.6 219878 -93691.3 28849.9 173846)
(40715.7 13643.1 169949 -41204.4 103012 -21028.9)
(56229.9 -30288.6 133453 -63144 176987 -43471)
(16205.9 28922.2 184338 -31784 49595.4 100350)
(19698.2 -58938.9 146375 -101039 120495 137920)
(137285 41020.4 281523 -99110.2 165948 -94847.2)
(44128.3 -33019.9 173281 -16580.3 48797 -38134.6)
(55398.5 -52911.3 90369.5 -85203.6 159101 28323.1)
(-470.14 7749.68 131367 -46612.7 -77139.7 54332.4)
(-26723.5 -11379.6 186668 -36677.6 137799 283548)
(238019 96259.1 335915 -158101 21929.9 -126723)
(50267.7 -130987 50426.9 4722.03 -37679.8 -118469)
(62116.9 11787.8 101326 -44259.5 121817 -50564.8)
(175592 145101 203417 -87400.4 73491.3 -305521)
(84391.8 -69850.1 237550 -117054 156468 320555)
(364517 217388 493897 -183228 -123374 -384284)
(25210.5 -252031 -47102.2 64531.3 -15371.9 -177069)
(126203 -18020.3 286288 -136942 285994 434617)
(144122 190986 445811 -18463.7 13532.2 -421208)
(91427.4 -91299 384827 -165437 201489 592987)
(420477 395567 846712 -39012.7 -499992 -782281)
(142159 228163 486062 -21215.4 89243.1 -541506)
(30077.3 -69882.3 438280 -111706 381860 822122)
(-24055.5 81293.8 369790 139856 -1505.79 -530450)
(138771 80490.7 677880 -347413 943680 1.4156e+06)
(23567.9 -79984.6 512892 -168105 591774 1.09511e+06)
(78042.2 92242.6 305918 -162371 -176547 -439057)
(-30226.8 -104479 539932 -93998.4 359944 851320)
(-127852 -234676 -4030.63 -78842 -487259 -358537)
(68069.6 102397 151863 -141434 -179524 -433106)
(-74613.4 -140478 621839 -114421 551957 926960)
(98900.7 61109.5 170213 -150819 -319471 -251267)
(-21659.6 -22862.7 528254 -48054.3 510237 664590)
(29421.8 -116619 611748 -180736 722550 883273)
(41503 3452.42 170782 -161533 -353938 -119951)
(-133699 -32243.5 564118 -44359.7 455260 657942)
(507.07 -617.222 221177 -71013.3 -517728 -109091)
)
;
    }
    top
    {
        type            symmetryPlane;
    }
    side1
    {
        type            symmetryPlane;
    }
    side2
    {
        type            symmetryPlane;
    }
    procBoundary26to18
    {
        type            processor;
        value           nonuniform List<symmTensor> 
50
(
(2.85719e+11 5.21497e+11 1.31692e+11 -4.70345e+11 1.06355e+12 -3.99989e+10)
(1.99352e+12 1.23607e+12 5.91097e+11 -7.63063e+11 1.13531e+12 -3.92596e+11)
(5.52226e+11 -2.07959e+11 8.55694e+11 -9.54787e+11 1.4792e+12 -3.24534e+11)
(4.92048e+12 4.61582e+12 1.09464e+13 -2.04852e+12 4.78738e+12 -1.38727e+11)
(-2.04262e+12 4.28037e+11 -7.14637e+11 -4.23212e+11 1.68562e+12 2.21015e+12)
(1.19034e+13 1.36158e+13 1.81086e+12 -6.07171e+12 5.81012e+12 -7.82687e+12)
(3.98361e+12 6.95663e+11 -5.32128e+11 -3.53356e+12 3.32706e+12 3.17892e+11)
(3.95673e+12 8.82387e+12 1.21446e+13 8.37279e+11 7.55742e+12 -3.80638e+12)
(3.37961e+12 -3.34765e+12 8.94071e+12 -1.00004e+13 1.00729e+13 9.10382e+12)
(-2.31164e+12 5.29939e+12 -7.7741e+12 -1.34218e+13 7.23454e+12 3.55324e+12)
(-1.35058e+12 1.6674e+12 -3.66995e+11 3.54401e+11 -1.19051e+12 7.91387e+11)
(-2.90573e+11 3.42236e+11 -1.43246e+11 -4.69703e+11 8.87633e+10 5.81243e+11)
(-5.96008e+11 1.83172e+12 6.267e+11 -9.75927e+11 1.68001e+11 1.58008e+12)
(-3.7387e+10 3.27293e+11 -4.57886e+11 -7.98225e+10 -7.44554e+10 2.63573e+10)
(1.57495e+12 4.45534e+12 -9.08167e+11 -9.43813e+11 1.1999e+12 -2.73181e+12)
(2.2662e+11 7.85039e+11 -1.71934e+12 -5.47313e+11 -5.29457e+11 3.73111e+11)
(4.096e+12 6.53772e+12 7.49701e+11 -1.58199e+12 1.07368e+12 -2.27715e+12)
(7.89263e+11 -2.89048e+12 3.15774e+11 -5.40991e+12 -1.15175e+12 4.3054e+12)
(-1.09454e+12 8.25817e+12 3.98499e+12 2.48939e+12 2.81203e+11 -4.99025e+12)
(4.51428e+12 6.27069e+12 7.89336e+12 -1.08428e+13 4.98211e+12 1.62196e+13)
(2.97453e+11 1.59393e+11 3.31616e+11 -1.52097e+11 -2.26926e+11 1.67743e+11)
(4.73011e+11 4.5617e+12 2.18017e+12 -1.53086e+12 -2.80645e+11 7.60929e+11)
(-1.77316e+11 -4.11973e+11 -8.01764e+11 -1.07463e+12 -1.52596e+12 4.14389e+11)
(-5.93158e+11 1.79501e+13 1.39833e+11 1.29193e+13 2.33461e+12 -8.26286e+12)
(5.0756e+11 5.87593e+11 -1.53813e+12 -1.45812e+11 -2.6125e+11 -1.08553e+12)
(2.05331e+12 2.72433e+12 3.94157e+12 -1.7172e+12 2.22689e+12 2.20195e+12)
(1.27282e+12 -3.18453e+12 2.71022e+12 -4.58382e+12 -1.50686e+12 2.62985e+12)
(-5.1479e+11 2.64694e+11 4.57543e+12 -1.33919e+12 -1.05628e+11 2.96329e+12)
(-4.13823e+12 7.3896e+12 2.38202e+13 -1.15006e+13 2.57906e+12 1.93591e+13)
(-1.14293e+13 -1.7841e+13 2.58397e+13 -1.30917e+13 -1.89356e+12 1.52817e+13)
(6.73601e+11 6.25914e+11 -3.75848e+09 -9.86071e+11 2.05054e+11 -7.06616e+10)
(8.10583e+11 -1.82725e+12 7.06685e+11 -1.46463e+12 -5.52917e+11 -4.91418e+11)
(-2.06448e+12 1.0169e+13 -6.75065e+12 5.01488e+12 -3.59622e+12 -6.63163e+11)
(-1.97068e+12 1.31158e+12 -1.3791e+12 1.07727e+12 -8.67868e+11 2.26046e+11)
(8.02892e+12 9.36869e+12 3.39159e+13 3.43171e+12 4.4318e+12 -1.44918e+13)
(1.39827e+13 -1.43074e+13 9.94016e+12 -1.35694e+13 2.07053e+12 -4.50217e+10)
(6.18717e+12 -1.20135e+12 1.90395e+13 -3.99519e+12 -5.08894e+11 -5.14958e+10)
(8.3417e+12 4.03776e+11 3.14085e+13 -1.83881e+13 7.85169e+12 3.72108e+12)
(9.64846e+11 -2.08363e+13 3.2745e+13 -1.77132e+13 2.72572e+12 1.45285e+13)
(4.66912e+13 -3.77478e+12 -2.26606e+12 -1.47941e+13 -2.91771e+13 -2.271e+13)
(2.38871e+12 5.50003e+11 3.91038e+11 -1.13398e+12 -1.17069e+12 -9.13899e+11)
(2.46549e+12 2.56523e+11 -2.32273e+11 -1.30635e+12 1.2081e+12 -7.27788e+11)
(1.28652e+12 -5.84647e+11 1.00849e+12 -1.43823e+12 -8.16233e+11 -9.70559e+11)
(-1.18505e+12 4.93616e+12 -6.1417e+12 -2.57488e+11 -2.97544e+12 4.03176e+12)
(-2.4537e+12 -3.15853e+11 -3.73778e+11 -5.65293e+11 -6.17108e+11 2.13477e+12)
(1.00143e+13 6.20029e+12 1.46834e+13 -8.96253e+12 7.0457e+12 1.99865e+12)
(1.26533e+13 -6.24858e+12 7.1109e+12 -9.65761e+12 5.66971e+12 -2.59499e+12)
(2.45261e+13 -1.4199e+13 3.26342e+13 -1.65583e+13 4.46472e+12 -1.19182e+13)
(9.30303e+13 -1.03331e+13 -1.32755e+13 -3.12358e+13 -2.01069e+13 -5.52303e+13)
(5.56072e+13 -4.14796e+13 2.68681e+12 -3.8566e+13 7.34782e+12 -4.46454e+13)
)
;
    }
    procBoundary26to25
    {
        type            processor;
        value           nonuniform List<symmTensor> 
20
(
(2.31477e+11 3.44669e+11 3.41659e+11 -4.98103e+11 7.95858e+11 1.20054e+11)
(1.63805e+11 4.81919e+11 1.44247e+12 -3.92542e+11 6.76287e+11 5.64583e+11)
(2.06684e+11 5.2575e+11 1.02514e+12 -7.32253e+11 8.43511e+11 4.45721e+11)
(3.83093e+11 -3.41469e+10 2.72012e+12 -1.59816e+12 8.85642e+10 1.39974e+12)
(-5.45344e+11 1.08513e+10 1.19058e+11 6.33874e+10 -1.13106e+12 3.25207e+11)
(1.27004e+11 5.51097e+11 -1.5282e+11 -3.50947e+11 2.78591e+11 5.07373e+10)
(-2.08553e+11 -8.26744e+11 5.92474e+11 -1.21857e+11 -5.44736e+11 4.1089e+11)
(4.738e+11 7.63421e+11 1.91094e+11 -7.52502e+11 4.57853e+11 1.59518e+11)
(8.11452e+11 3.56746e+11 2.45241e+11 -5.1738e+11 -6.80162e+10 1.79458e+11)
(1.2537e+11 -2.41584e+12 6.78248e+11 3.99473e+11 -1.50406e+12 5.35695e+11)
(6.16257e+11 1.41562e+12 2.95739e+11 -7.15608e+11 9.01017e+11 -1.2127e+11)
(9.00961e+11 -3.37281e+12 1.61288e+12 2.74639e+11 -1.82842e+12 -4.11709e+11)
(3.52668e+11 7.55167e+11 1.84076e+11 -2.1177e+12 7.67645e+11 -2.53049e+11)
(1.83637e+11 2.31148e+11 -1.58601e+11 2.04856e+11 -8.32819e+10 5.89055e+10)
(6.72696e+11 -1.20027e+12 9.19328e+11 -1.54829e+11 7.43507e+11 -2.01203e+12)
(6.06678e+10 3.31213e+12 -9.24382e+10 1.30926e+12 4.61728e+11 -1.44448e+12)
(1.94197e+12 5.33892e+11 3.83465e+11 -9.68882e+11 -1.15448e+12 -4.07011e+11)
(9.45398e+11 -7.37606e+11 -1.09644e+11 -5.24712e+11 1.35589e+12 -8.08819e+11)
(1.594e+12 1.26944e+12 -5.04789e+11 -8.35785e+11 -1.72649e+12 7.80693e+10)
(1.16774e+12 -2.31021e+12 1.92627e+11 -1.17767e+12 1.82064e+12 -4.15936e+11)
)
;
    }
    procBoundary26to27
    {
        type            processor;
        value           nonuniform List<symmTensor> 
20
(
(-4.12214e+12 -5.3644e+12 1.39601e+12 -2.57044e+12 2.01559e+10 4.42476e+12)
(1.16577e+12 -2.24491e+12 1.83041e+12 -4.82449e+12 7.8583e+12 9.19272e+12)
(-1.5098e+12 -3.11011e+11 4.78625e+12 -1.74955e+12 -5.61362e+11 4.17116e+12)
(-8.22305e+12 4.70624e+12 1.42047e+13 -4.79265e+12 7.03596e+12 1.40715e+13)
(1.86939e+13 1.85965e+13 -8.25908e+12 -9.13733e+12 -1.13088e+12 1.03829e+11)
(-1.59643e+13 -6.02358e+12 2.13557e+12 6.35053e+12 -4.91721e+12 7.20779e+12)
(4.71116e+12 3.91578e+12 -9.87985e+12 -8.02177e+12 6.56051e+12 -1.02241e+12)
(-1.73368e+12 -2.46876e+12 3.00981e+12 -1.08929e+11 -1.90747e+12 1.66139e+12)
(-5.81719e+13 2.98394e+12 -2.2534e+13 1.71024e+13 -9.49746e+12 1.99114e+13)
(1.46359e+13 1.1951e+13 -6.6735e+12 -7.60912e+12 5.75454e+11 -4.60989e+12)
(-3.0961e+13 2.30378e+12 1.20349e+13 1.79914e+13 -1.55421e+13 2.01067e+13)
(3.75667e+12 9.45317e+12 -7.22792e+12 -3.96437e+12 8.92925e+12 -3.71689e+12)
(4.4035e+13 1.49063e+13 3.4838e+13 1.74411e+13 -3.24363e+13 -6.81219e+12)
(-1.52168e+13 1.02052e+14 -5.84721e+13 2.52812e+13 1.87018e+13 -2.3249e+13)
(2.34869e+13 7.36801e+12 -1.07426e+13 -6.46725e+12 8.17215e+12 -1.34928e+13)
(-1.10052e+13 9.04008e+12 1.44298e+13 6.40878e+12 -4.19203e+13 1.72371e+13)
(-3.03783e+13 1.64188e+14 -2.26616e+14 3.05966e+13 -1.22224e+13 -2.63218e+13)
(6.21612e+13 -8.88636e+12 1.66407e+13 8.64393e+12 -4.19763e+12 -8.27751e+12)
(2.53483e+13 1.04252e+14 -7.58988e+13 -1.69917e+13 -3.15291e+12 -2.56926e+13)
(3.67687e+13 -4.37479e+12 -1.56719e+13 7.06671e+12 6.26803e+13 -3.52246e+13)
)
;
    }
}


// ************************************************************************* //
