/*--------------------------------*- C++ -*----------------------------------*\
| =========                 |                                                 |
| \\      /  F ield         | OpenFOAM: The Open Source CFD Toolbox           |
|  \\    /   O peration     | Version:  2.4.0                                 |
|   \\  /    A nd           | Web:      www.OpenFOAM.org                      |
|    \\/     M anipulation  |                                                 |
\*---------------------------------------------------------------------------*/
FoamFile
{
    version     2.0;
    format      ascii;
    class       volScalarField;
    location    "0.1";
    object      nut;
}
// * * * * * * * * * * * * * * * * * * * * * * * * * * * * * * * * * * * * * //

dimensions      [0 2 -1 0 0 0 0];

internalField   nonuniform List<scalar> 
200
(
229.509
259.132
659.193
216.948
646.197
469.41
1249.7
866.365
392.146
1109.24
281.045
260.098
280.901
884.707
360.212
1047.98
607.658
599.892
1069.35
537.27
296.662
369.989
224.296
427.865
1465.35
448.967
1015.59
905.542
456.808
813.997
451.572
321.87
204.222
212.609
722.706
2618.01
1797.93
763.01
1055.51
497.268
132.276
210.055
188.988
365.374
272.702
527.556
399.033
955.564
720.966
595.649
125.693
164.3
433.875
238.341
395.199
446.116
1086.82
748.598
526.636
442.413
250.895
169.94
230.095
524.728
533.444
950.379
631.231
462.384
618.654
505.684
269.226
244.005
314.129
700.329
268.494
458.662
1286.93
945.389
358.342
444.688
430.82
181.213
1948.41
195.844
319.048
579.294
698.866
841.589
1472.93
1387.71
169.752
1721.44
239.395
368.883
937.194
659.754
880.533
909.149
287.966
1707.28
89.436
433.467
1399.02
1983.26
401.062
762.977
896.058
822.219
876.671
621.181
357.355
451.833
1140.21
1309.12
468.269
598.4
999.17
551.634
574.827
972.188
257.494
1120.51
432.013
730.169
762.964
590.61
729.096
1687.51
1343.91
866.466
206.509
399.44
924.803
558.782
422.532
866.476
806.917
280.765
1903.37
1344.4
255.527
487.231
445.738
823.746
814.198
642.49
385.927
1001.43
656.036
1750.84
177.394
432.961
507.053
599.497
782.062
723.52
531.488
422.634
1139.2
939.626
351.418
209.142
564.361
335.613
619.772
673.187
1338.36
2081.01
1334.03
2117.71
304.377
167.815
264.509
493.932
231.873
529
1040.19
1745.26
1813.87
824.709
264.054
295.293
171.303
163.134
598.211
400.993
841.373
1034.29
1864.34
1816.2
334.622
278.941
298.336
378.678
320.579
783.7
741.732
1084.39
1162.62
1960.14
)
;

boundaryField
{
    inlet
    {
        type            calculated;
        value           nonuniform 0();
    }
    outlet
    {
        type            calculated;
        value           nonuniform 0();
    }
    bottom
    {
        type            calculated;
        value           nonuniform List<scalar> 
40
(
3.59498e-22
3.85005e-22
4.06411e-22
6.04932e-22
3.615e-22
3.8939e-22
4.77168e-22
4.94922e-22
6.14147e-22
3.42314e-22
3.82444e-22
3.08898e-22
8.15212e-22
7.31023e-22
2.61141e-22
2.90059e-22
4.83604e-22
1.03089e-21
1.08193e-21
4.59924e-22
1.44454e-21
8.07418e-22
1.73608e-21
1.92737e-21
8.72482e-22
2.36405e-21
6.38337e-22
4.22706e-21
3.11819e-21
4.66993e-22
2.46532e-21
6.3094e-22
3.37646e-22
2.80231e-21
5.22785e-22
2.27462e-21
2.93306e-21
5.61931e-22
2.13522e-21
8.97772e-22
)
;
    }
    top
    {
        type            symmetryPlane;
    }
    side1
    {
        type            symmetryPlane;
    }
    side2
    {
        type            symmetryPlane;
    }
    procBoundary26to18
    {
        type            processor;
        value           nonuniform List<scalar> 
50
(
213.318
379.012
262.82
1069.89
317.788
464.42
520.963
1445.98
1067.56
232.387
228.138
123.575
299.74
201.325
388.203
320.28
566.306
525.642
580.029
1054.17
227.8
548.235
191.413
1269.37
198.405
276.053
707.821
674.14
1132.35
1608.49
284.791
153.968
1523.79
569.508
932.945
1117.94
735.365
760.774
1798.58
1807.74
296.888
394.099
196.688
1010.48
486.418
735.684
1220.96
1777.82
2374.53
1074.09
)
;
    }
    procBoundary26to25
    {
        type            processor;
        value           nonuniform List<scalar> 
20
(
190.062
234.784
293.19
412.758
141.871
162.649
195.808
310.416
178.664
292.95
234.774
446.521
152.554
159.948
108.777
323.136
305.545
284.153
369.988
403.155
)
;
    }
    procBoundary26to27
    {
        type            processor;
        value           nonuniform List<scalar> 
20
(
763.04
445.269
744.844
796.157
1600.36
1137.11
696.924
627.753
816.656
1359.52
1434.34
913.308
2002.54
1955.97
1336.19
1555.05
8301.37
1560.31
2371.99
2245.57
)
;
    }
}


// ************************************************************************* //
