/*--------------------------------*- C++ -*----------------------------------*\
| =========                 |                                                 |
| \\      /  F ield         | OpenFOAM: The Open Source CFD Toolbox           |
|  \\    /   O peration     | Version:  2.4.0                                 |
|   \\  /    A nd           | Web:      www.OpenFOAM.org                      |
|    \\/     M anipulation  |                                                 |
\*---------------------------------------------------------------------------*/
FoamFile
{
    version     2.0;
    format      ascii;
    class       volScalarField;
    location    "0.09";
    object      nut;
}
// * * * * * * * * * * * * * * * * * * * * * * * * * * * * * * * * * * * * * //

dimensions      [0 2 -1 0 0 0 0];

internalField   nonuniform List<scalar> 
200
(
3206.46
6585.73
5062.81
7068.13
4967.84
4093.55
4826.85
4594.56
4928.32
4154.41
3932.33
3585.77
4195.38
6655.02
7979.17
4962.7
2766.84
6949.05
3630.4
3485.83
5878.47
3208.36
5019.84
4496.13
5800.92
6808.08
4571.35
6161.53
6290.82
4940.32
4409.14
5094.13
4772.54
3972.33
3999.31
4798.87
4241.04
4846.07
5103.75
3908.15
2686.44
1639.19
3836.12
3178.32
1772.1
5166.64
1753.8
1423.11
4836.74
5091.32
2693.48
3989.47
3322.11
1557.37
5073.78
3746.24
7249.51
3377.86
2281.05
5440.06
5572.14
2024.6
4538.6
2442.87
4663.23
4890.69
4141.41
4517.79
2423.65
3029.47
1184.68
3568.46
3095.34
4457.69
2415.98
7340.21
4490.36
3395.1
1905.46
1785.52
1218.61
12338.3
8149.7
11836
4466.84
1241.77
1140.17
1844.04
723.991
4287.5
5342.84
3760.61
2341.26
4196.94
7113.92
1842.06
2798.1
2048.26
3615.96
4379.59
3155.7
3933.88
2403.87
4766.54
3028.81
7392.12
1452.1
3775.95
1618
3232.48
479.823
3407.91
5725.64
1501.82
4834.68
4018.54
6272.26
475.059
4056.16
6898.86
7181
6040.33
17822.7
20332.2
22221.6
6056.88
3689.83
2320.94
4424.36
2940.03
6173.08
1648.08
6986.74
7945.93
9128.5
19029.4
5565.01
3367.93
2383.26
3022.14
1576.88
10619.9
10530.2
11964.6
4912.23
12830.6
16557.6
5186.48
3923.7
7206.26
12939.6
10691.4
13242.3
6230.03
5600.02
10744.6
12719.7
14148.2
8976.27
4077.56
6825.82
6011.76
9331.56
14708.6
35309.1
32669.7
19901.8
8631.2
9133.37
10419.4
454.62
13774
7915.24
29047.7
23873.9
38048.2
28337.2
21531.6
6132.25
3791.44
13823.7
14568
24938.5
7229.48
14678.2
23886.9
24605.1
20414.6
20726.3
3310.09
8276.22
22518.2
6343.57
6899.77
16955.7
11160.3
13618
9983.66
18420.8
22665.8
)
;

boundaryField
{
    inlet
    {
        type            calculated;
        value           nonuniform 0();
    }
    outlet
    {
        type            calculated;
        value           nonuniform List<scalar> 
20
(
3.21447e-21
4.01049e-21
2.88052e-21
3.15969e-21
1.28174e-21
4.8851e-21
1.67404e-21
9.78697e-22
3.85496e-21
2.58937e-22
9.24515e-22
7.83093e-22
1.32359e-21
2.1753e-21
8.7176e-22
3.38507e-21
2.67896e-21
1.3343e-21
3.69425e-21
1.60461e-20
)
;
    }
    bottom
    {
        type            calculated;
        value           nonuniform List<scalar> 
40
(
5.08686e-22
6.00559e-21
6.09494e-21
5.84018e-21
5.27357e-21
4.0557e-21
4.77992e-21
4.83204e-21
8.87458e-21
6.50637e-21
5.83584e-21
4.54126e-21
7.97109e-21
1.08436e-20
5.75392e-21
5.70613e-21
6.44563e-21
8.81561e-21
9.54094e-21
5.0834e-21
5.96996e-21
5.93374e-21
7.68173e-21
5.72176e-21
6.40772e-21
6.70816e-21
6.37598e-21
4.88198e-21
6.18153e-21
8.47042e-21
7.7843e-21
6.51854e-21
6.16942e-21
5.22082e-21
7.2514e-21
5.90187e-21
6.66739e-21
5.9978e-21
5.7967e-21
4.92625e-21
)
;
    }
    top
    {
        type            symmetryPlane;
    }
    side1
    {
        type            symmetryPlane;
    }
    side2
    {
        type            symmetryPlane;
    }
    procBoundary7to6
    {
        type            processor;
        value           nonuniform List<scalar> 
20
(
9078.91
3382.1
3086.95
2649.45
6570.07
3498.03
1659.09
3727.61
2190.75
911.773
4173.67
6586.02
1920.21
3198
13522.4
4261.11
6856.95
4384.63
4590.19
19363.4
)
;
    }
    procBoundary7to15
    {
        type            processor;
        value           nonuniform List<scalar> 
50
(
7632.58
6596.14
5583.26
4590.41
3863.28
6024.99
3887.99
4969.01
2315.75
2454.71
2644.43
2381.45
2901.12
1677.99
3271.8
1875.59
5453.4
1770.5
2020.96
3386.01
10955.9
3482.09
4670.92
4291.3
1405
5162.86
4227.13
7723.17
2660.94
4585.65
4154.4
23617.6
2961.49
9280.57
9899.03
8574.81
11140.2
6391.6
12551.3
11310.4
22965.2
4815.29
10342.1
15074.9
12356.1
9866.3
4623.91
10259
10779.4
46339.7
)
;
    }
}


// ************************************************************************* //
