/*--------------------------------*- C++ -*----------------------------------*\
| =========                 |                                                 |
| \\      /  F ield         | OpenFOAM: The Open Source CFD Toolbox           |
|  \\    /   O peration     | Version:  2.4.0                                 |
|   \\  /    A nd           | Web:      www.OpenFOAM.org                      |
|    \\/     M anipulation  |                                                 |
\*---------------------------------------------------------------------------*/
FoamFile
{
    version     2.0;
    format      ascii;
    class       volVectorField;
    location    "0.07";
    object      A_Source;
}
// * * * * * * * * * * * * * * * * * * * * * * * * * * * * * * * * * * * * * //

dimensions      [1 -2 -2 0 0 0 0];

internalField   nonuniform List<vector> 
200
(
(3.05201e-157 -1.63789e-156 3.32138e-157)
(1.35483e-159 -7.26805e-159 1.47441e-159)
(6.03718e-162 -3.23731e-161 6.57004e-162)
(2.69953e-164 -1.44691e-163 2.9378e-164)
(1.21086e-166 -6.48688e-166 1.31774e-166)
(5.44624e-169 -2.91618e-168 5.92694e-169)
(2.45549e-171 -1.31409e-170 2.67222e-171)
(1.10935e-173 -5.93358e-173 1.20726e-173)
(5.02047e-176 -2.68378e-175 5.46358e-176)
(2.28557e-178 -1.22109e-177 2.4873e-178)
(5.19544e-159 -2.8016e-158 5.654e-159)
(2.34444e-161 -1.26383e-160 2.55137e-161)
(1.05712e-163 -5.69682e-163 1.15042e-163)
(4.76415e-166 -2.56658e-165 5.18464e-166)
(2.14645e-168 -1.15597e-167 2.3359e-168)
(9.66964e-171 -5.2058e-170 1.05231e-170)
(4.35628e-173 -2.34444e-172 4.74077e-173)
(1.96285e-175 -1.05598e-174 2.1361e-175)
(8.84644e-178 -4.7574e-177 9.62724e-178)
(4.00627e-180 -2.15362e-179 4.35987e-180)
(7.18986e-161 -3.89109e-160 7.82445e-161)
(3.29382e-163 -1.78206e-162 3.58453e-163)
(1.50716e-165 -8.15187e-165 1.64019e-165)
(6.88859e-168 -3.7248e-167 7.49659e-168)
(3.14517e-170 -1.70017e-169 3.42277e-170)
(1.43462e-172 -7.75281e-172 1.56124e-172)
(6.53799e-175 -3.53216e-174 7.11505e-175)
(2.97716e-177 -1.60795e-176 3.23993e-177)
(1.35471e-179 -7.31453e-179 1.47428e-179)
(6.18838e-182 -3.34032e-181 6.73458e-182)
(8.61619e-163 -4.67586e-162 9.37667e-163)
(3.9982e-165 -2.16918e-164 4.35109e-165)
(1.85303e-167 -1.00508e-166 2.01658e-167)
(8.57788e-170 -4.65141e-169 9.33498e-170)
(3.96615e-172 -2.15011e-171 4.31621e-172)
(1.83174e-174 -9.92754e-174 1.99341e-174)
(8.45039e-177 -4.57871e-176 9.19624e-177)
(3.89428e-179 -2.10951e-178 4.23799e-179)
(1.79279e-181 -9.70896e-181 1.95103e-181)
(8.28319e-184 -4.48463e-183 9.01428e-184)
(9.62629e-159 -5.16393e-158 1.04759e-158)
(4.32707e-161 -2.32032e-160 4.70898e-161)
(1.95215e-163 -1.04637e-162 2.12445e-163)
(8.83638e-166 -4.73421e-165 9.61629e-166)
(4.01167e-168 -2.14826e-167 4.36574e-168)
(1.82604e-170 -9.77346e-170 1.98721e-170)
(8.33057e-173 -4.45637e-172 9.06584e-173)
(3.80776e-175 -2.0358e-174 4.14384e-175)
(1.74321e-177 -9.31476e-177 1.89707e-177)
(8.02735e-180 -4.28689e-179 8.73585e-180)
(1.65955e-160 -8.94591e-160 1.80603e-160)
(7.58187e-163 -4.08577e-162 8.25106e-163)
(3.46067e-165 -1.86432e-164 3.76611e-165)
(1.57855e-167 -8.50114e-167 1.71787e-167)
(7.19721e-170 -3.87472e-169 7.83245e-170)
(3.28067e-172 -1.76559e-171 3.57022e-172)
(1.49526e-174 -8.04434e-174 1.62723e-174)
(6.81518e-177 -3.66516e-176 7.4167e-177)
(3.10663e-179 -1.67009e-178 3.38083e-179)
(1.42285e-181 -7.64607e-181 1.54843e-181)
(2.32532e-162 -1.25807e-161 2.53055e-162)
(1.07836e-164 -5.83255e-164 1.17354e-164)
(4.99413e-167 -2.7004e-166 5.43492e-167)
(2.30994e-169 -1.24866e-168 2.51382e-169)
(1.06715e-171 -5.7669e-171 1.16134e-171)
(4.92452e-174 -2.66046e-173 5.35917e-174)
(2.27017e-176 -1.2261e-175 2.47054e-176)
(1.04555e-178 -5.64529e-178 1.13783e-178)
(4.81128e-181 -2.59701e-180 5.23593e-181)
(2.22244e-183 -1.19926e-182 2.4186e-183)
(2.82098e-164 -1.5305e-163 3.06997e-164)
(1.32491e-166 -7.18627e-166 1.44184e-166)
(6.21405e-169 -3.36961e-168 6.76252e-169)
(2.91059e-171 -1.57787e-170 3.16749e-171)
(1.3615e-173 -7.37897e-173 1.48167e-173)
(6.36061e-176 -3.44639e-175 6.92201e-176)
(2.96785e-178 -1.60766e-177 3.22979e-178)
(1.38313e-180 -7.49039e-180 1.50521e-180)
(6.43847e-183 -3.48588e-182 7.00674e-183)
(3.00768e-185 -1.62798e-184 3.27315e-185)
(1.55392e-160 -8.33238e-160 1.69107e-160)
(7.07273e-163 -3.79107e-162 7.69698e-163)
(3.23048e-165 -1.73085e-164 3.51561e-165)
(1.48022e-167 -7.9272e-167 1.61087e-167)
(6.80168e-170 -3.6408e-169 7.40201e-170)
(3.13314e-172 -1.67624e-171 3.40967e-172)
(1.44632e-174 -7.73372e-174 1.57397e-174)
(6.68839e-177 -3.57442e-176 7.27871e-177)
(3.09748e-179 -1.65442e-178 3.37087e-179)
(1.44279e-181 -7.70173e-181 1.57013e-181)
(2.71296e-162 -1.46193e-161 2.95241e-162)
(1.25484e-164 -6.75979e-164 1.36559e-164)
(5.79781e-167 -3.12228e-166 6.30954e-167)
(2.67664e-169 -1.44098e-168 2.91288e-169)
(1.23499e-171 -6.64643e-171 1.34399e-171)
(5.69596e-174 -3.06439e-173 6.19869e-174)
(2.62644e-176 -1.41251e-175 2.85825e-176)
(1.21093e-178 -6.51002e-178 1.31781e-178)
(5.58294e-181 -3.00028e-180 6.0757e-181)
(2.58602e-183 -1.38918e-182 2.81427e-183)
(3.84874e-164 -2.08166e-163 4.18843e-164)
(1.80673e-166 -9.76918e-166 1.9662e-166)
(8.46875e-169 -4.57781e-168 9.21622e-169)
(3.96395e-171 -2.14211e-170 4.31382e-171)
(1.85292e-173 -1.00102e-172 2.01646e-173)
(8.65052e-176 -4.67202e-175 9.41403e-176)
(4.03389e-178 -2.17802e-177 4.38992e-178)
(1.87906e-180 -1.01426e-179 2.04491e-180)
(8.74439e-183 -4.71859e-182 9.51618e-183)
(4.08452e-185 -2.2034e-184 4.44503e-185)
(4.72662e-166 -2.56371e-165 5.1438e-166)
(2.24681e-168 -1.21834e-167 2.44511e-168)
(1.06641e-170 -5.78114e-170 1.16053e-170)
(5.05399e-173 -2.73912e-172 5.50007e-173)
(2.39175e-175 -1.29593e-174 2.60285e-175)
(1.13028e-177 -6.12261e-177 1.23004e-177)
(5.33405e-180 -2.88866e-179 5.80485e-180)
(2.51393e-182 -1.36107e-181 2.73581e-182)
(1.18329e-184 -6.40482e-184 1.28773e-184)
(5.58894e-187 -3.02435e-186 6.08223e-187)
(1.69804e-162 -9.10141e-162 1.84792e-162)
(7.82489e-165 -4.19249e-164 8.51553e-165)
(3.61799e-167 -1.93766e-166 3.93732e-167)
(1.67794e-169 -8.98231e-169 1.82604e-169)
(7.80288e-172 -4.17497e-171 8.49157e-172)
(3.63705e-174 -1.94502e-173 3.95807e-174)
(1.69867e-176 -9.07926e-176 1.8486e-176)
(7.94665e-179 -4.24506e-178 8.64803e-179)
(3.72249e-181 -1.98741e-180 4.05104e-181)
(1.75371e-183 -9.35749e-183 1.9085e-183)
(3.00188e-164 -1.61704e-163 3.26683e-164)
(1.40554e-166 -7.56898e-166 1.5296e-166)
(6.57299e-169 -3.5385e-168 7.15313e-169)
(3.07092e-171 -1.65267e-170 3.34197e-171)
(1.43371e-173 -7.71321e-173 1.56025e-173)
(6.69e-176 -3.59791e-175 7.28047e-176)
(3.12053e-178 -1.67765e-177 3.39595e-178)
(1.45521e-180 -7.82057e-180 1.58365e-180)
(6.78519e-183 -3.6451e-182 7.38406e-183)
(3.17827e-185 -1.70674e-184 3.45879e-185)
(4.3112e-166 -2.33109e-165 4.69172e-166)
(2.04842e-168 -1.10726e-167 2.22921e-168)
(9.71685e-171 -5.25089e-170 1.05745e-170)
(4.60208e-173 -2.4862e-172 5.00827e-173)
(2.17642e-175 -1.17544e-174 2.36851e-175)
(1.02785e-177 -5.5496e-177 1.11857e-177)
(4.84792e-180 -2.61675e-179 5.2758e-180)
(2.28381e-182 -1.23237e-181 2.48538e-182)
(1.07469e-184 -5.79743e-184 1.16954e-184)
(5.07573e-187 -2.73728e-186 5.52372e-187)
(5.35915e-168 -2.90603e-167 5.83215e-168)
(2.57805e-170 -1.3976e-169 2.8056e-170)
(1.23814e-172 -6.71034e-172 1.34742e-172)
(5.93664e-175 -3.21665e-174 6.46062e-175)
(2.842e-177 -1.53948e-176 3.09284e-177)
(1.35843e-179 -7.35655e-179 1.47833e-179)
(6.48333e-182 -3.51013e-181 7.05556e-182)
(3.08978e-184 -1.6724e-183 3.36249e-184)
(1.47044e-186 -7.95697e-186 1.60022e-186)
(7.02158e-189 -3.79859e-188 7.64131e-189)
(1.42017e-164 -7.60882e-164 1.52485e-164)
(6.62545e-167 -3.54835e-166 7.11263e-167)
(3.10092e-169 -1.66004e-168 3.32839e-169)
(1.45555e-171 -7.78853e-171 1.56207e-171)
(6.84975e-174 -3.66345e-173 7.34981e-174)
(3.23059e-176 -1.72693e-175 3.46587e-176)
(1.52651e-178 -8.15559e-178 1.63741e-178)
(7.22396e-181 -3.85736e-180 7.74752e-181)
(3.42273e-183 -1.82659e-182 3.67019e-183)
(1.63086e-185 -8.69821e-185 1.74848e-185)
(2.54207e-166 -1.36887e-165 2.72898e-166)
(1.20482e-168 -6.48577e-168 1.2932e-168)
(5.70246e-171 -3.06878e-170 6.11975e-171)
(2.69605e-173 -1.45041e-172 2.89287e-173)
(1.27357e-175 -6.84925e-175 1.36632e-175)
(6.01215e-178 -3.23223e-177 6.44893e-178)
(2.83674e-180 -1.52454e-179 3.04233e-180)
(1.33798e-182 -7.18799e-182 1.43471e-182)
(6.30902e-185 -3.3881e-184 6.76405e-185)
(2.9884e-187 -1.60421e-186 3.20341e-187)
(3.69573e-168 -1.99769e-167 3.96682e-168)
(1.77723e-170 -9.60382e-170 1.90728e-170)
(8.53122e-173 -4.60879e-172 9.15402e-173)
(4.08829e-175 -2.20796e-174 4.38602e-175)
(1.95602e-177 -1.05608e-176 2.09812e-177)
(9.34426e-180 -5.04366e-179 1.00215e-179)
(4.4576e-182 -2.40534e-181 4.77988e-182)
(2.12364e-184 -1.14559e-183 2.2768e-184)
(1.01048e-186 -5.44938e-186 1.08318e-186)
(4.8254e-189 -2.6015e-188 5.17172e-189)
(4.64986e-170 -2.52074e-169 4.99012e-170)
(2.26359e-172 -1.22679e-171 2.42883e-172)
(1.09996e-174 -5.95987e-174 1.18006e-174)
(5.3357e-177 -2.89027e-176 5.72333e-177)
(2.58381e-179 -1.39925e-178 2.77107e-179)
(1.24912e-181 -6.76277e-181 1.33943e-181)
(6.02892e-184 -3.26324e-183 6.46374e-184)
(2.9053e-186 -1.57213e-185 3.11432e-186)
(1.39791e-188 -7.56249e-188 1.49824e-188)
(6.74851e-191 -3.6499e-190 7.23166e-191)
)
;

boundaryField
{
    inlet
    {
        type            zeroGradient;
    }
    outlet
    {
        type            zeroGradient;
    }
    bottom
    {
        type            zeroGradient;
    }
    top
    {
        type            symmetryPlane;
    }
    side1
    {
        type            symmetryPlane;
    }
    side2
    {
        type            symmetryPlane;
    }
    procBoundary15to7
    {
        type            processor;
        value           nonuniform List<vector> 
50
(
(1.56445e-154 -8.32521e-154 1.70254e-154)
(6.92508e-157 -3.68323e-156 7.5363e-157)
(3.06368e-159 -1.62862e-158 3.33409e-159)
(1.35465e-161 -7.19739e-161 1.47421e-161)
(5.98656e-164 -3.17906e-163 6.51495e-164)
(2.64425e-166 -1.40345e-165 2.87764e-166)
(1.16737e-168 -6.1926e-168 1.2704e-168)
(5.15107e-171 -2.73108e-170 5.60571e-171)
(2.27184e-173 -1.20389e-172 2.47235e-173)
(1.00591e-175 -5.32771e-175 1.0947e-175)
(4.92431e-156 -2.6191e-155 5.35894e-156)
(2.20723e-158 -1.17334e-157 2.40204e-158)
(9.88638e-161 -5.25276e-160 1.0759e-160)
(4.4251e-163 -2.34988e-162 4.81566e-163)
(1.9793e-165 -1.05053e-164 2.154e-165)
(8.8473e-168 -4.69329e-167 9.62817e-168)
(3.95209e-170 -2.09539e-169 4.3009e-170)
(1.76427e-172 -9.34926e-172 1.91999e-172)
(7.87108e-175 -4.16887e-174 8.5658e-175)
(3.52509e-177 -1.86606e-176 3.83622e-177)
(7.93293e-158 -4.21707e-157 8.6331e-158)
(3.60051e-160 -1.91299e-159 3.91829e-160)
(1.63273e-162 -8.67035e-162 1.77684e-162)
(7.39768e-165 -3.92636e-164 8.05061e-165)
(3.349e-167 -1.77657e-166 3.64459e-167)
(1.51489e-169 -8.03195e-169 1.6486e-169)
(6.84708e-172 -3.62841e-171 7.45142e-172)
(3.09237e-174 -1.63785e-173 3.36531e-174)
(1.39557e-176 -7.38764e-176 1.51874e-176)
(6.32179e-179 -3.34478e-178 6.87977e-179)
(8.65144e-160 -4.5966e-159 9.41503e-160)
(3.97551e-162 -2.11112e-161 4.3264e-162)
(1.82496e-164 -9.68603e-164 1.98603e-164)
(8.3691e-167 -4.4396e-166 9.10777e-167)
(3.83425e-169 -2.03291e-168 4.17267e-169)
(1.75497e-171 -9.29992e-171 1.90987e-171)
(8.02516e-174 -4.25046e-173 8.73348e-174)
(3.66643e-176 -1.94088e-175 3.99004e-176)
(1.67359e-178 -8.85471e-178 1.8213e-178)
(7.66744e-181 -4.0546e-180 8.34418e-181)
(7.22147e-162 -3.8348e-161 7.75394e-162)
(3.35954e-164 -1.78307e-163 3.60667e-164)
(1.56108e-166 -8.28108e-166 1.67564e-166)
(7.24559e-169 -3.84156e-168 7.77603e-169)
(3.35922e-171 -1.7801e-170 3.60455e-171)
(1.55571e-173 -8.23962e-173 1.66905e-173)
(7.19709e-176 -3.80985e-175 7.72019e-176)
(3.32609e-178 -1.75977e-177 3.56725e-178)
(1.53557e-180 -8.12016e-180 1.64664e-180)
(7.11493e-183 -3.76042e-182 7.62831e-183)
)
;
    }
    procBoundary15to14
    {
        type            processor;
        value           nonuniform List<vector> 
20
(
(4.51347e-154 -2.42003e-153 4.91184e-154)
(6.74207e-156 -3.63586e-155 7.33713e-156)
(9.26637e-158 -5.01584e-157 1.00842e-157)
(1.11213e-159 -6.03598e-159 1.21029e-159)
(1.41871e-155 -7.60357e-155 1.54393e-155)
(2.14527e-157 -1.1565e-156 2.33461e-157)
(2.98542e-159 -1.61551e-158 3.24892e-159)
(3.62753e-161 -1.9683e-160 3.9477e-161)
(2.28238e-157 -1.22271e-156 2.48382e-157)
(3.49355e-159 -1.88268e-158 3.8019e-159)
(4.92252e-161 -2.66295e-160 5.35699e-161)
(6.05542e-163 -3.2848e-162 6.58988e-163)
(2.48574e-159 -1.33107e-158 2.70513e-159)
(3.85102e-161 -2.07459e-160 4.19092e-161)
(5.49338e-163 -2.97087e-162 5.97824e-163)
(6.84062e-165 -3.70976e-164 7.44439e-165)
(2.0721e-161 -1.10909e-160 2.22493e-161)
(3.24898e-163 -1.74964e-162 3.48805e-163)
(4.6917e-165 -2.53655e-164 5.03611e-165)
(5.91375e-167 -3.20625e-166 6.34681e-167)
)
;
    }
    procBoundary15to23
    {
        type            processor;
        value           nonuniform List<vector> 
50
(
(6.34269e-166 -3.45066e-165 6.9025e-166)
(2.9499e-168 -1.60449e-167 3.21026e-168)
(1.37899e-170 -7.49868e-170 1.5007e-170)
(6.47464e-173 -3.5199e-172 7.0461e-173)
(3.05114e-175 -1.6583e-174 3.32044e-175)
(1.44212e-177 -7.83579e-177 1.5694e-177)
(6.83208e-180 -3.71121e-179 7.43509e-180)
(3.24241e-182 -1.7608e-181 3.52859e-182)
(1.54071e-184 -8.36454e-184 1.6767e-184)
(7.36168e-187 -3.99553e-186 8.01144e-187)
(2.07952e-167 -1.13108e-166 2.26306e-167)
(9.78882e-170 -5.32305e-169 1.06528e-169)
(4.6308e-172 -2.51757e-171 5.03953e-172)
(2.20001e-174 -1.19575e-173 2.39419e-174)
(1.04888e-176 -5.69937e-176 1.14146e-176)
(5.01489e-179 -2.72423e-178 5.45751e-179)
(2.403e-181 -1.30502e-180 2.6151e-181)
(1.15333e-183 -6.26174e-183 1.25513e-183)
(5.54161e-186 -3.00785e-185 6.03072e-186)
(2.67725e-188 -1.45273e-187 2.91355e-188)
(3.48908e-169 -1.89732e-168 3.79704e-169)
(1.66229e-171 -9.03728e-171 1.80901e-171)
(7.95797e-174 -4.32541e-173 8.66036e-174)
(3.82544e-176 -2.07872e-175 4.16308e-176)
(1.84517e-178 -1.00239e-177 2.00803e-178)
(8.92416e-181 -4.84673e-180 9.71183e-181)
(4.32515e-183 -2.34835e-182 4.7069e-183)
(2.09936e-185 -1.13954e-184 2.28466e-185)
(1.02001e-187 -5.53504e-187 1.11003e-187)
(4.98263e-190 -2.70305e-189 5.42241e-190)
(3.96135e-171 -2.15363e-170 4.31098e-171)
(1.90994e-173 -1.03812e-172 2.07851e-173)
(9.25201e-176 -5.02759e-175 1.00686e-175)
(4.49967e-178 -2.44452e-177 4.89682e-178)
(2.19555e-180 -1.19246e-179 2.38933e-180)
(1.07406e-182 -5.8319e-182 1.16886e-182)
(5.26458e-185 -2.85774e-184 5.72924e-185)
(2.58402e-187 -1.40228e-186 2.81209e-187)
(1.26942e-189 -6.88686e-189 1.38146e-189)
(6.2694e-192 -3.40031e-191 6.82275e-192)
(3.44164e-173 -1.87065e-172 3.69342e-173)
(1.6792e-175 -9.12494e-175 1.80175e-175)
(8.23044e-178 -4.47142e-177 8.82966e-178)
(4.04963e-180 -2.19952e-179 4.34375e-180)
(1.99881e-182 -1.08535e-181 2.14363e-182)
(9.89004e-185 -5.36878e-184 1.06049e-184)
(4.90251e-187 -2.66058e-186 5.25598e-187)
(2.43324e-189 -1.32014e-188 2.60825e-189)
(1.20859e-191 -6.55527e-191 1.2953e-191)
(6.03468e-194 -3.27223e-193 6.46658e-194)
)
;
    }
}


// ************************************************************************* //
