/*--------------------------------*- C++ -*----------------------------------*\
| =========                 |                                                 |
| \\      /  F ield         | OpenFOAM: The Open Source CFD Toolbox           |
|  \\    /   O peration     | Version:  2.4.0                                 |
|   \\  /    A nd           | Web:      www.OpenFOAM.org                      |
|    \\/     M anipulation  |                                                 |
\*---------------------------------------------------------------------------*/
FoamFile
{
    version     2.0;
    format      ascii;
    class       surfaceScalarField;
    location    "0.02";
    object      phia;
}
// * * * * * * * * * * * * * * * * * * * * * * * * * * * * * * * * * * * * * //

dimensions      [0 3 -1 0 0 0 0];

internalField   nonuniform List<scalar> 
490
(
2.15498e-06
4.23915e-07
1.24993e-08
2.01857e-06
3.95513e-07
1.30001e-08
2.23846e-06
3.65338e-07
1.77877e-08
2.5237e-06
3.36051e-08
3.03518e-07
2.52442e-06
2.68003e-08
3.04607e-07
2.50947e-06
2.55494e-08
2.94775e-07
2.10449e-06
2.19171e-08
2.65257e-07
1.82378e-06
-1.02414e-07
2.98335e-08
2.0399e-06
-1.04764e-07
1.29362e-08
-1.04721e-07
6.55236e-09
2.16903e-06
4.25949e-07
1.2199e-08
2.0387e-06
3.98679e-07
1.28963e-08
2.24934e-06
3.69184e-07
1.79515e-08
2.52265e-06
3.40318e-08
3.02725e-07
2.52317e-06
2.66508e-08
3.0399e-07
2.50724e-06
2.53176e-08
2.93715e-07
2.10472e-06
2.14544e-08
2.63082e-07
1.82536e-06
-1.01903e-07
3.03759e-08
2.03869e-06
-1.04534e-07
1.31983e-08
-1.04595e-07
6.76652e-09
2.18122e-06
4.27756e-07
1.18785e-08
2.05587e-06
4.01424e-07
1.2767e-08
2.25849e-06
3.72436e-07
1.80836e-08
2.52162e-06
3.44494e-08
3.01968e-07
2.52196e-06
2.65033e-08
3.03416e-07
2.50506e-06
2.50898e-08
2.92718e-07
2.10497e-06
2.10017e-08
2.61037e-07
1.82691e-06
-1.01395e-07
3.09165e-08
2.03746e-06
-1.04302e-07
1.34605e-08
-1.04467e-07
6.98075e-09
2.19195e-06
1.15414e-08
2.07076e-06
1.26157e-08
2.26631e-06
1.82059e-08
2.52061e-06
3.01224e-07
2.52076e-06
3.02844e-07
2.50292e-06
2.9174e-07
2.10524e-06
2.59084e-07
1.82845e-06
3.14547e-08
2.03625e-06
1.37223e-08
7.19424e-09
2.17148e-06
4.26008e-07
1.22422e-08
2.04279e-06
3.99107e-07
1.29151e-08
2.28741e-06
3.69601e-07
1.79517e-08
2.61366e-06
2.96937e-08
2.90465e-07
2.67846e-06
2.02277e-08
2.848e-07
2.84644e-06
1.39235e-08
2.60845e-07
3.65103e-06
-4.61222e-09
1.95149e-07
4.46534e-06
-9.21751e-08
-4.49372e-08
4.60296e-06
-9.11709e-08
-5.64632e-08
-9.11484e-08
-5.64833e-08
2.18381e-06
4.27808e-07
1.19395e-08
2.06039e-06
4.01884e-07
1.27978e-08
2.29809e-06
3.72963e-07
1.80764e-08
2.61592e-06
2.99912e-08
2.89338e-07
2.68332e-06
1.9867e-08
2.83597e-07
2.8573e-06
1.32992e-08
2.58772e-07
3.65746e-06
-5.85525e-09
1.9134e-07
4.46408e-06
-9.21472e-08
-4.47594e-08
4.60284e-06
-9.11813e-08
-5.64567e-08
-9.11605e-08
-5.64799e-08
2.19463e-06
4.29421e-07
1.16195e-08
2.0755e-06
4.04308e-07
1.26579e-08
2.30714e-06
3.75804e-07
1.81808e-08
2.61785e-06
3.02804e-08
2.88285e-07
2.68772e-06
1.95191e-08
2.82481e-07
2.86728e-06
1.27001e-08
2.56832e-07
3.66327e-06
-7.02754e-09
1.87802e-07
4.46279e-06
-9.21167e-08
-4.45786e-08
4.6027e-06
-9.11901e-08
-5.64497e-08
-9.11706e-08
-5.64763e-08
2.20429e-06
1.12863e-08
2.08871e-06
1.24985e-08
2.31508e-06
1.82821e-08
2.61981e-06
2.87237e-07
2.69205e-06
2.81356e-07
2.87682e-06
2.54922e-07
3.66869e-06
1.84449e-07
4.46148e-06
-4.4396e-08
4.60257e-06
-5.64422e-08
-5.64725e-08
2.18627e-06
4.27859e-07
1.19843e-08
2.06455e-06
4.02304e-07
1.28157e-08
2.33517e-06
3.73348e-07
1.80814e-08
2.70238e-06
2.57767e-08
2.77494e-07
2.82121e-06
1.38839e-08
2.65677e-07
3.09909e-06
3.57506e-09
2.30517e-07
3.87973e-06
-2.25557e-08
1.46194e-07
4.53082e-06
-9.1643e-08
-4.97507e-08
4.60333e-06
-9.1148e-08
-5.64795e-08
-9.11265e-08
-5.64925e-08
2.19723e-06
4.29465e-07
1.16833e-08
2.08007e-06
4.04758e-07
1.26885e-08
2.34549e-06
3.76304e-07
1.81727e-08
2.70684e-06
2.59817e-08
2.76154e-07
2.82961e-06
1.3386e-08
2.64114e-07
3.11413e-06
2.74886e-09
2.27958e-07
3.88869e-06
-2.3898e-08
1.42292e-07
4.5301e-06
-9.16361e-08
-4.96425e-08
4.60326e-06
-9.116e-08
-5.64756e-08
-9.11403e-08
-5.64905e-08
2.20699e-06
4.30914e-07
1.13682e-08
2.09347e-06
4.06912e-07
1.25411e-08
2.35436e-06
3.78797e-07
1.82537e-08
2.71086e-06
2.61712e-08
2.74893e-07
2.83738e-06
1.29006e-08
2.62638e-07
3.12804e-06
1.95242e-09
2.2554e-07
3.89688e-06
-2.51555e-08
1.38673e-07
4.52937e-06
-9.16266e-08
-4.95332e-08
4.60319e-06
-9.117e-08
-5.64714e-08
-9.11518e-08
-5.64884e-08
2.21581e-06
1.10432e-08
2.10527e-06
1.23762e-08
2.36234e-06
1.83375e-08
2.71502e-06
2.73617e-07
2.84515e-06
2.6113e-07
3.1414e-06
2.2314e-07
3.90457e-06
1.3525e-07
4.52863e-06
-4.94231e-08
4.60312e-06
-5.6467e-08
-5.64862e-08
2.19968e-06
4.29504e-07
1.17111e-08
2.08423e-06
4.05161e-07
1.26845e-08
2.38144e-06
3.76648e-07
1.81498e-08
2.78862e-06
2.19066e-08
2.64298e-07
2.95204e-06
7.84061e-09
2.47036e-07
3.2958e-06
-5.55763e-09
2.03318e-07
4.02023e-06
-3.52932e-08
1.10455e-07
4.5541e-06
-9.14407e-08
-5.15635e-08
4.60345e-06
-9.11268e-08
-5.63866e-08
-9.11057e-08
-5.63913e-08
2.20956e-06
4.30947e-07
1.14155e-08
2.09801e-06
4.07345e-07
1.25497e-08
2.3913e-06
3.79262e-07
1.82109e-08
2.79442e-06
2.20483e-08
2.6282e-07
2.96225e-06
7.2608e-09
2.45264e-07
3.31148e-06
-6.46644e-09
2.00587e-07
4.02903e-06
-3.65264e-08
1.06934e-07
4.55358e-06
-9.14425e-08
-5.14788e-08
4.6034e-06
-9.11406e-08
-5.63779e-08
-9.11214e-08
-5.6384e-08
2.21848e-06
4.32256e-07
1.11091e-08
2.10999e-06
4.09271e-07
1.23968e-08
2.39991e-06
3.81457e-07
1.82706e-08
2.79988e-06
2.21611e-08
2.61401e-07
2.97191e-06
6.68562e-09
2.43548e-07
3.32613e-06
-7.35136e-09
1.97968e-07
4.03714e-06
-3.76827e-08
1.03655e-07
4.55306e-06
-9.14412e-08
-5.13937e-08
4.60335e-06
-9.11521e-08
-5.6369e-08
-9.11344e-08
-5.63767e-08
2.22668e-06
1.07965e-08
2.12062e-06
1.22283e-08
2.40786e-06
1.83384e-08
2.80562e-06
2.59941e-07
2.9817e-06
2.41768e-07
3.34032e-06
1.95342e-07
4.04479e-06
1.00544e-07
4.55254e-06
-5.13083e-08
4.6033e-06
-5.63599e-08
-5.63692e-08
2.21196e-06
4.30974e-07
2.1022e-06
4.07734e-07
2.42614e-06
3.79564e-07
2.87178e-06
1.81106e-08
3.07143e-06
2.12252e-09
3.45355e-06
-1.36021e-08
4.11945e-06
-4.46992e-08
4.56604e-06
-9.1327e-08
4.60351e-06
-9.1106e-08
-9.10851e-08
2.22101e-06
4.32279e-07
2.11452e-06
4.09689e-07
2.43546e-06
3.81888e-07
2.87832e-06
1.8211e-08
3.08235e-06
1.50019e-09
3.46844e-06
-1.45225e-08
4.12729e-06
-4.57723e-08
4.56563e-06
-9.13341e-08
4.60347e-06
-9.11217e-08
-9.11027e-08
2.2293e-06
4.33467e-07
2.12531e-06
4.1142e-07
2.44378e-06
3.83827e-07
2.88471e-06
1.8265e-08
3.09294e-06
8.69973e-10
3.48255e-06
-1.54305e-08
4.13458e-06
-4.67831e-08
4.56522e-06
-9.13379e-08
4.60343e-06
-9.11348e-08
-9.11172e-08
2.23707e-06
2.13498e-06
2.45165e-06
2.89158e-06
3.10384e-06
3.49637e-06
4.14151e-06
4.56482e-06
4.60339e-06
)
;

boundaryField
{
    inlet
    {
        type            calculated;
        value           nonuniform 0();
    }
    outlet
    {
        type            calculated;
        value           nonuniform 0();
    }
    bottom
    {
        type            calculated;
        value           uniform 0;
    }
    top
    {
        type            symmetryPlane;
        value           uniform 0;
    }
    side1
    {
        type            symmetryPlane;
        value           nonuniform 0();
    }
    side2
    {
        type            symmetryPlane;
        value           nonuniform 0();
    }
    procBoundary20to12
    {
        type            processor;
        value           nonuniform List<scalar> 
50
(
-4.2179e-07
-3.9196e-07
-3.60813e-07
-3.31465e-08
-2.69488e-08
-2.57785e-08
-2.23741e-08
1.02926e-07
1.04989e-07
1.04836e-07
-4.24181e-07
-3.96039e-07
-3.65656e-07
-2.93612e-08
-2.05953e-08
-1.45462e-08
3.3833e-09
9.21972e-08
9.11582e-08
9.11336e-08
-4.26272e-07
-3.99633e-07
-3.69876e-07
-2.55201e-08
-1.43804e-08
-4.37894e-09
2.12602e-08
9.16442e-08
9.11332e-08
9.11095e-08
-4.28112e-07
-4.02818e-07
-3.73562e-07
-2.16834e-08
-8.39582e-09
4.70784e-09
3.41464e-08
9.14331e-08
9.11098e-08
9.10863e-08
-4.29746e-07
-4.05663e-07
-3.76796e-07
-1.78864e-08
-2.68453e-09
1.27867e-08
4.37484e-08
9.13137e-08
9.10866e-08
9.10634e-08
)
;
    }
    procBoundary20to19
    {
        type            processor;
        value           nonuniform List<scalar> 
20
(
-2.31933e-06
-2.32515e-06
-2.33031e-06
-2.33495e-06
-2.32724e-06
-2.33286e-06
-2.33807e-06
-2.34298e-06
-2.33503e-06
-2.34072e-06
-2.34624e-06
-2.35169e-06
-2.3429e-06
-2.34892e-06
-2.35501e-06
-2.36125e-06
-2.35105e-06
-2.35766e-06
-2.36457e-06
-2.37187e-06
)
;
    }
    procBoundary20to21
    {
        type            processor;
        value           nonuniform List<scalar> 
20
(
2.22422e-06
2.2195e-06
2.21536e-06
2.21176e-06
4.60325e-06
4.60318e-06
4.6031e-06
4.60302e-06
4.60349e-06
4.60345e-06
4.60341e-06
4.60337e-06
4.60357e-06
4.60354e-06
4.60351e-06
4.60348e-06
4.6036e-06
4.60358e-06
4.60356e-06
4.60354e-06
)
;
    }
    procBoundary20to28
    {
        type            processor;
        value           nonuniform List<scalar> 
50
(
4.28727e-07
4.03271e-07
3.74994e-07
3.50427e-08
2.63784e-08
2.49058e-08
2.0665e-08
-1.00893e-07
-1.04083e-07
-1.04363e-07
4.3024e-07
4.05898e-07
3.78052e-07
3.07975e-08
1.92569e-08
1.23011e-08
-7.65092e-09
-9.20947e-08
-9.11983e-08
-9.11799e-08
4.31606e-07
4.08285e-07
3.80787e-07
2.6646e-08
1.25638e-08
1.47867e-09
-2.57141e-08
-9.16212e-08
-9.11793e-08
-9.11623e-08
4.32839e-07
4.10461e-07
3.83232e-07
2.2622e-08
6.32062e-09
-7.81896e-09
-3.81027e-08
-9.14425e-08
-9.11627e-08
-9.11462e-08
4.33956e-07
4.12453e-07
3.85425e-07
1.87343e-08
5.0956e-10
-1.58488e-08
-4.70669e-08
-9.13431e-08
-9.11467e-08
-9.11305e-08
)
;
    }
}


// ************************************************************************* //
