/*--------------------------------*- C++ -*----------------------------------*\
| =========                 |                                                 |
| \\      /  F ield         | OpenFOAM: The Open Source CFD Toolbox           |
|  \\    /   O peration     | Version:  2.4.0                                 |
|   \\  /    A nd           | Web:      www.OpenFOAM.org                      |
|    \\/     M anipulation  |                                                 |
\*---------------------------------------------------------------------------*/
FoamFile
{
    version     2.0;
    format      ascii;
    class       volVectorField;
    location    "0.02";
    object      Ua;
}
// * * * * * * * * * * * * * * * * * * * * * * * * * * * * * * * * * * * * * //

dimensions      [0 1 -1 0 0 0 0];

internalField   nonuniform List<vector> 
200
(
(1.66875 0.933709 0.0482208)
(1.68658 0.97221 0.0523489)
(1.6866 0.972256 0.0523539)
(1.6866 0.972268 0.0523553)
(1.68656 0.972198 0.0523429)
(1.54875 0.769059 0.016252)
(0.965995 -0.0900093 -0.136372)
(0.965061 -0.0914508 -0.136623)
(0.965087 -0.0914834 -0.136624)
(0.965204 -0.0914595 -0.136627)
(1.67078 0.936414 0.0486106)
(1.68657 0.972185 0.0523482)
(1.68659 0.972234 0.0523536)
(1.6866 0.972246 0.0523551)
(1.68655 0.972178 0.0523432)
(1.56373 0.791139 0.0201783)
(0.966251 -0.0896182 -0.136301)
(0.96505 -0.0914589 -0.136623)
(0.965082 -0.0914917 -0.136624)
(0.96521 -0.0914698 -0.136627)
(1.67306 0.938461 0.0490294)
(1.68656 0.97216 0.0523476)
(1.68658 0.972212 0.0523533)
(1.68659 0.972224 0.052355)
(1.68654 0.972159 0.0523434)
(1.57634 0.809715 0.0234822)
(0.966561 -0.0891565 -0.136217)
(0.965043 -0.0914659 -0.136623)
(0.965077 -0.0914981 -0.136623)
(0.965217 -0.0914777 -0.136627)
(1.67566 0.940013 0.0494932)
(1.68655 0.972136 0.0523471)
(1.68658 0.972191 0.052353)
(1.68658 0.972205 0.0523548)
(1.68654 0.972141 0.0523435)
(1.58689 0.825269 0.026249)
(0.966925 -0.0886189 -0.13612)
(0.965038 -0.0914718 -0.136622)
(0.965072 -0.0915032 -0.136623)
(0.965226 -0.0914841 -0.136627)
(1.73561 0.873316 0.0705118)
(1.68665 0.972113 0.0523725)
(1.68661 0.972224 0.0523592)
(1.68661 0.97225 0.0523572)
(1.68655 0.972178 0.0523424)
(1.55016 0.771063 0.0166073)
(0.966608 -0.0897917 -0.136352)
(0.966181 -0.0914087 -0.136652)
(0.969181 -0.0913946 -0.136727)
(1.86862 -0.0767273 -0.159481)
(1.74165 0.872159 0.0722986)
(1.68665 0.972073 0.052377)
(1.68661 0.972199 0.05236)
(1.6866 0.972227 0.0523575)
(1.68655 0.972158 0.052343)
(1.56517 0.793184 0.0205416)
(0.966927 -0.089362 -0.136274)
(0.966259 -0.0914175 -0.136654)
(0.96953 -0.0913992 -0.136736)
(1.86367 -0.0768182 -0.159355)
(1.74791 0.870387 0.0741162)
(1.68666 0.972031 0.0523823)
(1.6866 0.972173 0.052361)
(1.68659 0.972204 0.0523578)
(1.68654 0.972139 0.0523436)
(1.5777 0.811655 0.0238272)
(0.967302 -0.0888574 -0.136183)
(0.966342 -0.0914249 -0.136656)
(0.969912 -0.0914011 -0.136746)
(1.85918 -0.0769004 -0.159242)
(1.75439 0.868186 0.0759667)
(1.68667 0.971988 0.0523884)
(1.6866 0.972148 0.0523622)
(1.68659 0.972182 0.0523581)
(1.68654 0.97212 0.0523441)
(1.58815 0.827053 0.0265666)
(0.967735 -0.0882729 -0.136078)
(0.966432 -0.0914309 -0.136658)
(0.970327 -0.0914008 -0.136756)
(1.85515 -0.0769738 -0.159139)
(1.79785 0.817168 0.0913749)
(1.68675 0.971983 0.0524069)
(1.68663 0.972185 0.0523669)
(1.68661 0.97223 0.05236)
(1.68655 0.972157 0.0523422)
(1.55156 0.773047 0.0169594)
(0.967319 -0.0895603 -0.136331)
(0.967525 -0.091363 -0.136685)
(0.974177 -0.0912912 -0.136854)
(2.02421 -0.0741742 -0.163417)
(1.80643 0.813479 0.0940723)
(1.68677 0.971924 0.052418)
(1.68663 0.972155 0.0523692)
(1.68661 0.972205 0.0523608)
(1.68654 0.972137 0.0523433)
(1.56657 0.795169 0.0208943)
(0.967701 -0.0890899 -0.136247)
(0.967689 -0.0913727 -0.13669)
(0.974882 -0.0912921 -0.136871)
(2.02075 -0.0742425 -0.163329)
(1.81513 0.809275 0.0967805)
(1.6868 0.971862 0.0524306)
(1.68663 0.972125 0.0523718)
(1.6866 0.97218 0.0523617)
(1.68654 0.972117 0.0523443)
(1.57902 0.813518 0.0241587)
(0.968141 -0.0885406 -0.136149)
(0.967863 -0.0913804 -0.136694)
(0.975663 -0.0912891 -0.136891)
(2.01764 -0.0743035 -0.16325)
(1.82392 0.804757 0.099489)
(1.68684 0.971796 0.0524449)
(1.68664 0.972095 0.0523746)
(1.6866 0.972157 0.0523626)
(1.68654 0.972099 0.0523452)
(1.58936 0.828755 0.0268699)
(0.968644 -0.0879072 -0.136036)
(0.968053 -0.0913863 -0.136699)
(0.976514 -0.0912831 -0.136913)
(2.01488 -0.0743575 -0.16318)
(1.85473 0.765898 0.110554)
(1.68688 0.971814 0.0524543)
(1.68666 0.972137 0.0523776)
(1.68662 0.972206 0.0523639)
(1.68655 0.972134 0.0523426)
(1.55295 0.774987 0.0173037)
(0.96813 -0.0893154 -0.136311)
(0.9691 -0.0913137 -0.136725)
(0.980108 -0.0911726 -0.137004)
(2.08872 -0.0731049 -0.165049)
(1.86476 0.760666 0.113799)
(1.68693 0.971733 0.0524735)
(1.68667 0.972102 0.0523816)
(1.68662 0.972179 0.0523653)
(1.68654 0.972114 0.0523442)
(1.56793 0.797081 0.0212342)
(0.968572 -0.0888025 -0.136219)
(0.969348 -0.0913242 -0.136732)
(0.981166 -0.0911698 -0.13703)
(2.08607 -0.0731615 -0.164982)
(1.87481 0.755032 0.117028)
(1.68699 0.971646 0.052495)
(1.68667 0.972067 0.052386)
(1.68662 0.972153 0.0523668)
(1.68654 0.972094 0.0523456)
(1.58029 0.815298 0.0244758)
(0.969078 -0.0882065 -0.136113)
(0.969613 -0.0913323 -0.136738)
(0.982354 -0.0911619 -0.13706)
(2.08373 -0.0732115 -0.164922)
(1.88482 0.749204 0.120223)
(1.68705 0.971552 0.0525192)
(1.68668 0.972032 0.0523909)
(1.68662 0.972128 0.0523685)
(1.68654 0.972075 0.0523468)
(1.59052 0.830374 0.0271588)
(0.969653 -0.0875224 -0.135992)
(0.969904 -0.0913381 -0.136745)
(0.983653 -0.0911501 -0.137093)
(2.08166 -0.0732555 -0.16487)
(1.90618 0.719553 0.12754)
(1.68707 0.9716 0.0523701)
(1.6867 0.972079 0.0522364)
(1.68664 0.972179 0.0522053)
(1.68655 0.972109 0.0521713)
(1.5543 0.776866 0.0175766)
(0.969043 -0.0890567 -0.135842)
(0.970918 -0.0912606 -0.136343)
(0.987021 -0.091038 -0.136769)
(2.12409 -0.0725103 -0.165307)
(1.91689 0.71348 0.131034)
(1.68714 0.971493 0.0523901)
(1.68671 0.972038 0.0522338)
(1.68664 0.97215 0.0521988)
(1.68655 0.972089 0.0521648)
(1.56925 0.798913 0.0214823)
(0.969545 -0.0884993 -0.135721)
(0.971246 -0.091272 -0.136329)
(0.988424 -0.0910316 -0.136781)
(2.12194 -0.0725604 -0.16522)
(1.92755 0.707104 0.134489)
(1.68723 0.971376 0.0524134)
(1.68672 0.971997 0.0522318)
(1.68664 0.972121 0.0521925)
(1.68654 0.972069 0.0521581)
(1.58151 0.816994 0.0246844)
(0.970117 -0.0878546 -0.135586)
(0.971603 -0.0912804 -0.136315)
(0.99002 -0.0910188 -0.136798)
(2.12006 -0.0726044 -0.16514)
(1.93805 0.700638 0.137878)
(1.68733 0.97125 0.0524405)
(1.68674 0.971955 0.0522305)
(1.68664 0.972094 0.0521864)
(1.68654 0.972049 0.0521512)
(1.59163 0.83191 0.0273249)
(0.970766 -0.0871179 -0.135435)
(0.971997 -0.091286 -0.136302)
(0.991777 -0.0910009 -0.13682)
(2.11842 -0.0726426 -0.165065)
)
;

boundaryField
{
    inlet
    {
        type            calculated;
        value           nonuniform 0();
    }
    outlet
    {
        type            calculated;
        value           nonuniform 0();
    }
    bottom
    {
        type            calculated;
        value           uniform (0 0 0);
    }
    top
    {
        type            symmetryPlane;
    }
    side1
    {
        type            symmetryPlane;
    }
    side2
    {
        type            symmetryPlane;
    }
    procBoundary20to12
    {
        type            processor;
        value           nonuniform List<vector> 
50
(
(1.66682 0.930123 0.0478238)
(1.6866 0.972253 0.0523499)
(1.68662 0.972302 0.0523545)
(1.68662 0.972317 0.0523559)
(1.68657 0.972246 0.0523427)
(1.52911 0.74012 0.0111025)
(0.965787 -0.0903456 -0.136434)
(0.965082 -0.0914428 -0.136624)
(0.965102 -0.0914761 -0.136625)
(0.965212 -0.0914502 -0.136628)
(1.73037 0.873046 0.0689628)
(1.68665 0.972173 0.0523691)
(1.68663 0.972277 0.0523588)
(1.68663 0.972304 0.0523574)
(1.68657 0.972228 0.0523417)
(1.53013 0.741541 0.0113535)
(0.966343 -0.0901667 -0.13642)
(0.966122 -0.0914001 -0.136651)
(0.968879 -0.0913904 -0.13672)
(1.88053 -0.0765338 -0.15978)
(1.79064 0.819008 0.0891142)
(1.68674 0.972062 0.0523981)
(1.68665 0.972244 0.0523653)
(1.68663 0.972287 0.0523597)
(1.68657 0.972208 0.052341)
(1.53116 0.742974 0.0116067)
(0.966999 -0.0899766 -0.136407)
(0.967396 -0.0913536 -0.136683)
(0.973609 -0.0912891 -0.13684)
(2.03308 -0.0740305 -0.163639)
(1.84652 0.768968 0.107902)
(1.68686 0.971915 0.0524389)
(1.68668 0.972203 0.0523745)
(1.68664 0.972268 0.052363)
(1.68656 0.972187 0.0523408)
(1.5322 0.744391 0.0118571)
(0.967759 -0.0897753 -0.136394)
(0.968916 -0.0913032 -0.136721)
(0.979343 -0.0911715 -0.136985)
(2.09587 -0.0729882 -0.165228)
(1.89762 0.723249 0.124751)
(1.68702 0.971725 0.0523555)
(1.68671 0.972152 0.0522402)
(1.68666 0.972244 0.0522124)
(1.68656 0.972162 0.0521773)
(1.53322 0.745773 0.0120615)
(0.968629 -0.0895627 -0.135956)
(0.970698 -0.0912486 -0.13636)
(0.986141 -0.0910365 -0.13677)
(2.13017 -0.0724098 -0.165491)
)
;
    }
    procBoundary20to19
    {
        type            processor;
        value           nonuniform List<vector> 
20
(
(1.61475 0.796451 0.0308685)
(1.68665 0.807508 0.0436096)
(1.75162 0.817209 0.0553461)
(1.80938 0.825457 0.0660382)
(2.21366 0.405992 0.231183)
(2.22025 0.41686 0.23107)
(2.22649 0.428145 0.23082)
(2.23217 0.43973 0.230423)
(2.29533 0.352436 0.259293)
(2.2981 0.359543 0.259206)
(2.30064 0.367051 0.259)
(2.30283 0.374907 0.258669)
(2.32753 0.331101 0.270933)
(2.32915 0.336454 0.27098)
(2.33058 0.342142 0.270928)
(2.33174 0.348135 0.27077)
(2.34468 0.319576 0.276529)
(2.34577 0.323927 0.276621)
(2.34669 0.32856 0.276627)
(2.34738 0.333458 0.276542)
)
;
    }
    procBoundary20to21
    {
        type            processor;
        value           nonuniform List<vector> 
20
(
(1.07883 -0.0895527 -0.139502)
(1.07827 -0.0895746 -0.139488)
(1.07749 -0.0895992 -0.139468)
(1.07664 -0.0896238 -0.139446)
(2.2483 -0.07059 -0.169082)
(2.2482 -0.0705975 -0.16908)
(2.24811 -0.0706044 -0.169078)
(2.24802 -0.0706106 -0.169075)
(2.24851 -0.070568 -0.169087)
(2.24845 -0.0705768 -0.169086)
(2.24839 -0.0705845 -0.169085)
(2.24834 -0.0705914 -0.169084)
(2.24857 -0.0705486 -0.169089)
(2.24852 -0.070559 -0.169088)
(2.24848 -0.070568 -0.169087)
(2.24844 -0.070576 -0.169086)
(2.2486 -0.07053 -0.168464)
(2.24855 -0.070542 -0.168429)
(2.24852 -0.0705525 -0.168394)
(2.24849 -0.0705615 -0.168358)
)
;
    }
    procBoundary20to28
    {
        type            processor;
        value           nonuniform List<vector> 
50
(
(1.67841 0.941014 0.0500044)
(1.68649 0.971971 0.0523464)
(1.68651 0.972024 0.0523524)
(1.68652 0.972033 0.0523543)
(1.68647 0.971971 0.052344)
(1.60016 0.844759 0.0297393)
(0.967414 -0.0878341 -0.13598)
(0.965 -0.0914638 -0.136621)
(0.965032 -0.0914934 -0.136622)
(0.965184 -0.0914751 -0.136626)
(1.75715 0.868911 0.0765633)
(1.68662 0.971805 0.0523921)
(1.68654 0.971973 0.0523626)
(1.68652 0.972006 0.052358)
(1.68647 0.971947 0.0523449)
(1.6016 0.846811 0.0301056)
(0.968294 -0.0874069 -0.135925)
(0.966429 -0.0914229 -0.136657)
(0.970358 -0.0913907 -0.136757)
(1.82973 -0.0773747 -0.158498)
(1.82628 0.8056 0.100025)
(1.6868 0.971595 0.0524535)
(1.68658 0.971913 0.0523763)
(1.68654 0.971975 0.052363)
(1.68647 0.971922 0.0523465)
(1.60297 0.848761 0.030454)
(0.96927 -0.0869552 -0.135867)
(0.968065 -0.0913787 -0.136699)
(0.976518 -0.0912744 -0.136913)
(1.99628 -0.0746473 -0.162712)
(1.8866 0.75035 0.120629)
(1.68703 0.971334 0.052533)
(1.68662 0.971842 0.0523939)
(1.68655 0.971941 0.0523694)
(1.68648 0.971896 0.0523486)
(1.60428 0.850609 0.0307848)
(0.97034 -0.0864797 -0.135808)
(0.96991 -0.0913313 -0.136745)
(0.983518 -0.0911445 -0.13709)
(2.06703 -0.073481 -0.164502)
(1.93921 0.702145 0.138106)
(1.68732 0.971013 0.0524511)
(1.68669 0.971758 0.0522263)
(1.68657 0.971902 0.0521793)
(1.68648 0.971868 0.052145)
(1.60552 0.85236 0.0309708)
(0.971508 -0.0859798 -0.13521)
(0.971972 -0.0912803 -0.136279)
(0.991383 -0.0910006 -0.136787)
(2.10627 -0.0728281 -0.164731)
)
;
    }
}


// ************************************************************************* //
