/*--------------------------------*- C++ -*----------------------------------*\
| =========                 |                                                 |
| \\      /  F ield         | OpenFOAM: The Open Source CFD Toolbox           |
|  \\    /   O peration     | Version:  2.4.0                                 |
|   \\  /    A nd           | Web:      www.OpenFOAM.org                      |
|    \\/     M anipulation  |                                                 |
\*---------------------------------------------------------------------------*/
FoamFile
{
    version     2.0;
    format      ascii;
    class       volVectorField;
    location    "0.02";
    object      Ur;
}
// * * * * * * * * * * * * * * * * * * * * * * * * * * * * * * * * * * * * * //

dimensions      [0 1 -1 0 0 0 0];

internalField   nonuniform List<vector> 
200
(
(-0.703847 0.99486 -2.12763)
(-1.55429 1.20493 7.35616)
(-4.58 1.79123 2.35548)
(-5.05794 4.08443 4.531)
(-7.85513 2.58718 3.68799)
(-6.66528 3.92154 0.0737594)
(-8.67757 1.09218 4.60518)
(-6.35134 2.61165 -0.0665325)
(-7.69413 3.67774 -5.38509)
(-7.12344 4.22684 2.4316)
(1.79492 0.704508 14.4942)
(-0.32713 -0.366107 2.70178)
(-0.234709 0.170618 32.9531)
(-11.0471 1.09831 5.10755)
(-9.56832 0.895306 -0.33916)
(-12.3375 0.468532 9.26961)
(-6.99827 0.510435 0.0199376)
(-13.1376 -2.15609 10.1837)
(-9.10803 2.39768 -1.10717)
(-7.96564 6.24661 -8.55231)
(2.1335 0.00557919 3.33589)
(2.72007 -1.5842 24.3066)
(-8.60967 -1.42232 5.02478)
(-7.97576 -1.51107 -0.208373)
(-11.7447 -1.08786 11.0919)
(-6.92999 -1.04768 -0.143129)
(-14.8593 -2.35316 15.457)
(-9.4152 -1.33198 -3.48286)
(-9.92363 1.10937 -4.19147)
(-9.22106 2.68791 -0.534976)
(-0.0299163 0.663556 3.50119)
(-4.69251 -0.464878 7.43827)
(-5.37912 -0.62921 -1.08237)
(-8.89017 -1.39761 6.74525)
(-5.95366 -2.04818 -2.32815)
(-11.0011 -3.57076 11.8649)
(-6.23655 -2.65319 -2.45141)
(-6.16706 0.887998 0.0518988)
(-8.04558 3.05874 3.17798)
(-8.73763 6.48459 0.410884)
(-2.04365 -2.45195 4.8199)
(-3.5345 -1.41083 3.31236)
(-4.40571 -2.60429 14.1481)
(-4.89329 -4.1079 4.25851)
(-6.5914 1.10163 9.45872)
(-5.13539 1.58188 1.22059)
(-3.17396 2.1309 -0.66107)
(-1.46802 3.99075 -3.31171)
(-3.25123 1.70116 2.50439)
(-0.382609 6.79462 -10.1199)
(-2.59981 -0.914078 2.73739)
(-3.72478 -2.66788 18.4198)
(-3.49419 -2.4214 3.55107)
(0.310892 -4.41013 42.8974)
(-8.0736 -1.10218 3.37131)
(-7.12084 -1.45777 -2.11306)
(-6.86919 -0.650906 1.39186)
(-5.43746 1.6327 -1.0707)
(-4.58218 4.16307 -8.01349)
(-4.51587 0.604188 0.275112)
(-1.25963 -0.431647 13.6242)
(-3.30502 -0.570139 4.81182)
(1.84676 -1.97659 38.1879)
(-8.88779 0.152253 4.92339)
(-8.04832 0.733535 -0.383143)
(-10.5776 -0.575925 11.9287)
(-5.77848 -0.148081 -4.30558)
(-5.2549 0.0842379 -9.30064)
(-6.00102 0.557141 -0.180765)
(-5.28031 2.07339 -5.61558)
(-2.8483 -0.0383806 6.53274)
(-1.69346 0.596742 7.4781)
(-6.15688 0.328104 7.85166)
(-6.26303 1.5647 -0.155182)
(-8.27401 -0.929589 6.72303)
(-4.1455 0.819929 -4.58694)
(-4.79467 1.01406 -9.33897)
(-6.54224 0.636253 1.37431)
(-7.45643 2.80942 -1.29056)
(-5.8765 1.23604 0.267752)
(-2.79319 -4.17542 1.82651)
(-3.57347 -7.54893 13.4547)
(-3.54338 -1.04253 4.55012)
(-6.91589 -12.0574 35.7935)
(-4.68523 -3.61028 2.31202)
(-3.43386 2.01284 -0.123131)
(-3.39623 3.67522 -1.29354)
(-2.86239 1.10887 2.10715)
(-2.94818 4.44222 -0.0328656)
(-2.35464 0.918991 3.66246)
(-2.87886 -4.00211 12.5565)
(-3.65371 -1.98641 5.42373)
(-5.33613 -4.80708 19.566)
(-4.17361 -2.17209 2.08648)
(-0.951439 -4.39009 21.7917)
(-3.34729 0.690593 -4.90571)
(-2.66071 1.13271 0.272768)
(-2.71924 3.275 -1.04014)
(-3.58624 0.314251 1.56434)
(-2.79126 2.98852 -6.09781)
(-3.05615 -1.40883 9.79122)
(-4.13681 -1.04868 12.8366)
(-5.07538 -0.53257 5.43888)
(1.31199 -2.81523 38.4646)
(-4.68242 0.980331 0.57423)
(-2.53093 1.39506 -3.12673)
(-2.93294 1.84097 -6.47078)
(-3.69077 0.634515 1.56996)
(-5.22413 1.85748 -0.196163)
(-3.11266 -1.13667 1.63006)
(-1.92819 0.765335 3.61864)
(-3.95433 0.482167 8.22242)
(-1.70506 1.42301 11.2857)
(-5.52517 1.34021 3.91584)
(-3.0151 2.44551 -3.93717)
(-2.56994 3.96195 -7.82313)
(-3.9246 0.871659 1.43704)
(-6.04903 3.4985 0.268042)
(-5.37997 -0.875348 6.20364)
(-5.0777 2.57284 1.03351)
(-3.15395 -3.74967 5.91512)
(-4.31325 -3.44327 -0.201029)
(-2.28395 -8.25766 15.1627)
(-2.57636 -1.52936 5.06404)
(-4.19292 -5.49427 23.9773)
(-2.76685 2.98675 -1.66169)
(-3.32318 1.22997 0.71822)
(-4.20812 4.79721 -0.726377)
(-3.13609 1.03278 4.10731)
(-2.7789 4.90811 2.65747)
(-3.31155 -2.45986 0.563844)
(-2.96136 -6.46986 19.1492)
(-3.35929 -0.59616 5.0538)
(-5.40724 -2.86677 13.8927)
(-2.979 1.29929 -1.5997)
(-1.41224 1.0237 1.43361)
(-4.54134 3.70672 -1.93402)
(-2.66326 0.450192 2.80024)
(-3.76656 3.41429 0.34644)
(-1.79546 0.176652 2.5689)
(-2.63137 0.546359 6.68459)
(-3.30965 -1.57126 15.2852)
(-5.68384 0.629094 4.82002)
(-4.20859 1.52953 0.919001)
(-1.09273 2.17477 -0.257267)
(-2.1833 3.49054 -3.04582)
(-1.50789 0.442514 2.11371)
(-4.0688 3.23651 -0.320142)
(-2.54411 -0.366141 4.05089)
(-2.61047 0.655323 -0.449991)
(-3.10243 -0.70825 8.94854)
(-3.55585 1.54633 -0.129358)
(-4.88021 2.17291 8.67385)
(-2.52971 3.57122 -1.90805)
(-3.59243 3.89746 -5.54779)
(-2.67767 5.13254 -4.36183)
(-4.36259 3.40556 1.6413)
(-2.19615 -0.353198 5.005)
(-3.65545 1.3296 2.49939)
(-1.71208 -1.48968 3.75237)
(-8.65141 -0.0941053 1.69381)
(-5.72909 -5.153 7.74433)
(-5.59986 -2.28393 -1.36958)
(-3.70157 -3.18043 12.9054)
(-3.75243 3.39464 -0.305015)
(-2.56364 4.01543 0.362086)
(-5.70171 6.05628 -3.44792)
(-4.20483 1.74358 3.57944)
(-5.3178 5.45229 -0.535465)
(-1.57347 1.60496 4.99582)
(-10.3362 -1.95486 6.29365)
(-7.80017 -4.01536 1.84555)
(-3.82505 -1.87116 11.7597)
(-2.06528 6.22368 -2.17249)
(-3.55906 9.57307 -7.37111)
(-6.15358 6.47449 -2.1309)
(-5.7581 2.7568 1.86595)
(-6.92644 5.68828 -2.52686)
(-4.21534 1.05138 4.04913)
(-3.53092 4.20424 0.262535)
(-6.84731 -2.19879 7.03422)
(-4.4546 -2.52048 8.0144)
(-1.57293 0.108168 4.66821)
(-2.0152 5.02761 -4.94953)
(1.10811 5.033 -4.7356)
(-2.61048 11.5517 -19.6966)
(-6.88151 4.55975 -0.201074)
(-5.15693 1.67149 3.53434)
(-5.59036 4.21797 -0.297942)
(-1.60224 -0.152665 3.53808)
(-5.19855 -1.06356 1.898)
(-3.47297 -2.71816 9.03287)
(-1.22403 0.540323 -1.69858)
(-0.32952 2.44281 -3.9788)
(-2.21778 6.21085 -8.22253)
(-0.446303 4.98876 -1.5532)
(-3.6892 9.94469 -20.0451)
(-5.31448 3.87782 2.34411)
(-3.8844 0.71092 4.92709)
(-2.76637 1.25907 0.675568)
)
;

boundaryField
{
    inlet
    {
        type            calculated;
        value           nonuniform 0();
    }
    outlet
    {
        type            calculated;
        value           nonuniform 0();
    }
    bottom
    {
        type            calculated;
        value           uniform (0 0 0);
    }
    top
    {
        type            symmetryPlane;
    }
    side1
    {
        type            symmetryPlane;
    }
    side2
    {
        type            symmetryPlane;
    }
    procBoundary20to12
    {
        type            processor;
        value           nonuniform List<vector> 
50
(
(-2.66805 1.54386 5.02067)
(-3.71727 1.60847 0.685933)
(-4.06186 2.71321 3.50748)
(-5.7141 2.63308 0.126664)
(-6.13928 3.49513 1.45293)
(-7.72592 2.50914 2.06175)
(-5.82004 4.57362 2.15035)
(-11.9653 -4.20784 9.82709)
(-8.98764 1.76832 4.04583)
(-4.5252 7.93213 -10.9465)
(-2.61396 -2.36463 1.84475)
(-4.43288 -1.4897 6.72463)
(-4.99038 -0.0554684 2.97881)
(-4.92158 2.27462 7.1873)
(-4.39711 1.54003 2.0111)
(-3.1977 3.90571 -0.619337)
(-2.70841 4.3054 0.250129)
(-3.64962 2.35204 1.36073)
(-0.820755 5.11045 -1.9205)
(-0.892739 2.35836 -1.10596)
(1.49907 -16.327 0.811956)
(-4.08597 -4.1286 0.218461)
(-6.63855 -13.2809 13.3066)
(-5.70172 -3.24099 4.00954)
(-2.693 2.87503 0.0216499)
(-2.51957 3.91235 -0.763846)
(-2.99403 1.38749 1.57653)
(-3.30306 4.21829 2.71935)
(-2.45306 0.931598 3.37568)
(-3.81779 3.1206 6.69233)
(-4.13049 -0.847566 0.974323)
(-1.83243 -4.17514 2.43317)
(-2.89587 -2.22113 -1.9229)
(1.65853 -12.9258 8.78052)
(-1.51493 -0.271893 1.36764)
(-0.62439 1.81777 0.803488)
(-2.91245 3.91533 -0.551356)
(-2.71125 0.612331 4.08852)
(-3.69323 4.8031 2.10372)
(-1.79723 1.51495 6.05997)
(-9.34552 7.51028 0.178182)
(-6.11311 -1.59233 1.09893)
(-2.30569 -4.85553 2.97077)
(-2.79832 -1.99623 1.38135)
(-0.62452 -0.116348 2.27595)
(-2.78745 4.1872 -1.88284)
(-3.05863 1.15036 3.2807)
(-4.30238 5.1875 -0.48829)
(-2.29039 1.3553 4.29672)
(-0.614114 4.00052 1.70845)
)
;
    }
    procBoundary20to19
    {
        type            processor;
        value           nonuniform List<vector> 
20
(
(-1.59061 0.621916 0.573016)
(2.18019 0.64248 -0.390887)
(5.46246 0.544682 7.25416)
(0.0282343 0.793387 6.5584)
(0.758561 -1.18108 -2.17803)
(-1.22554 -0.632133 0.298839)
(-0.872048 -0.503526 2.69366)
(-0.0733405 0.930084 0.971465)
(-0.779663 -1.91025 -1.98735)
(-1.74068 -2.57925 0.111797)
(-2.88817 0.885123 0.40653)
(-1.85611 -0.702643 1.81642)
(-3.58612 -3.81428 -1.12879)
(-4.90542 0.155742 3.56782)
(-2.04794 1.14627 2.51347)
(-3.11201 0.946066 1.7971)
(-14.6498 10.4794 -2.11963)
(-8.35279 -2.93902 -47.6769)
(-10.2452 -1.45775 2.45413)
(-6.19811 -2.38232 6.10328)
)
;
    }
    procBoundary20to21
    {
        type            processor;
        value           nonuniform List<vector> 
20
(
(-4.38407 3.71064 -11.2529)
(-7.17715 2.08576 0.678507)
(-7.97118 5.20422 -3.06646)
(-8.83762 2.08209 0.651866)
(-0.667652 2.15473 5.8164)
(-2.98045 3.32439 -11.8565)
(-3.93752 -1.91086 -1.12337)
(-7.32438 2.11526 -2.9153)
(-3.38611 2.2695 0.701916)
(-2.13251 -0.446854 -0.119758)
(-4.56726 -1.3729 -3.60379)
(-2.80568 0.908993 0.125518)
(-1.7256 1.8073 4.38706)
(-2.84155 0.739684 -3.5658)
(-1.78794 -0.503828 0.556688)
(-2.58692 -0.887686 -4.98517)
(-1.05243 4.31113 2.36967)
(-0.777692 0.652498 0.650076)
(-1.84824 0.532401 0.0801282)
(-1.20196 -1.65133 1.20224)
)
;
    }
    procBoundary20to28
    {
        type            processor;
        value           nonuniform List<vector> 
50
(
(-4.05904 0.604049 13.1633)
(-4.04527 1.18453 0.530084)
(-7.52821 -1.29627 10.9338)
(-7.14535 -0.443028 -1.7165)
(-10.0548 -3.94759 6.59858)
(-6.18246 -4.34528 -8.02252)
(-4.743 -3.21346 -6.99466)
(-5.07725 0.171031 5.52252)
(-6.58145 4.68418 2.89663)
(-7.7357 2.55052 4.79354)
(-2.96259 2.62186 0.195149)
(-5.53275 2.50234 14.3119)
(-3.72111 3.14257 2.56888)
(-7.14 0.171425 13.0204)
(-3.82902 0.576588 -5.90159)
(-3.9022 -0.677669 -11.632)
(-5.16708 0.586252 0.601701)
(-6.45899 3.0086 -1.50634)
(-4.40144 -3.62525 12.5012)
(-6.52021 2.32845 0.136988)
(-4.04118 0.806683 12.8389)
(-3.11317 3.03517 0.0879887)
(-5.18949 3.47361 12.581)
(-3.0929 2.83875 -2.9278)
(-4.14709 1.77229 -6.3083)
(-3.59326 2.94622 -1.65573)
(-4.83947 3.59415 -2.61421)
(-3.63754 -1.15693 7.50599)
(-4.15874 3.01665 3.43382)
(-2.01793 -13.9534 42.0324)
(-3.48228 0.285062 -0.358204)
(-4.94098 0.408217 17.2312)
(-3.73201 3.59668 -2.53027)
(-6.18479 4.17279 6.62956)
(-4.05508 3.19952 -2.40969)
(-5.59701 3.82907 -6.85518)
(-5.23093 4.78675 -9.17685)
(-4.62064 3.47612 5.04316)
(-2.69321 0.139169 7.43874)
(-2.0073 1.71366 7.73015)
(-5.35499 -3.04844 9.74058)
(-3.2074 -1.79719 -1.34346)
(-3.43223 -1.60155 20.0003)
(-0.604851 1.97058 -3.73388)
(-0.382373 2.97595 -4.15651)
(-3.38927 6.32533 -11.1996)
(-1.27657 3.16502 2.67804)
(-6.31396 8.08255 -27.8744)
(-6.44956 7.49191 0.979561)
(-3.06578 -0.0913716 5.31728)
)
;
    }
}


// ************************************************************************* //
