/*--------------------------------*- C++ -*----------------------------------*\
| =========                 |                                                 |
| \\      /  F ield         | OpenFOAM: The Open Source CFD Toolbox           |
|  \\    /   O peration     | Version:  2.4.0                                 |
|   \\  /    A nd           | Web:      www.OpenFOAM.org                      |
|    \\/     M anipulation  |                                                 |
\*---------------------------------------------------------------------------*/
FoamFile
{
    version     2.0;
    format      ascii;
    class       volSymmTensorField;
    location    "0.09";
    object      B;
}
// * * * * * * * * * * * * * * * * * * * * * * * * * * * * * * * * * * * * * //

dimensions      [0 2 -2 0 0 0 0];

internalField   nonuniform List<symmTensor> 
200
(
(5.99221e+13 3.1976e+12 5.89538e+11 5.76718e+13 2.71102e+12 5.7932e+13)
(3.46782e+13 -4.4147e+12 1.07143e+12 4.81822e+13 3.12835e+12 4.42767e+13)
(7.02534e+12 2.15757e+11 -6.05533e+11 1.27154e+13 2.1073e+12 1.02492e+13)
(2.05644e+13 2.21802e+12 -1.52018e+12 2.32798e+13 1.78976e+12 2.1041e+13)
(1.88534e+13 5.19277e+12 -1.92449e+12 3.54453e+13 4.91771e+12 2.54967e+13)
(7.96153e+12 2.09756e+12 -8.22959e+11 1.75714e+13 1.73963e+12 1.46324e+13)
(4.66419e+13 4.00401e+12 -2.6769e+12 6.55781e+13 4.17153e+12 5.35544e+13)
(-3.28494e+12 4.96708e+11 -4.68613e+12 -4.05223e+12 9.3837e+11 3.13495e+12)
(9.11066e+13 3.0633e+12 -6.6629e+12 8.26761e+13 3.32808e+12 9.37831e+13)
(2.59867e+13 -4.93621e+12 -1.12379e+13 4.80872e+13 3.2214e+12 4.1016e+13)
(3.60077e+13 4.90375e+11 1.01527e+11 2.6278e+13 2.05697e+12 3.21471e+13)
(2.63343e+13 9.98421e+11 7.15127e+11 2.29206e+13 2.37183e+12 2.4516e+13)
(4.83952e+12 -2.99862e+11 1.05818e+12 8.69384e+12 3.62359e+12 9.20606e+12)
(1.68629e+13 3.93871e+12 4.59951e+11 2.24491e+13 3.73402e+12 2.06828e+13)
(3.80851e+13 3.97682e+12 7.10849e+10 4.48629e+13 5.97664e+12 4.28382e+13)
(5.22626e+13 6.1562e+12 -1.56652e+11 6.45114e+13 8.51705e+12 5.78784e+13)
(1.16436e+13 3.40107e+12 -1.70775e+12 2.44218e+13 6.97821e+12 2.27406e+13)
(7.63971e+13 6.85215e+12 -2.77269e+12 9.2788e+13 6.46271e+12 8.45226e+13)
(2.53713e+13 3.39811e+12 -4.25486e+12 3.49977e+13 5.20072e+12 3.31616e+13)
(9.07444e+13 -1.21814e+13 -1.44597e+12 1.31046e+14 1.16573e+13 1.37433e+14)
(8.11941e+12 1.0848e+12 5.35923e+11 6.74132e+12 1.44644e+12 7.88189e+12)
(9.84992e+12 -1.90636e+11 5.2891e+11 6.03108e+12 1.75515e+12 9.54611e+12)
(8.17293e+12 1.35682e+12 5.63583e+11 6.65674e+12 2.65807e+12 8.71042e+12)
(1.85889e+13 2.3558e+12 2.55474e+12 1.96125e+13 4.10949e+12 2.16686e+13)
(1.22196e+14 7.08743e+12 2.32507e+12 1.22366e+14 7.66613e+12 1.21864e+14)
(1.31662e+13 -9.554e+11 5.16474e+11 1.42059e+13 7.9216e+12 2.02654e+13)
(9.00825e+13 6.408e+12 -3.93093e+11 8.27881e+13 7.49722e+12 8.56605e+13)
(6.27558e+13 6.32336e+12 1.64056e+12 5.99145e+13 7.76577e+12 6.3989e+13)
(4.76855e+13 1.01665e+13 -4.90546e+12 5.22409e+13 9.1556e+12 5.58775e+13)
(2.44675e+13 8.57863e+12 -2.19187e+11 4.02376e+13 1.15867e+13 4.18342e+13)
(6.55594e+12 4.98283e+11 8.27399e+11 4.75101e+12 1.14423e+12 6.83361e+12)
(6.02589e+12 1.09717e+12 8.9597e+11 4.81316e+12 1.56362e+12 6.58819e+12)
(6.46238e+12 1.37948e+12 2.01389e+12 6.22863e+12 2.19407e+12 9.30772e+12)
(1.22492e+14 6.30677e+12 3.53309e+12 1.15189e+14 3.48944e+12 1.18851e+14)
(1.94644e+13 2.4251e+12 1.38665e+12 1.92705e+13 5.82879e+12 2.59039e+13)
(5.71919e+12 -2.00561e+12 -2.3373e+12 3.7232e+12 9.07842e+12 1.54443e+13)
(7.38528e+13 5.00033e+12 2.90349e+12 6.08084e+13 5.68123e+12 6.96433e+13)
(4.86388e+13 2.17546e+12 2.60331e+12 2.58671e+13 8.58887e+12 4.46585e+13)
(5.28949e+13 6.52246e+12 6.20698e+12 4.24938e+13 9.69737e+12 5.45421e+13)
(1.82641e+14 1.45686e+13 1.47299e+13 1.70029e+14 1.08971e+13 1.95124e+14)
(4.51254e+13 3.77843e+12 -1.59391e+12 4.25917e+13 -1.38902e+12 4.22065e+13)
(8.44328e+12 5.88545e+11 -3.81817e+11 8.4709e+12 -3.766e+10 8.29384e+12)
(2.24365e+12 -6.33596e+11 -5.60449e+11 6.70818e+12 2.01976e+11 5.73398e+12)
(7.02525e+12 7.86344e+11 1.4103e+11 8.93325e+12 4.43246e+11 7.77358e+12)
(4.92211e+12 7.45496e+11 -3.40341e+11 8.33251e+12 4.56437e+11 7.38701e+12)
(1.08206e+13 9.06665e+11 1.32394e+11 1.62925e+13 1.04248e+12 1.35031e+13)
(1.19813e+13 -2.28811e+12 -4.90265e+11 2.08064e+13 1.0703e+11 1.6623e+13)
(1.29566e+14 -7.85557e+11 8.50237e+12 1.42952e+14 2.24994e+12 1.47525e+14)
(-7.43909e+12 3.20391e+11 1.22471e+12 7.36149e+12 6.11803e+11 9.76001e+12)
(1.37583e+14 2.64532e+13 1.24008e+14 2.78336e+14 -6.7461e+13 5.51373e+14)
(7.32371e+12 4.7156e+11 4.51921e+11 7.0687e+12 -9.44461e+10 7.54618e+12)
(1.02465e+13 3.12502e+11 2.77223e+10 8.63396e+12 -5.30225e+11 1.02286e+13)
(7.23806e+12 1.02725e+12 -2.03874e+11 7.33963e+12 3.58176e+11 7.61122e+12)
(2.67276e+12 8.23952e+11 -1.21393e+11 5.07947e+12 4.68271e+11 5.25905e+12)
(1.44664e+13 2.35932e+12 3.48807e+09 1.825e+13 7.58328e+11 1.69811e+13)
(1.23032e+13 1.90679e+12 -1.03119e+12 2.21115e+13 -1.97448e+11 2.05889e+13)
(4.54682e+12 -1.4894e+11 3.83403e+11 1.57514e+13 -1.3852e+11 1.40154e+13)
(1.45029e+13 6.16285e+11 1.58022e+12 2.9913e+13 -1.28916e+12 2.53707e+13)
(1.1844e+14 3.21127e+12 6.54307e+13 2.09808e+14 -1.27846e+13 2.9321e+14)
(2.6911e+14 -7.94468e+12 1.77672e+13 2.75162e+14 -9.21848e+12 2.97849e+14)
(7.0993e+12 3.64181e+11 3.1492e+11 7.03493e+12 -4.94055e+11 8.39838e+12)
(2.65393e+12 5.87489e+11 1.78487e+11 2.55291e+12 1.84121e+10 2.78662e+12)
(4.03859e+12 8.92721e+11 2.21789e+11 3.68921e+12 -1.01263e+10 5.07041e+12)
(7.77735e+12 1.71269e+12 8.08547e+10 7.94267e+12 4.25778e+11 9.16795e+12)
(7.02512e+12 1.85005e+12 -4.69234e+11 8.91771e+12 -5.39925e+11 8.39373e+12)
(-1.24655e+12 2.50831e+12 -1.43657e+12 3.41175e+12 -1.39083e+11 4.83491e+12)
(9.07465e+12 2.6744e+12 -8.78914e+11 1.00656e+13 -5.15183e+11 1.26595e+13)
(1.25275e+12 1.69019e+12 -1.9005e+12 1.15717e+13 -5.53586e+12 1.19966e+13)
(1.25572e+13 2.82304e+12 8.60638e+10 3.32425e+13 -3.11501e+12 3.25803e+13)
(-9.6865e+13 -3.46406e+13 7.31616e+13 -3.94233e+12 -6.30395e+13 1.60881e+14)
(1.88114e+12 7.4121e+11 1.86225e+11 1.63392e+12 2.01293e+11 2.28748e+12)
(2.96724e+12 7.28954e+11 2.30387e+11 2.89966e+12 -7.21514e+10 4.10987e+12)
(4.97856e+12 1.08407e+12 1.77737e+11 4.66087e+12 2.08038e+11 5.75973e+12)
(7.92553e+12 1.70594e+12 -1.06112e+11 8.07139e+12 7.1995e+09 8.93003e+12)
(1.36122e+13 2.26645e+12 4.96122e+10 1.27263e+13 -1.93331e+11 1.31653e+13)
(1.55658e+13 1.77767e+12 9.41165e+11 9.22964e+12 -2.94823e+11 1.44936e+13)
(2.04811e+13 5.62797e+12 4.56185e+11 1.17703e+13 2.76027e+11 1.96357e+13)
(2.09666e+13 4.5293e+12 5.35779e+10 2.05059e+13 6.85046e+11 2.46623e+13)
(4.49468e+13 -3.73657e+12 8.23701e+12 5.0108e+13 -1.12284e+12 5.66182e+13)
(4.93516e+13 1.20371e+13 -6.44912e+11 6.42196e+13 3.81642e+12 6.42641e+13)
(4.67848e+12 3.2396e+11 2.5835e+11 4.0734e+12 3.15792e+11 4.39901e+12)
(-2.85231e+11 -1.10064e+12 5.27688e+11 -1.06066e+12 -2.07434e+10 1.05832e+12)
(2.58139e+13 3.85402e+12 6.33654e+10 2.7705e+13 1.07347e+12 2.62015e+13)
(6.94238e+12 6.10823e+11 -1.20092e+11 7.90709e+12 2.55855e+11 7.53408e+12)
(2.27094e+13 4.23521e+12 -5.96077e+11 2.71694e+13 2.81545e+12 2.36051e+13)
(2.51492e+13 9.32062e+11 -7.79537e+11 3.3545e+13 2.69474e+12 3.02422e+13)
(2.80958e+14 8.61364e+12 2.19893e+13 3.1021e+14 1.0723e+13 3.16454e+14)
(9.42154e+13 2.53873e+13 1.14244e+13 7.30149e+13 4.16278e+12 9.60555e+13)
(4.63699e+14 2.37374e+14 3.59198e+14 2.76185e+14 -5.46329e+14 9.24864e+14)
(1.63512e+15 -1.58264e+14 1.25673e+14 1.46754e+15 -2.05912e+13 1.70277e+15)
(2.44055e+13 -1.08151e+12 8.93617e+11 2.16767e+13 3.29702e+11 2.42564e+13)
(1.31299e+13 1.95403e+12 -1.63709e+11 1.41847e+13 2.88512e+11 1.3802e+13)
(1.80047e+13 3.69287e+12 -3.78768e+11 1.93858e+13 3.60586e+11 1.91755e+13)
(1.52646e+13 6.16118e+12 2.67593e+12 2.09729e+13 3.06301e+12 1.90347e+13)
(3.26652e+12 1.37016e+12 1.14635e+12 5.20647e+12 7.62875e+11 4.86373e+12)
(4.56374e+12 2.5026e+11 2.27144e+12 4.61876e+12 -2.11735e+10 6.77595e+12)
(3.29081e+13 3.6369e+12 1.02458e+13 3.57307e+13 6.89135e+12 3.96979e+13)
(4.47459e+14 3.74609e+13 8.88235e+13 4.58931e+14 -1.62227e+13 5.73358e+14)
(1.49858e+15 -3.74033e+13 8.34985e+13 1.44496e+15 -2.86022e+13 1.56481e+15)
(5.1258e+14 -1.49494e+13 -1.44143e+14 1.08515e+14 -1.09393e+14 1.24535e+14)
(1.76678e+12 1.5228e+12 -1.13777e+12 4.43681e+12 -4.47674e+10 3.18168e+12)
(2.84467e+13 9.48103e+12 -1.49892e+12 3.46828e+13 -1.67495e+12 3.13613e+13)
(1.03498e+13 1.1163e+12 9.47312e+11 1.02232e+13 4.80807e+11 1.06017e+13)
(1.78478e+12 1.62184e+12 5.05152e+11 4.56877e+12 2.68498e+11 3.1155e+12)
(3.11374e+12 1.85869e+12 4.11466e+12 4.17671e+12 1.514e+12 5.53279e+12)
(7.34827e+12 4.78329e+10 1.06755e+12 8.29809e+12 -2.6144e+11 8.53584e+12)
(1.83457e+13 -2.14487e+12 1.22188e+12 2.15769e+13 -2.43837e+12 2.27651e+13)
(5.45388e+12 -2.74317e+12 1.40842e+13 2.15726e+13 2.38774e+12 2.29096e+13)
(-6.7215e+13 2.64016e+13 7.75377e+13 -1.8685e+13 -7.5895e+13 1.43894e+14)
(6.18056e+14 -2.31568e+12 1.81934e+13 6.79925e+14 -3.35693e+13 6.78876e+14)
(2.11543e+13 -5.74505e+11 8.60196e+11 2.4753e+13 -1.59118e+12 2.31611e+13)
(1.88221e+12 7.66957e+11 7.3914e+11 1.88998e+12 2.62119e+11 2.23562e+12)
(1.79702e+13 3.13763e+12 8.73308e+11 1.9443e+13 -4.44179e+11 1.90784e+13)
(3.34832e+13 2.08429e+12 9.49656e+11 3.22726e+13 2.57083e+11 3.24728e+13)
(6.34494e+12 1.98789e+12 1.22857e+12 1.74778e+12 7.83887e+11 5.13259e+12)
(5.87882e+12 1.30378e+12 2.72347e+12 1.68575e+12 -1.67805e+11 4.41495e+12)
(2.23256e+13 1.95321e+12 1.7386e+12 2.31023e+13 -4.32836e+11 2.34707e+13)
(4.36702e+13 -3.39669e+11 4.36399e+12 5.15859e+13 -2.1463e+12 4.83663e+13)
(5.27959e+13 1.25094e+13 7.00557e+12 8.49043e+13 -2.22773e+12 7.07292e+13)
(-1.01462e+14 4.89045e+13 1.92756e+13 2.7571e+13 3.12614e+12 -3.34915e+13)
(2.88118e+12 1.02622e+12 1.60042e+11 1.93167e+11 -4.68965e+10 3.52645e+12)
(3.32936e+13 1.08855e+13 3.15736e+11 3.71065e+13 2.38941e+12 3.57125e+13)
(1.93498e+13 4.08286e+12 -3.73183e+11 2.30258e+13 1.11334e+12 2.10352e+13)
(5.04904e+13 4.7028e+12 -4.8579e+11 5.50706e+13 1.82236e+12 5.27047e+13)
(8.51683e+13 7.68519e+12 1.17813e+12 9.31049e+13 3.25084e+12 8.83529e+13)
(2.70786e+14 2.51788e+13 3.27036e+13 2.76076e+14 1.67449e+12 2.79631e+14)
(3.73335e+14 3.73673e+13 1.36574e+13 3.41926e+14 2.26528e+12 3.51438e+14)
(2.70767e+14 1.53539e+14 2.85165e+14 2.67294e+13 -1.36606e+14 2.56356e+14)
(4.37675e+15 -3.50375e+14 4.01468e+14 3.7807e+15 2.84675e+13 4.33037e+15)
(5.60714e+15 -3.59659e+14 -2.40163e+14 5.31612e+15 -2.36247e+14 5.24744e+15)
(5.18657e+13 7.62119e+12 -3.66312e+12 5.58532e+13 1.4719e+11 5.20027e+13)
(3.49135e+13 8.9738e+12 -1.06353e+12 2.89905e+13 2.52509e+12 2.90876e+13)
(5.71837e+13 1.12317e+13 3.19197e+12 5.61037e+13 2.10926e+12 5.23234e+13)
(2.12629e+13 4.86131e+12 2.03508e+12 1.98983e+13 1.01658e+12 1.88575e+13)
(2.33177e+13 -1.53006e+12 4.09476e+12 1.95109e+13 -2.29411e+12 2.20867e+13)
(4.71992e+14 1.5261e+13 1.4839e+13 4.23972e+14 6.42502e+12 4.32393e+14)
(4.41968e+14 4.24668e+13 1.0879e+14 3.6577e+14 -2.96649e+13 4.80003e+14)
(4.39878e+15 -2.12845e+14 3.24316e+14 4.23344e+15 -7.85784e+13 4.48562e+15)
(1.67475e+15 -2.46735e+13 -2.96013e+14 1.00255e+15 -1.45166e+14 8.38861e+14)
(1.19819e+15 6.12344e+14 -1.27655e+15 2.67111e+15 1.30575e+14 8.53839e+14)
(7.8977e+13 4.40961e+13 -2.47615e+13 7.56934e+13 5.54338e+12 7.2419e+13)
(4.54342e+13 5.50136e+12 5.86163e+12 3.60917e+13 1.03995e+12 3.81713e+13)
(1.71653e+13 1.52134e+13 1.07617e+12 1.29257e+13 9.66431e+11 8.09358e+12)
(1.35189e+13 3.35039e+12 4.83444e+12 9.09507e+12 -6.01658e+11 6.73223e+12)
(5.08702e+12 1.31231e+12 2.31003e+12 5.23724e+12 -8.33949e+11 3.79547e+12)
(1.37366e+14 -2.05123e+13 3.19665e+12 1.52989e+14 -8.82894e+12 1.46223e+14)
(2.02366e+14 -7.61902e+12 1.78548e+13 1.34477e+14 2.66528e+12 1.41073e+14)
(4.99793e+13 5.97618e+13 7.139e+13 4.22558e+13 -1.19993e+14 1.86959e+14)
(2.78337e+15 -1.0381e+14 1.25126e+14 3.05508e+15 -1.46783e+14 2.98066e+15)
(6.63819e+14 -2.39793e+12 -6.91827e+13 5.72303e+14 1.65488e+13 5.36921e+14)
(1.36025e+11 1.02572e+12 4.57853e+11 -3.59568e+12 1.27478e+12 -1.62359e+12)
(4.54329e+13 3.17909e+13 1.44344e+12 4.59282e+13 -2.22511e+12 3.30689e+13)
(4.57676e+13 4.16548e+11 1.47045e+11 4.54265e+13 -1.39063e+11 4.5396e+13)
(4.90725e+13 8.92176e+12 6.55589e+10 4.54634e+13 3.38914e+11 3.91082e+13)
(3.54443e+13 3.83608e+12 2.10806e+12 1.94711e+13 -2.62283e+12 1.76235e+13)
(1.01443e+13 4.75823e+12 2.96236e+12 8.16147e+12 -1.57852e+12 5.32427e+12)
(1.41455e+14 -4.75826e+12 4.32137e+11 1.58972e+14 -6.59631e+12 1.46513e+14)
(4.40779e+12 1.09735e+13 8.41032e+12 1.58303e+13 -3.0567e+12 -4.04006e+12)
(2.72735e+14 1.02877e+14 -3.07945e+13 4.71089e+14 -7.97699e+13 3.46791e+14)
(1.39569e+15 5.10968e+13 -6.44886e+12 1.49949e+15 -6.59311e+13 1.41686e+15)
(6.53659e+13 1.11933e+13 9.39827e+11 6.40247e+13 1.62243e+12 5.86462e+13)
(1.33998e+13 4.10238e+12 5.44142e+11 1.37766e+13 1.37728e+12 1.20531e+13)
(2.06957e+13 4.55093e+12 2.24518e+08 2.16172e+13 -1.31093e+11 2.09456e+13)
(7.37646e+13 9.60519e+12 1.17858e+12 7.05481e+13 2.13443e+12 6.93163e+13)
(1.11714e+13 -4.87206e+12 4.73062e+12 -8.73753e+12 2.94687e+12 1.24824e+13)
(1.30687e+14 3.77532e+13 4.7216e+12 1.54463e+14 -2.2037e+12 1.32841e+14)
(1.94079e+14 2.53107e+13 3.01868e+13 1.64797e+14 1.15798e+13 1.6316e+14)
(6.90109e+15 -2.44317e+14 2.89066e+14 6.15057e+15 1.5216e+14 6.32467e+15)
(3.36291e+15 -1.63647e+14 5.2714e+13 2.75607e+15 -3.48231e+14 2.34529e+15)
(1.22978e+16 3.26115e+15 -3.43526e+15 1.58047e+16 -1.0332e+15 1.28012e+16)
(1.64281e+13 2.04868e+12 -4.23769e+11 1.54162e+13 1.16488e+12 1.3945e+13)
(2.33947e+13 8.44261e+12 -8.90092e+11 1.74766e+13 -9.52148e+11 1.51731e+13)
(1.71887e+13 5.13067e+12 1.10909e+12 1.12932e+13 1.59042e+12 1.07964e+13)
(6.39784e+13 -9.4731e+12 3.42728e+12 5.65495e+13 -1.39833e+12 5.80726e+13)
(4.21983e+14 6.0035e+12 4.2574e+12 3.88873e+14 -3.16797e+12 3.90178e+14)
(4.39747e+13 1.41497e+13 7.18562e+13 4.41845e+12 1.53282e+13 3.26473e+13)
(3.28335e+15 -3.5293e+14 4.14308e+14 3.00466e+15 -2.20792e+13 2.91079e+15)
(3.45827e+15 -1.4533e+13 -1.49503e+14 2.94973e+15 -9.27983e+13 2.72736e+15)
(4.43071e+15 1.13793e+15 -2.13552e+15 5.79209e+15 1.4987e+14 4.74735e+15)
(1.6542e+15 -4.60796e+14 1.93045e+14 3.63947e+15 -1.23177e+14 3.50744e+15)
(4.33008e+13 3.34532e+12 2.0755e+12 3.52936e+13 -1.27692e+12 3.76058e+13)
(3.16868e+12 1.36011e+12 7.12477e+10 2.67809e+12 2.38556e+12 1.71182e+11)
(1.61264e+13 9.2454e+11 -1.50977e+12 9.5152e+12 -3.63352e+12 6.93763e+12)
(-2.52639e+12 -1.37869e+11 1.87348e+12 5.89227e+11 3.57345e+11 -5.11089e+11)
(1.60067e+14 -2.50633e+13 4.02106e+12 1.9741e+14 -6.28033e+12 1.77097e+14)
(2.90813e+14 -1.59605e+12 5.94382e+09 2.70348e+14 -4.50553e+12 2.69879e+14)
(-1.05711e+14 -1.95656e+13 1.34857e+14 -5.05303e+13 -1.13881e+13 -1.44835e+13)
(3.44823e+15 -2.85113e+14 2.18513e+14 3.85252e+15 -1.97435e+14 3.4659e+15)
(1.7919e+15 -2.42289e+13 -4.02789e+13 1.69857e+15 9.16751e+12 1.66227e+15)
(1.01865e+15 7.29767e+14 -8.15346e+14 7.61872e+14 6.38716e+14 1.02306e+15)
(6.77783e+12 4.11822e+12 6.57992e+11 3.55344e+12 1.83451e+12 1.41658e+12)
(2.08916e+13 1.72324e+12 4.15545e+11 1.82103e+13 -1.3462e+11 1.9049e+13)
(5.26242e+12 1.87987e+12 -7.05626e+10 7.5432e+12 9.50339e+11 4.86968e+12)
(7.46261e+12 -1.05495e+12 -1.85325e+12 5.16604e+12 -2.7745e+12 3.84183e+12)
(3.16363e+12 1.50051e+12 2.23848e+11 4.89525e+12 -1.78674e+11 4.16964e+12)
(1.62962e+14 -1.46751e+13 1.59757e+12 2.0705e+14 -4.85952e+12 1.83763e+14)
(7.39086e+13 2.31793e+12 -1.7214e+12 6.51597e+13 -5.42001e+12 6.06791e+13)
(-1.58401e+14 5.57548e+13 3.58705e+13 8.76047e+13 -2.80054e+13 1.13056e+13)
(8.05058e+14 4.73084e+12 8.92336e+12 9.28949e+14 -5.79667e+13 8.34279e+14)
(3.19982e+14 8.58808e+13 -8.94935e+13 3.29756e+14 5.47574e+13 2.58231e+14)
)
;

boundaryField
{
    inlet
    {
        type            calculated;
        value           nonuniform 0();
    }
    outlet
    {
        type            calculated;
        value           nonuniform 0();
    }
    bottom
    {
        type            calculated;
        value           nonuniform List<symmTensor> 
40
(
(146375 242538 260947 -24312.5 648569 -79935.8)
(257007 29357.6 23728.7 -325490 223160 66884.2)
(41293.8 73312.3 79485.2 -51839.7 237948 8214.7)
(34478.4 35203.7 102597 -93039.8 143429 65046.3)
(-471708 -226720 67226.3 221798 283929 54418.2)
(142580 61622.8 168111 -68110.6 385032 509.379)
(73106.2 -11700 74439.9 -161270 213439 63558.4)
(8306.41 64561.8 124657 -63055.1 186063 31207.8)
(-191166 12206.9 -42124.5 130762 219748 5907.9)
(-117307 -11342.5 111831 28486.4 266074 54432.5)
(14797.4 62623.8 104487 -55181.9 250460 17790.4)
(-84679.9 74792.9 162618 -97353.5 211883 66119.7)
(-28701 119925 -123203 118120 173993 12025.6)
(-137749 161419 90018.2 91190.1 299279 -3534.41)
(-71558.5 106204 166976 -25410.2 333657 25492.9)
(256887 288028 197015 -76648.2 292589 195492)
(-183037 124539 -58863.5 214887 229413 -85623.2)
(-128464 153217 28676.6 132671 446489 30040)
(108581 244810 132801 114462 465187 235586)
(-110428 94707 234956 -117997 534248 380401)
(-351681 108670 -151034 146188 200336 -27369.2)
(-145130 178672 17494.7 210368 468538 -232.167)
(-131500 -30448.7 131279 -98365.2 512706 170023)
(-164862 -52613.2 -83350.2 -217223 365876 139236)
(-181026 105705 -227529 318884 237620 39261.1)
(-313147 106820 -44700 88188.3 462277 25063.8)
(203649 191867 1085.34 -14758.9 393904 194481)
(236872 158287 176772 -176054 413453 166314)
(-183529 15867.5 -307946 -208040 168600 61074.3)
(-255211 235910 -183128 309106 460663 46394.3)
(43257.1 228752 278761 -59527.6 645506 190734)
(194698 50108 134195 -329809 362561 195117)
(144923 107408 -421402 -150672 301804 54720.3)
(-238750 125257 -227455 116083 461387 7821.77)
(-91034.3 243531 -61745.9 18087.5 511945 203880)
(64329.4 175855 358523 -216097 501469 125979)
(-362162 -121634 -311541 182420 320673 -48401.4)
(-364967 -180763 -119423 233069 399613 34900.3)
(-388372 227162 238692 29222.1 743946 -13223)
(89685.9 299687 431033 -169754 545784 401160)
)
;
    }
    top
    {
        type            symmetryPlane;
    }
    side1
    {
        type            symmetryPlane;
    }
    side2
    {
        type            symmetryPlane;
    }
    procBoundary20to12
    {
        type            processor;
        value           nonuniform List<symmTensor> 
50
(
(-1.27466e+13 -1.02419e+13 4.4237e+12 5.81638e+12 1.14555e+12 4.0024e+11)
(2.41608e+11 -3.22763e+11 -1.00848e+12 2.39372e+12 1.08854e+12 1.18874e+11)
(-9.00002e+11 1.38115e+12 -1.06158e+12 1.10736e+12 8.39197e+11 5.17628e+10)
(-3.17518e+12 2.07752e+12 -2.45852e+12 3.03404e+12 2.56451e+12 2.51983e+11)
(-3.98303e+12 9.32816e+12 -4.13028e+12 -3.7773e+12 1.3658e+12 8.15868e+11)
(-1.17957e+13 -3.08536e+12 -3.08726e+12 1.0594e+13 4.86133e+12 1.64067e+12)
(1.67523e+13 1.68182e+13 -1.02197e+12 -1.86264e+13 -2.97921e+12 1.3375e+12)
(7.29647e+12 1.49148e+13 8.17765e+11 -9.7521e+12 6.81181e+12 3.40239e+12)
(-1.19705e+13 -1.44045e+13 -4.41626e+12 4.86167e+12 5.71465e+12 4.65374e+12)
(-2.28331e+13 -9.62101e+12 -1.27584e+12 5.12819e+12 4.40688e+12 2.89428e+13)
(-4.82946e+11 6.43093e+11 -6.78721e+11 2.37631e+11 -3.14961e+10 -2.2242e+11)
(-6.90243e+11 5.55512e+11 -5.26237e+11 2.21879e+12 1.68098e+11 -1.7979e+11)
(-3.05154e+11 3.50956e+11 -1.23307e+10 4.6422e+11 1.6405e+10 -6.87786e+10)
(-2.50656e+11 3.31696e+11 -1.04045e+11 1.04439e+12 -3.46661e+11 -1.94621e+11)
(5.68583e+11 1.28269e+12 -5.40478e+10 1.38033e+12 7.05994e+11 -8.60297e+11)
(5.50879e+11 -1.63733e+12 -1.26256e+12 2.08083e+12 -2.37889e+12 -2.80371e+12)
(2.80539e+12 -1.58131e+12 6.82095e+11 1.29254e+12 -6.29948e+11 -2.21716e+12)
(-7.42122e+12 -1.91361e+11 1.31982e+12 -1.16309e+12 -1.7545e+12 2.27257e+12)
(-3.92098e+13 7.52164e+12 3.53445e+13 2.65913e+12 1.59449e+13 8.52808e+13)
(-1.82139e+13 1.29666e+12 -1.25297e+13 -5.80199e+12 6.58536e+11 -6.06337e+12)
(-1.06029e+12 3.72836e+11 -2.59952e+11 1.64075e+12 -5.92013e+11 -9.58022e+10)
(-3.15096e+11 2.03409e+11 2.80665e+10 1.94029e+10 4.58187e+09 6.32109e+10)
(-6.40542e+11 -1.08137e+11 -2.84277e+11 3.25033e+11 -2.03399e+11 -1.88384e+11)
(-7.9678e+11 1.69571e+12 -1.15885e+12 2.10221e+12 4.33517e+11 -1.05883e+12)
(-1.62197e+12 -1.40798e+12 -1.99773e+12 1.39045e+12 -2.1905e+11 -9.92928e+11)
(-5.5327e+11 -6.53815e+12 -5.44807e+12 6.41847e+12 1.04252e+12 -2.70152e+12)
(-1.22587e+13 1.62466e+13 1.5424e+13 -3.349e+12 9.31747e+12 8.97327e+12)
(-1.40679e+14 8.84179e+13 2.6577e+14 3.93517e+13 4.72367e+13 9.24627e+13)
(-1.05245e+13 -1.73162e+13 -4.24002e+13 -4.67988e+12 -4.43856e+12 -5.8754e+12)
(2.62943e+14 -4.83657e+14 -1.05525e+15 -2.86081e+14 -5.13722e+14 1.22253e+14)
(4.62313e+11 8.77523e+11 3.72519e+11 -6.05258e+11 4.0094e+11 3.27388e+11)
(-3.4951e+11 9.67597e+09 -2.75523e+11 1.93215e+11 4.00471e+10 9.80443e+10)
(-1.29853e+12 5.4819e+11 -9.93218e+11 8.38574e+11 1.13548e+12 2.91159e+11)
(-6.59383e+12 -1.55444e+12 -2.52175e+12 4.18288e+12 1.27327e+12 -1.8641e+11)
(-1.36004e+13 -2.65361e+12 -3.44549e+12 1.1311e+13 2.58704e+12 8.81364e+11)
(-1.68141e+13 2.07439e+13 1.78586e+13 -1.67826e+12 1.87691e+12 1.70023e+12)
(-9.58753e+13 5.38485e+13 1.32265e+14 5.01465e+13 2.97411e+13 2.36259e+12)
(2.27663e+13 -7.50141e+12 -1.62914e+13 2.09321e+13 -1.76896e+13 -2.94586e+13)
(7.68942e+14 -1.62452e+14 -1.019e+14 -2.49318e+14 -7.16485e+14 -1.29336e+15)
(2.32045e+14 -1.75759e+14 1.38642e+14 -2.02394e+14 2.3828e+13 5.85189e+13)
(-9.11944e+09 2.31274e+11 1.07598e+11 1.01711e+11 1.57408e+11 -5.75452e+10)
(-8.00694e+11 3.56222e+12 1.77066e+11 1.28455e+12 3.29575e+11 -2.14599e+11)
(-1.73472e+12 1.66255e+12 -1.47199e+11 8.56632e+11 1.06183e+12 6.26257e+10)
(-4.89951e+12 2.32328e+12 -8.68419e+11 3.58591e+12 5.941e+11 1.30352e+12)
(-7.52214e+12 4.67189e+12 -8.4746e+10 9.44477e+12 4.07847e+12 3.29322e+12)
(-6.16998e+12 8.80557e+12 -3.46601e+12 -6.89051e+12 3.91879e+12 6.68249e+12)
(5.79023e+12 2.58198e+13 -2.309e+12 3.12016e+13 -8.82401e+12 -1.07599e+13)
(3.39104e+12 5.62239e+13 2.16526e+14 5.77551e+13 2.66552e+12 -2.51726e+14)
(8.8408e+14 -1.71948e+14 3.02507e+14 -5.48239e+14 1.98201e+14 -1.12966e+14)
(6.17937e+14 2.85626e+14 2.88311e+14 -4.74969e+14 -2.86458e+14 -4.33198e+14)
)
;
    }
    procBoundary20to19
    {
        type            processor;
        value           nonuniform List<symmTensor> 
20
(
(1.63076e+13 4.8602e+12 -1.99825e+12 -2.63993e+13 7.71195e+12 9.69493e+11)
(7.63086e+11 1.59763e+12 4.36138e+11 9.0191e+11 1.56453e+12 1.46947e+11)
(3.76768e+11 1.44682e+12 5.60958e+11 -1.15685e+12 1.60361e+12 5.93222e+11)
(2.15753e+11 8.42231e+11 7.78065e+11 -6.55336e+11 1.10879e+12 4.71514e+11)
(-9.12593e+10 3.93676e+11 7.4256e+10 3.09171e+11 5.30112e+10 -2.67219e+11)
(-3.17487e+11 1.46521e+12 -3.26115e+10 4.50902e+11 2.38218e+11 -2.65278e+11)
(-2.82814e+11 4.37448e+11 4.81009e+11 -4.89758e+11 2.13285e+10 8.58495e+11)
(4.84222e+10 4.10831e+11 4.05078e+11 -6.16143e+11 2.06409e+11 5.5177e+11)
(-4.35312e+11 1.34284e+12 -5.07014e+11 9.94914e+11 -1.22279e+11 -4.73887e+10)
(1.37462e+12 2.37003e+11 1.59927e+12 -1.16073e+12 2.5572e+11 1.20518e+12)
(-4.27336e+10 -6.86598e+11 8.45417e+11 -2.05394e+11 -5.69643e+11 1.04253e+12)
(-1.65408e+12 2.58319e+12 -8.1058e+11 8.74662e+10 -2.5858e+11 3.87704e+10)
(1.92406e+12 -4.99342e+11 1.6344e+12 -2.63401e+12 1.22829e+12 4.82098e+11)
(5.68907e+11 -1.28596e+12 1.66778e+12 -6.57429e+12 1.6872e+12 9.21564e+11)
(-6.73108e+12 8.00589e+12 -9.68574e+12 7.86428e+12 -2.0169e+12 -3.72792e+12)
(-3.53082e+12 -8.08133e+12 1.30336e+12 1.4391e+13 -5.51291e+12 -1.11544e+12)
(-1.93924e+10 3.79478e+11 4.38124e+11 -4.34116e+11 3.11936e+11 -2.16801e+11)
(2.07639e+12 3.25922e+12 -2.20466e+11 6.48779e+11 1.607e+11 -2.63632e+12)
(1.35199e+12 1.6593e+12 -2.13366e+12 7.84399e+11 3.63337e+12 -6.00053e+12)
(2.7385e+12 7.0455e+11 1.18694e+12 -8.25458e+11 -3.95868e+11 -1.08183e+12)
)
;
    }
    procBoundary20to21
    {
        type            processor;
        value           nonuniform List<symmTensor> 
20
(
(-7.48077e+13 -2.32478e+13 -3.87378e+12 -1.59582e+13 1.11312e+13 5.78065e+13)
(-1.79296e+13 2.9623e+12 -1.21404e+13 1.12713e+13 2.84681e+12 1.56201e+13)
(-1.09315e+14 -4.00687e+13 2.66814e+13 7.59727e+13 1.54672e+13 4.8456e+13)
(-6.47129e+12 1.27493e+13 5.81291e+12 -4.98173e+12 1.75569e+13 1.41772e+13)
(1.4885e+12 -1.58642e+13 2.98398e+12 -1.68241e+13 -9.73721e+12 2.49308e+13)
(-2.41931e+13 8.7756e+12 6.19801e+13 -7.58223e+13 -2.01741e+13 -1.86723e+13)
(-1.17708e+13 1.20132e+13 -9.35032e+11 1.91254e+13 -8.34984e+12 9.3042e+12)
(-9.2663e+13 2.58788e+13 2.13893e+13 4.63091e+13 -4.05963e+13 3.04897e+13)
(1.11001e+14 -1.93377e+14 -1.89997e+14 -2.10682e+13 -1.88731e+14 -1.19287e+14)
(-1.48469e+13 -3.91796e+13 -4.61331e+13 2.88711e+14 -3.35892e+13 -1.39746e+14)
(-1.04651e+12 -4.72205e+12 2.52877e+12 -2.32853e+13 1.95937e+13 -3.57692e+13)
(-1.57575e+13 3.0354e+13 -3.87236e+12 2.17105e+13 -7.67479e+12 -2.97538e+12)
(-2.71065e+14 9.94063e+14 -1.54324e+15 1.05002e+15 2.3007e+14 -1.29153e+15)
(-5.05388e+14 -1.1674e+15 -3.00365e+14 1.62999e+15 -6.40018e+13 -1.30819e+14)
(-2.53598e+13 3.45761e+13 3.05854e+13 1.2188e+14 2.19032e+14 -1.73335e+14)
(-4.1141e+13 8.40327e+13 -3.99399e+13 9.52693e+13 2.7528e+13 -7.37132e+13)
(-4.79235e+14 7.28353e+14 -2.35314e+14 -5.2447e+14 4.83685e+14 1.24117e+15)
(-3.76463e+14 -2.44542e+14 8.48689e+14 -1.4605e+15 9.64901e+14 4.718e+14)
(-7.94211e+14 7.83945e+12 -3.02923e+13 4.23862e+14 8.86487e+13 2.94236e+14)
(-4.03692e+13 1.04731e+14 -3.20529e+13 -7.48529e+13 1.40692e+13 2.63431e+13)
)
;
    }
    procBoundary20to28
    {
        type            processor;
        value           nonuniform List<symmTensor> 
50
(
(2.7794e+11 6.01111e+11 1.0438e+12 -6.92639e+11 8.71944e+11 5.65252e+11)
(2.35343e+10 3.12158e+11 1.50941e+12 -1.5931e+12 1.20601e+12 1.14736e+12)
(4.04289e+11 1.27778e+12 1.74396e+12 -1.56571e+12 1.45263e+12 1.24897e+12)
(3.11489e+12 2.98971e+12 3.1541e+12 -3.12241e+12 2.35147e+12 2.09263e+12)
(3.95313e+12 -4.32292e+11 5.42899e+12 -7.58281e+12 3.06953e+12 3.1269e+12)
(2.263e+12 1.46366e+11 3.0476e+12 -5.3323e+12 2.01146e+12 4.76116e+12)
(4.34726e+12 1.32082e+12 1.47969e+12 -9.54838e+12 3.39094e+12 3.9279e+12)
(2.33974e+12 3.80354e+12 9.78063e+12 -9.63384e+12 4.0724e+12 6.22484e+12)
(3.41538e+12 7.57861e+12 1.26059e+13 -1.24737e+13 5.46651e+12 9.7257e+12)
(-8.2879e+12 1.13413e+13 1.81728e+13 -1.77058e+13 1.3489e+13 2.54945e+13)
(4.78101e+10 3.85109e+11 3.87095e+11 -5.03739e+11 5.29457e+10 4.33867e+11)
(1.70423e+11 7.09741e+11 3.19449e+11 -5.95836e+11 8.52229e+10 3.96957e+11)
(3.17506e+11 1.43485e+12 2.65969e+11 -7.8836e+11 2.67757e+11 3.13074e+11)
(7.34196e+11 2.0857e+12 6.66897e+11 -1.05442e+12 5.497e+11 2.05107e+11)
(3.75165e+12 -1.7861e+11 3.85493e+11 -4.13387e+12 -6.97994e+11 9.82954e+11)
(4.04121e+12 -2.5152e+11 5.60518e+11 -3.67395e+12 -8.7853e+10 -4.63242e+11)
(3.02541e+12 3.80244e+12 3.25538e+12 -4.59318e+12 2.83891e+11 1.79847e+12)
(3.35925e+12 3.71644e+12 4.4016e+12 -6.41087e+12 2.15829e+12 2.74135e+12)
(8.07275e+12 1.03422e+13 8.38921e+12 -8.49681e+12 8.48257e+12 3.00209e+12)
(-8.15784e+12 -2.3802e+12 1.63156e+13 -1.56709e+12 9.37739e+12 6.94063e+12)
(3.20195e+11 9.67423e+11 1.04349e+12 -1.2639e+12 -6.81462e+10 -1.91735e+10)
(4.66885e+11 1.99107e+12 4.30947e+11 3.01708e+10 -6.6469e+11 -4.85902e+11)
(2.01977e+12 2.73069e+12 5.54572e+11 -2.07727e+11 3.7325e+11 -1.58976e+12)
(3.58595e+12 -2.23225e+11 4.49838e+12 -4.75701e+12 9.38829e+11 3.59736e+11)
(7.2438e+11 -4.88191e+11 2.15897e+12 -2.98613e+12 1.73611e+12 -3.64244e+11)
(1.4306e+12 4.02206e+12 1.39189e+12 -2.86334e+12 9.321e+11 -4.13335e+11)
(3.51411e+12 4.79084e+12 4.59059e+12 -2.55652e+12 -5.73945e+11 -9.78917e+11)
(8.77533e+11 9.17689e+12 6.09605e+12 -1.13871e+12 5.72426e+10 -2.62287e+12)
(-1.3758e+12 3.4982e+12 1.51737e+13 5.2714e+12 3.66978e+12 -5.97986e+12)
(-1.84764e+12 3.87072e+13 -7.32132e+11 -3.42626e+12 6.23091e+12 -5.57734e+13)
(8.79609e+11 1.11821e+12 -2.62814e+11 1.95062e+12 -1.26191e+12 -8.97062e+11)
(7.23295e+11 1.16979e+12 -9.35063e+11 -2.60546e+11 -4.41239e+11 -3.4103e+11)
(9.58772e+12 8.8461e+12 4.80213e+12 -2.17782e+12 -7.21196e+11 -1.53646e+12)
(6.97986e+12 2.36149e+12 7.77139e+12 -6.97821e+12 -4.85091e+11 -2.63352e+12)
(1.37713e+13 1.08475e+12 -1.55698e+12 -7.739e+12 2.1673e+12 -7.26536e+12)
(1.45495e+13 1.05166e+13 1.27335e+12 -2.46892e+12 -4.13672e+11 -4.81222e+12)
(1.45827e+13 1.43375e+13 -3.45504e+11 -7.48837e+12 8.36418e+11 -4.60683e+12)
(-4.84164e+12 2.45104e+13 -1.545e+12 1.24107e+13 -6.01656e+12 -4.34178e+12)
(3.52278e+13 8.28356e+13 -8.61603e+13 2.06809e+13 -2.81253e+13 -1.9812e+13)
(2.28544e+13 9.77187e+13 -8.06308e+13 1.1724e+14 -3.15624e+13 -4.14207e+13)
(4.67178e+11 3.99811e+11 1.69171e+11 -4.4487e+11 9.60485e+10 -2.44079e+11)
(1.79816e+12 2.25378e+12 3.07012e+11 -9.92222e+11 1.59906e+11 -2.07101e+11)
(9.67952e+11 5.19751e+11 -2.36975e+11 -8.90265e+11 -2.53156e+11 4.08792e+11)
(2.13728e+12 9.79247e+10 -5.10714e+11 -2.00195e+12 7.39685e+10 -7.4512e+11)
(4.49658e+12 1.2869e+12 -2.88817e+11 -3.99453e+12 -1.48986e+12 -9.06866e+11)
(2.75196e+11 3.71596e+12 -3.9959e+11 -1.05041e+12 6.05956e+11 -1.18588e+11)
(-5.54511e+12 -9.90887e+11 6.06157e+11 1.0738e+13 -1.11407e+10 -7.83168e+10)
(-5.42385e+12 1.43798e+13 -5.30264e+12 -8.45178e+12 -5.09544e+12 -1.99356e+12)
(-3.34576e+13 1.57038e+14 -2.24179e+13 1.01891e+14 -3.98858e+13 3.44138e+12)
(-5.48905e+12 3.56526e+13 -1.95993e+13 -3.5283e+12 -2.9124e+13 3.17856e+13)
)
;
    }
}


// ************************************************************************* //
