/*--------------------------------*- C++ -*----------------------------------*\
| =========                 |                                                 |
| \\      /  F ield         | OpenFOAM: The Open Source CFD Toolbox           |
|  \\    /   O peration     | Version:  2.4.0                                 |
|   \\  /    A nd           | Web:      www.OpenFOAM.org                      |
|    \\/     M anipulation  |                                                 |
\*---------------------------------------------------------------------------*/
FoamFile
{
    version     2.0;
    format      ascii;
    class       volScalarField;
    location    "0.12";
    object      p;
}
// * * * * * * * * * * * * * * * * * * * * * * * * * * * * * * * * * * * * * //

dimensions      [1 -1 -2 0 0 0 0];

internalField   nonuniform List<scalar> 
200
(
3.42983e+23
3.037e+23
2.53864e+23
1.88499e+23
1.16299e+23
5.53355e+22
-1.31287e+22
-6.32664e+22
-8.75646e+22
-2.8352e+22
3.24351e+23
2.82569e+23
2.35229e+23
1.86725e+23
1.36462e+23
8.66701e+22
4.65111e+22
2.70792e+22
9.00562e+21
-4.37542e+21
3.08407e+23
2.68963e+23
2.26022e+23
1.83468e+23
1.40403e+23
9.78277e+22
6.38128e+22
4.30863e+22
1.91173e+22
6.39247e+21
2.87855e+23
2.43685e+23
2.03846e+23
1.62352e+23
1.25045e+23
9.25815e+22
6.43974e+22
3.98151e+22
2.104e+22
8.04409e+21
2.98596e+23
2.35277e+23
1.78255e+23
1.06168e+23
6.16005e+21
-1.15307e+23
-2.75156e+23
-5.07455e+23
-1.82324e+23
-2.13918e+22
2.77285e+23
2.21649e+23
1.65482e+23
1.18654e+23
6.90834e+22
1.40031e+22
-1.67395e+22
-3.73348e+22
-2.92481e+22
-1.3554e+22
2.73569e+23
2.15301e+23
1.75899e+23
1.23972e+23
9.02169e+22
4.97521e+22
1.30992e+22
-8.10598e+21
-2.03948e+22
-1.05739e+22
2.5215e+23
2.12988e+23
1.65355e+23
1.24214e+23
7.89844e+22
4.68116e+22
2.29543e+22
6.55123e+21
3.10809e+21
2.77753e+20
2.18779e+23
9.65241e+22
-4.6929e+22
-2.14531e+23
-4.87953e+23
-1.08297e+24
-2.49531e+24
-2.30112e+24
-9.52316e+23
1.81526e+24
2.33546e+23
1.40209e+23
6.51402e+22
-1.27443e+22
-1.48048e+23
-2.63574e+23
-3.38717e+23
-4.49894e+23
-7.63173e+22
-1.36812e+23
2.38981e+23
1.70792e+23
1.39433e+23
1.06243e+23
1.89008e+22
-9.821e+22
-1.94471e+23
-2.49819e+23
-2.83305e+23
-2.17836e+23
2.57987e+23
2.1391e+23
1.71417e+23
1.13983e+23
2.53083e+22
-6.61601e+22
-1.0882e+23
-1.18329e+23
-6.70426e+22
-4.18987e+22
1.75754e+23
2.49346e+21
-2.34322e+23
-8.14235e+23
-2.28903e+24
-5.66688e+24
-7.08288e+24
-7.55588e+24
-1.44777e+25
-4.31044e+24
2.35114e+23
1.48278e+23
1.47467e+22
-2.00676e+23
-4.65038e+23
-8.56602e+23
-1.28124e+24
-2.55365e+24
2.39097e+24
2.93148e+24
2.75742e+23
2.35811e+23
1.78327e+23
9.76251e+22
-5.59273e+22
-3.14083e+23
-8.89808e+23
-2.0956e+24
-4.01294e+24
-5.24334e+24
3.00845e+23
2.65061e+23
2.15758e+23
1.36444e+23
7.15535e+21
-2.3445e+23
-6.17144e+23
-7.84217e+23
-9.72941e+23
-8.84802e+23
1.83342e+23
-6.13528e+21
-4.5024e+23
-1.55686e+24
-3.86702e+24
-7.05646e+24
-8.89212e+24
-8.26029e+24
-8.73275e+24
-9.92407e+24
2.83209e+23
2.04306e+23
6.41408e+22
-1.38157e+23
-3.22529e+23
-5.8716e+23
-1.56059e+24
-2.36631e+24
-2.53323e+24
7.80081e+23
3.3506e+23
3.06782e+23
2.62644e+23
2.20652e+23
2.65628e+23
1.08911e+23
-4.4335e+23
-7.39345e+23
-5.57713e+23
-3.52825e+23
3.65227e+23
3.45145e+23
3.09686e+23
2.01343e+23
1.5793e+22
-2.09506e+23
-3.79975e+23
-9.04503e+23
-8.43494e+22
7.79491e+22
)
;

boundaryField
{
    inlet
    {
        type            zeroGradient;
    }
    outlet
    {
        type            fixedValue;
        value           uniform 0;
    }
    bottom
    {
        type            zeroGradient;
    }
    top
    {
        type            symmetryPlane;
    }
    side1
    {
        type            symmetryPlane;
    }
    side2
    {
        type            symmetryPlane;
    }
    procBoundary23to15
    {
        type            processor;
        value           nonuniform List<scalar> 
50
(
3.86369e+23
3.46041e+23
2.83133e+23
2.00816e+23
1.64586e+23
1.26179e+23
2.32254e+22
-5.58e+22
-7.81943e+22
-4.09671e+22
3.34447e+23
2.55711e+23
1.82969e+23
9.17298e+22
-4.44201e+22
-1.82736e+23
-4.18563e+23
-5.55095e+23
-6.84669e+23
-2.2542e+23
2.40152e+23
7.34417e+22
-1.65308e+23
-5.07777e+23
-9.47518e+23
-1.7865e+24
-3.22595e+24
-4.69452e+24
-3.61243e+24
-2.87492e+23
1.26868e+23
-8.76542e+22
-5.03826e+23
-1.56194e+24
-3.88736e+24
-9.92857e+24
-1.89785e+25
-1.99149e+25
-3.21665e+25
-2.48185e+25
-4.39152e+22
-4.38099e+23
-1.05743e+24
-3.17819e+24
-9.97872e+24
-2.44959e+25
-2.36416e+25
-1.5217e+25
-1.22125e+25
-8.59503e+24
)
;
    }
    procBoundary23to22
    {
        type            processor;
        value           nonuniform List<scalar> 
20
(
3.82435e+23
3.60624e+23
3.48289e+23
3.28217e+23
3.54142e+23
3.30408e+23
3.12937e+23
3.06507e+23
3.23139e+23
3.07704e+23
2.9786e+23
2.97946e+23
2.85611e+23
3.24213e+23
3.3039e+23
3.34174e+23
2.9838e+23
3.53446e+23
3.52173e+23
3.80984e+23
)
;
    }
    procBoundary23to31
    {
        type            processor;
        value           nonuniform List<scalar> 
50
(
2.49299e+23
2.14702e+23
1.72807e+23
1.36434e+23
1.03587e+23
7.65954e+22
5.24946e+22
3.21525e+22
1.73562e+22
5.17248e+21
2.12039e+23
1.79266e+23
1.36493e+23
9.42016e+22
7.07174e+22
5.43077e+22
4.04003e+22
2.99304e+22
1.1855e+22
2.58621e+21
2.46561e+23
2.0801e+23
1.6385e+23
1.03323e+23
5.83035e+22
3.03762e+22
1.16218e+21
3.27948e+21
2.29514e+21
-1.2572e+22
2.96305e+23
2.54976e+23
2.0761e+23
1.41959e+23
3.89964e+22
-1.17271e+23
-2.70405e+23
-2.67426e+23
-1.2669e+23
-1.13051e+23
3.5372e+23
3.19978e+23
2.58173e+23
1.61832e+23
2.62478e+22
-2.07867e+23
-6.42598e+22
-4.37135e+22
-8.37822e+22
2.7275e+23
)
;
    }
}


// ************************************************************************* //
