/*--------------------------------*- C++ -*----------------------------------*\
| =========                 |                                                 |
| \\      /  F ield         | OpenFOAM: The Open Source CFD Toolbox           |
|  \\    /   O peration     | Version:  2.4.0                                 |
|   \\  /    A nd           | Web:      www.OpenFOAM.org                      |
|    \\/     M anipulation  |                                                 |
\*---------------------------------------------------------------------------*/
FoamFile
{
    version     2.0;
    format      ascii;
    class       volScalarField;
    location    "0.03";
    object      alpha;
}
// * * * * * * * * * * * * * * * * * * * * * * * * * * * * * * * * * * * * * //

dimensions      [0 0 0 0 0 0 0];

internalField   nonuniform List<scalar> 
200
(
2.93008e-17
4.02263e-15
5.19938e-13
6.1604e-11
6.4881e-09
5.76567e-07
3.90393e-05
0.00154223
3.90393e-05
5.76573e-07
4.02054e-19
5.09252e-17
6.03383e-15
6.49927e-13
6.16063e-11
4.86649e-09
2.88333e-07
9.76439e-06
2.88333e-07
4.86654e-09
2.97073e-21
3.49225e-19
3.81953e-17
3.77137e-15
3.24994e-13
2.31057e-11
1.21693e-09
3.60643e-08
1.21693e-09
2.31059e-11
1.56367e-23
1.71671e-21
1.74497e-19
1.59129e-17
1.25729e-15
8.12633e-14
3.85216e-12
1.01491e-10
3.85216e-12
8.12644e-14
1.56617e-19
1.98413e-17
2.35134e-15
2.53321e-13
2.40168e-11
1.89754e-09
1.12449e-07
3.80884e-06
1.12634e-07
7.38268e-09
2.31381e-21
2.72055e-19
2.97611e-17
2.93918e-15
2.53332e-13
1.80145e-11
9.48977e-10
2.81292e-08
9.50732e-10
6.43022e-11
1.82642e-23
2.00559e-21
2.03903e-19
1.85983e-17
1.46976e-15
9.50158e-14
4.505e-12
1.18715e-10
4.51425e-12
3.14746e-13
1.021e-25
1.05318e-23
1.00136e-21
8.49314e-20
6.20033e-18
3.67518e-16
1.5842e-14
3.7578e-13
1.58778e-14
1.14019e-15
4.59606e-22
5.42349e-20
5.96311e-18
5.93422e-16
5.17906e-14
3.76899e-12
2.09209e-10
7.3852e-09
1.12449e-07
3.80335e-06
7.26365e-24
8.00758e-22
8.18644e-20
7.52997e-18
6.03349e-16
4.00203e-14
2.01135e-12
6.43225e-11
9.48978e-10
2.80829e-08
6.09819e-26
6.31704e-24
6.04244e-22
5.172e-20
3.83328e-18
2.3372e-16
1.07416e-14
3.14835e-13
4.505e-12
1.18495e-10
3.61147e-28
3.53326e-26
3.17962e-24
2.54786e-22
1.75823e-20
9.92591e-19
4.20612e-17
1.14047e-15
1.58419e-14
3.75006e-13
1.31119e-21
1.98523e-19
2.89566e-17
4.00378e-15
5.17667e-13
6.1356e-11
6.46437e-09
5.74679e-07
3.89271e-05
0.00153843
2.07491e-23
2.93092e-21
3.96971e-19
5.06668e-17
6.00509e-15
6.47051e-13
6.13559e-11
4.84857e-09
2.87386e-07
9.73631e-06
1.75126e-25
2.31818e-23
2.93051e-21
3.47317e-19
3.79982e-17
3.75317e-15
3.23541e-13
2.30112e-11
1.21243e-09
3.59458e-08
1.04114e-27
1.29859e-25
1.54111e-23
1.70666e-21
1.73528e-19
1.58297e-17
1.25116e-15
8.08977e-14
3.83635e-12
1.01116e-10
8.12827e-24
1.14808e-21
1.55484e-19
1.98426e-17
2.35143e-15
2.53326e-13
2.40171e-11
1.89755e-09
1.12449e-07
3.80883e-06
1.37219e-25
1.81631e-23
2.29588e-21
2.72073e-19
2.97623e-17
2.93925e-15
2.53334e-13
1.80145e-11
9.48976e-10
2.81291e-08
1.22385e-27
1.52642e-25
1.81135e-23
2.00574e-21
2.03912e-19
1.85987e-17
1.46978e-15
9.50159e-14
4.50499e-12
1.18715e-10
7.64965e-30
9.03568e-28
1.01207e-25
1.05327e-23
1.00141e-21
8.49335e-20
6.20038e-18
3.67518e-16
1.58419e-14
3.75779e-13
)
;

boundaryField
{
    inlet
    {
        type            zeroGradient;
    }
    outlet
    {
        type            zeroGradient;
    }
    bottom
    {
        type            fixedValue;
        value           uniform 0;
    }
    top
    {
        type            symmetryPlane;
    }
    side1
    {
        type            symmetryPlane;
    }
    side2
    {
        type            symmetryPlane;
    }
    procBoundary16to8
    {
        type            processor;
        value           nonuniform List<scalar> 
50
(
4.03937e-19
5.09254e-17
6.03385e-15
6.49929e-13
6.16065e-11
4.8665e-09
2.88334e-07
9.76439e-06
2.88334e-07
4.86652e-09
2.32385e-21
2.7205e-19
2.97606e-17
2.93914e-15
2.5333e-13
1.80144e-11
9.4898e-10
2.81292e-08
9.50735e-10
6.43016e-11
7.25383e-24
7.97433e-22
8.16287e-20
7.51764e-18
6.02992e-16
4.00208e-14
2.01135e-12
6.43227e-11
9.48978e-10
2.80828e-08
2.07489e-23
2.93091e-21
3.96971e-19
5.06669e-17
6.00511e-15
6.47054e-13
6.13562e-11
4.84858e-09
2.87387e-07
9.73632e-06
1.37215e-25
1.81625e-23
2.29582e-21
2.72067e-19
2.97618e-17
2.93921e-15
2.53332e-13
1.80144e-11
9.48975e-10
2.8129e-08
)
;
    }
    procBoundary16to17
    {
        type            processor;
        value           nonuniform List<scalar> 
20
(
6.48832e-09
6.16084e-11
3.25006e-13
1.25733e-15
2.09029e-10
2.00948e-12
1.07312e-14
4.19966e-17
1.12264e-07
9.47218e-10
4.49568e-12
1.58057e-14
3.89271e-05
2.87386e-07
1.21243e-09
3.83633e-12
1.12449e-07
9.48974e-10
4.50497e-12
1.58418e-14
)
;
    }
    procBoundary16to24
    {
        type            processor;
        value           nonuniform List<scalar> 
50
(
6.4745e-26
6.69171e-24
6.37675e-22
5.42163e-20
3.96738e-18
2.35593e-16
1.01617e-14
2.40996e-13
1.01619e-14
2.35792e-16
4.43195e-28
4.33076e-26
3.88704e-24
3.0973e-22
2.11188e-20
1.16061e-18
4.59599e-17
9.91288e-16
4.6074e-17
3.40267e-18
1.63925e-30
1.52825e-28
1.30691e-26
9.91367e-25
6.44623e-23
3.40989e-21
1.34601e-19
3.40185e-18
4.59208e-17
9.88967e-16
4.80176e-30
5.681e-28
6.37549e-26
6.64998e-24
6.33884e-22
5.39113e-20
3.94644e-18
2.34436e-16
1.01157e-14
2.39998e-13
3.66043e-32
4.12241e-30
4.39122e-28
4.33123e-26
3.88731e-24
3.09741e-22
2.11191e-20
1.1606e-18
4.59589e-17
9.91237e-16
)
;
    }
}


// ************************************************************************* //
