/*--------------------------------*- C++ -*----------------------------------*\
| =========                 |                                                 |
| \\      /  F ield         | OpenFOAM: The Open Source CFD Toolbox           |
|  \\    /   O peration     | Version:  2.4.0                                 |
|   \\  /    A nd           | Web:      www.OpenFOAM.org                      |
|    \\/     M anipulation  |                                                 |
\*---------------------------------------------------------------------------*/
FoamFile
{
    version     2.0;
    format      ascii;
    class       volScalarField;
    location    "0.03";
    object      p;
}
// * * * * * * * * * * * * * * * * * * * * * * * * * * * * * * * * * * * * * //

dimensions      [1 -1 -2 0 0 0 0];

internalField   nonuniform List<scalar> 
200
(
12008.9
12008.7
12008.3
12008.1
12008
12007.7
12006.9
12005.9
12006
12005.2
12011.2
12011.1
12010.9
12010.3
12009.6
12009.6
12008.6
12007.3
12006.6
12005.1
12014.5
12014.3
12014.8
12014.8
12012.8
12011.1
12010.6
12008
12004.7
12001.3
12018.9
12017.7
12016.7
12012.8
12015.7
12016.7
12014.5
12009.5
12004.3
12000.5
12006.3
12005.8
12004.2
12005.3
12007.2
12007
12005.6
12003.1
12001.5
12002.4
12009.7
12009.7
12009
12008.4
12007.8
12007
12004.2
12002.2
11999
11994
12014.8
12013.9
12014.5
12013.6
12012.2
12010
12007.4
12002
11998.1
11992.6
12018.2
12018.6
12019.8
12017.8
12015.4
12014.4
12011.4
12007.4
12002.2
11994
12006.4
12005.9
12004.6
12000.1
11999.4
11999.2
12000.5
11996.1
11994.5
11991.9
12010
12010
12007.9
12009.4
12008.4
12005.5
12002.7
12002
11996.8
11995.6
12013.7
12013.3
12011.9
12010.9
12009
12008.5
12006
12005.2
12002.9
11997.2
12017.1
12017.7
12016.2
12016.7
12014.5
12012.3
12009.6
12008.2
12012
12012.7
12012
12011.3
12010.8
12007.2
12002.3
11999.3
11990.2
11988.5
11982.7
11973.4
12014.4
12015.5
12014.1
12012.4
12010.5
12008.6
12003.6
11998.7
11991.2
11977.3
12017.4
12016.6
12017.4
12012
12012
12013.4
12012.9
12009.1
12007.7
11991.5
12020.3
12021.6
12020.5
12016.9
12016.4
12015.6
12019.6
12019.1
12019.7
12023
12019
12020.3
12021.2
12026
12025.8
12026.1
12028.1
12032.5
12060.1
12085.9
12020.6
12021.4
12022.6
12023.7
12025.2
12027.4
12030.6
12037
12046
12050.6
12021.4
12021.8
12022.7
12023.1
12025.5
12028.1
12030.9
12037.4
12042.4
12047
12022.1
12022
12022.6
12022
12023.1
12025.8
12019.9
12029.9
12037.5
12041.9
)
;

boundaryField
{
    inlet
    {
        type            zeroGradient;
    }
    outlet
    {
        type            fixedValue;
        value           nonuniform 0();
    }
    bottom
    {
        type            zeroGradient;
    }
    top
    {
        type            symmetryPlane;
    }
    side1
    {
        type            symmetryPlane;
    }
    side2
    {
        type            symmetryPlane;
    }
    procBoundary16to8
    {
        type            processor;
        value           nonuniform List<scalar> 
50
(
12008
12008
12007.9
12007.8
12007.3
12006.7
12006.6
12009.2
12010.8
12012
12005.4
12005.5
12005.6
12006.1
12006.6
12006
12005.2
12006.1
12007.9
12008.3
12004.3
12003.4
12001.9
11997.7
11997.4
11999.2
11998.2
11996
11993.1
11992.1
12009.5
12008.9
12007.3
12005
12002
11996.4
11991.5
11982.2
11979.7
11969.8
12016.2
12017.3
12019.2
12021
12022.6
12022.5
12022.7
12023.9
12027.6
12046.2
)
;
    }
    procBoundary16to17
    {
        type            processor;
        value           nonuniform List<scalar> 
20
(
12006.5
12006.3
11997.1
11993.8
11998.1
11990.1
11987.2
11990.1
11982.1
11994
12000
12003.5
11934.5
11984.2
12000.1
12023.8
12059.4
12056.7
12054
12045.5
)
;
    }
    procBoundary16to24
    {
        type            processor;
        value           nonuniform List<scalar> 
50
(
12025.8
12026.5
12024.8
12025.1
12024.4
12026
12022.2
12016.3
12013.2
12007.8
12022.9
12024.5
12023.1
12020.8
12020
12019.7
12020.3
12016.1
12011.5
12007.5
12019.9
12019.8
12018.7
12017.6
12014.7
12007.1
12011.5
12012.1
12012.2
12011.3
12020.4
12020.9
12020.3
12025.5
12022.4
12021.8
12023.9
12025.4
12026.5
12050.7
12022.3
12022.3
12022.8
12021.5
12022.2
12024.4
12026.6
12029.8
12035
12041.4
)
;
    }
}


// ************************************************************************* //
