/*--------------------------------*- C++ -*----------------------------------*\
| =========                 |                                                 |
| \\      /  F ield         | OpenFOAM: The Open Source CFD Toolbox           |
|  \\    /   O peration     | Version:  2.4.0                                 |
|   \\  /    A nd           | Web:      www.OpenFOAM.org                      |
|    \\/     M anipulation  |                                                 |
\*---------------------------------------------------------------------------*/
FoamFile
{
    version     2.0;
    format      ascii;
    class       volVectorField;
    location    "0.03";
    object      Ub;
}
// * * * * * * * * * * * * * * * * * * * * * * * * * * * * * * * * * * * * * //

dimensions      [0 1 -1 0 0 0 0];

internalField   nonuniform List<vector> 
200
(
(6.01014 -0.0964856 0.103428)
(6.00433 -0.0788972 0.106039)
(6.08487 -0.155912 0.227675)
(6.13348 -0.41668 0.235078)
(6.19274 -0.528708 0.338657)
(6.1149 0.631738 0.0577934)
(6.31859 -0.858338 -0.161962)
(6.62891 -0.785636 0.29965)
(6.66962 -0.319969 0.695751)
(6.84043 0.0312751 0.377057)
(6.00455 -0.187844 0.0902892)
(5.86768 -0.302195 -0.239828)
(5.94792 -0.154594 0.292012)
(6.33468 -0.738205 0.522573)
(6.32115 -0.55488 0.100053)
(6.4501 -0.75054 -0.835074)
(6.21757 -0.461695 0.0354426)
(6.37154 -1.69047 0.656974)
(6.84425 -1.49226 0.391395)
(6.50604 0.751302 -0.28078)
(6.03344 0.10284 0.0365979)
(5.98664 -0.324706 0.0747193)
(5.92477 -0.986113 0.15894)
(6.19576 -0.72673 0.271073)
(6.09862 -0.642704 0.851973)
(6.50764 0.305508 0.342281)
(6.91501 -1.56859 0.0409056)
(6.69476 -2.78859 -0.706543)
(6.86882 -2.1161 0.935984)
(7.44307 -1.44299 0.800547)
(6.10061 -0.361374 0.0776373)
(6.21191 -0.295519 0.0316704)
(6.57925 -0.262518 -0.0700191)
(6.16499 -2.26724 -0.116311)
(5.68026 -2.38279 0.210001)
(6.51586 -1.79001 0.192508)
(7.42284 -1.64416 0.0747761)
(7.58664 -1.7459 0.232023)
(7.06965 -3.29655 -1.13105)
(9.17045 -1.46502 -0.241241)
(6.03254 -0.123477 0.0199345)
(6.29689 0.134808 -0.134132)
(5.92971 -0.330436 -0.22264)
(5.86635 -0.898273 0.744968)
(6.24998 -0.912332 0.861152)
(6.39004 -0.653755 0.638074)
(7.16622 -1.20504 0.325833)
(6.83801 -0.0123359 0.330134)
(6.61053 -0.120046 1.37531)
(6.86385 1.73256 0.658574)
(6.00159 -0.228161 0.0109058)
(6.24846 0.0820214 0.750162)
(6.17598 2.74357 -0.838772)
(6.10643 -1.64601 -0.712072)
(6.16537 -1.37416 0.251175)
(6.50804 -1.26656 0.662749)
(6.72999 -0.849561 0.852552)
(7.24496 -1.66399 0.409244)
(7.37053 -0.560067 0.216149)
(7.41309 -0.790635 0.251103)
(6.07 -0.268651 -0.000666841)
(5.98545 -1.31155 0.434212)
(6.11032 1.07803 -1.42432)
(5.8774 0.71557 -1.22933)
(6.49579 -1.46548 0.496545)
(6.50299 -1.66681 0.460511)
(6.77725 -1.77282 0.189856)
(6.61551 -1.31207 0.307736)
(7.38707 -1.3381 -0.435681)
(6.4347 3.51621 -1.55668)
(5.55042 -1.06261 -0.444537)
(6.44097 2.37335 1.48634)
(6.34061 -0.0454015 0.71414)
(5.26759 -2.17184 -1.17588)
(6.27248 -1.88477 -0.187491)
(6.6486 -1.69318 0.600219)
(6.99017 -2.39342 0.834057)
(6.84411 -2.03206 -0.569364)
(7.05778 -1.6344 -0.16997)
(7.19126 -1.91591 0.26362)
(6.05842 -0.268544 -0.119549)
(6.14167 -0.467123 -0.173921)
(6.85313 -2.13175 0.39417)
(5.23261 4.56141 -0.0797051)
(6.90663 1.01123 -1.26533)
(6.9288 -1.63433 -0.153573)
(6.82078 -1.5831 0.612653)
(7.18666 -1.43561 1.14874)
(7.92379 -1.32169 1.79414)
(8.66481 -1.58069 1.10406)
(6.04614 -0.0512696 0.0278561)
(6.25899 -0.295712 -0.175757)
(6.12574 -0.922937 -0.411985)
(5.83096 -0.694438 -0.572423)
(6.42678 -3.354 0.40397)
(4.92163 3.07988 -1.49153)
(7.46895 -1.14725 -0.0969056)
(7.1448 -2.3063 0.541874)
(7.21849 -2.31826 1.17373)
(7.31352 -2.44518 0.757811)
(6.03689 -0.272901 -0.0715614)
(6.11096 -0.744724 -0.180186)
(6.20917 -0.868115 0.105595)
(6.33438 0.941111 0.103979)
(6.09828 2.20143 -0.80428)
(6.13749 -2.95857 0.468206)
(6.72103 -3.67597 0.270294)
(7.19287 -2.02716 0.00991473)
(6.95179 0.435031 3.23087)
(5.98021 -3.41159 3.88305)
(5.9637 -0.213715 -0.0300343)
(6.10367 -0.510633 0.0238667)
(6.09548 -0.597864 0.157485)
(6.35063 -0.263586 -0.123593)
(6.46015 0.110103 -0.114624)
(7.61751 2.15115 -1.65723)
(6.70393 -1.7362 -0.0864474)
(5.56627 -2.25293 1.33404)
(6.31858 -2.17266 -0.610549)
(6.41138 3.37792 2.49626)
(6.08404 -0.21579 -0.357601)
(6.01678 -0.415363 -0.334564)
(7.14104 -1.71339 -2.3411)
(3.58054 3.41805 11.4653)
(7.28096 -0.0176222 -0.649201)
(7.54778 -1.43784 -2.28452)
(7.76569 -1.43352 -2.56443)
(8.44754 -2.47261 0.80741)
(8.45791 -2.19133 -2.44272)
(6.85748 3.21565 5.5553)
(5.89992 -0.150685 -0.220329)
(6.56532 -0.432921 -0.589026)
(4.62332 3.20315 1.35822)
(6.24099 -0.737703 -0.740654)
(6.83538 -1.21757 -1.20736)
(7.06508 -0.954783 -1.44645)
(6.31163 -0.83699 -1.8483)
(7.64373 -0.774702 -1.94189)
(6.94756 -3.24563 -2.21928)
(6.25004 -2.02978 -1.52425)
(5.77877 0.0285389 0.0863501)
(6.00177 -0.0957873 -0.203262)
(7.01746 -0.62364 -0.576183)
(7.02403 -1.03582 -0.978795)
(5.90632 -1.01092 -1.06662)
(5.88969 -1.02562 -1.10813)
(7.01337 -0.77274 -0.514424)
(6.8013 -2.94965 -1.05764)
(7.32212 3.30681 -0.883426)
(5.16985 -2.84313 -4.011)
(5.94827 -0.20509 -0.052908)
(5.98311 -0.175306 -0.210855)
(5.6979 -2.92417 0.871562)
(4.57568 6.74081 -2.37935)
(7.64053 1.72296 -1.91942)
(6.16517 -1.6065 -0.477686)
(5.40802 -2.82123 -0.369574)
(6.61612 2.66608 -0.0472162)
(5.54835 -3.71256 0.0451115)
(5.17749 26.0582 -4.12919)
(6.08093 0.0303873 0.116459)
(5.81094 -0.494572 -0.0806586)
(5.23371 -0.434163 -0.760031)
(5.64988 -0.480761 -2.22221)
(5.54024 0.219204 -2.36089)
(3.86709 -0.351255 -2.00109)
(3.35534 -1.55555 3.82122)
(2.39833 -0.651943 -2.72065)
(3.03187 -0.999886 15.6984)
(4.17817 -1.91322 -3.61442)
(5.948 -0.0822208 -0.106295)
(5.91286 -0.0898357 0.315206)
(5.8756 0.062585 -0.424574)
(5.38399 0.0478905 -1.21028)
(5.11031 -0.0224154 -0.954779)
(5.02851 -0.115598 -1.07343)
(4.0992 0.468579 -0.930998)
(3.14207 -0.762225 1.69925)
(2.9811 0.678183 -2.57404)
(0.34571 2.17613 30.2221)
(5.97605 -0.0350707 -0.0884258)
(5.95106 -0.0650114 0.056837)
(5.99429 0.160946 0.188231)
(5.40412 -0.033344 -0.915296)
(5.62494 -0.334889 -1.51324)
(4.45382 -0.238119 -1.66706)
(3.77949 0.556737 -0.664937)
(4.04063 0.643748 0.556955)
(2.1601 0.321861 -1.07946)
(2.59043 3.88546 0.700579)
(6.01197 -0.0193163 -0.0114887)
(5.87344 -0.0301141 0.28059)
(6.13533 0.0489698 0.217261)
(5.96645 -0.254809 -0.726009)
(5.53236 -0.450815 -0.76833)
(5.8342 0.206167 -0.843202)
(4.9659 -0.153747 0.119186)
(2.88866 -0.178162 -0.394499)
(3.12757 0.304783 0.258784)
(3.28434 0.328828 -1.92062)
)
;

boundaryField
{
    inlet
    {
        type            fixedValue;
        value           uniform (6 0 0);
    }
    outlet
    {
        type            zeroGradient;
    }
    bottom
    {
        type            fixedValue;
        value           uniform (0 0 0);
    }
    top
    {
        type            symmetryPlane;
    }
    side1
    {
        type            symmetryPlane;
    }
    side2
    {
        type            symmetryPlane;
    }
    procBoundary16to8
    {
        type            processor;
        value           nonuniform List<vector> 
50
(
(6.01434 -0.0176786 0.0376244)
(6.02168 -0.0186912 0.208524)
(5.97966 -0.0460854 0.262241)
(5.96902 -0.026316 0.271988)
(5.99067 0.0713961 -0.0647669)
(6.05644 0.194438 0.225927)
(5.83042 0.448855 0.389672)
(7.58653 -1.756 -0.25689)
(5.21526 0.417067 0.289026)
(5.05758 1.11355 1.03561)
(6.01818 0.0557643 -0.0959601)
(6.09591 0.056287 0.0825207)
(5.93196 -0.136751 0.441497)
(5.85973 -0.245163 0.531884)
(6.14552 -0.455041 0.736124)
(5.93742 0.700529 -1.0365)
(6.3511 0.861709 0.127579)
(6.43228 -2.33994 1.06536)
(5.93946 -1.43774 2.40997)
(5.15169 0.794374 2.35327)
(6.07018 -0.13373 -0.115502)
(5.8489 -0.102298 -0.151897)
(6.77959 -0.0531001 -0.0221383)
(6.93624 -0.42317 -0.000257117)
(6.2338 -0.603936 -0.26114)
(5.26769 -0.0319196 -0.922681)
(6.12483 -0.298542 1.15394)
(6.76235 -0.838602 1.13236)
(7.63088 -1.25166 1.36605)
(9.088 0.126308 2.35927)
(5.9278 0.2824 0.380404)
(6.23422 -0.448135 -1.02126)
(6.44197 -0.895794 -1.18762)
(7.33231 -2.61972 -2.35266)
(4.80004 0.12365 5.18938)
(7.11947 0.765322 -0.978428)
(8.05424 -1.45258 -1.9181)
(8.13766 -1.83035 -3.36181)
(9.56375 -1.83425 -1.4311)
(8.94916 0.932247 3.44204)
(5.42061 -0.236339 -0.460349)
(6.34041 0.296254 1.3735)
(5.90983 -0.394977 0.0664527)
(4.88761 -0.977308 -1.35144)
(4.57278 -0.963469 -2.19877)
(4.10533 -1.54933 -1.87134)
(3.07145 -0.838733 -2.67317)
(3.01381 -2.4873 7.64938)
(3.81087 -1.78962 -1.25314)
(3.58459 -0.648652 12.2142)
)
;
    }
    procBoundary16to17
    {
        type            processor;
        value           nonuniform List<vector> 
20
(
(6.8645 1.92892 -0.440123)
(7.76354 -1.05544 0.48676)
(8.09229 0.945307 -0.303034)
(8.73971 -3.09978 2.50601)
(5.8684 -0.00974367 1.23325)
(6.90464 4.4403 -1.99001)
(7.11792 -2.0054 1.02802)
(8.46853 6.29764 -2.11999)
(6.28808 1.69965 5.79157)
(7.56954 -2.53923 -0.0526407)
(6.70225 -2.72792 -0.683799)
(3.87212 -7.24635 16.615)
(7.71988 5.13139 14.6535)
(3.51854 1.16657 0.366389)
(2.36917 -5.28638 -3.26652)
(5.03061 -0.0877618 -3.6492)
(-3.0104 0.44627 64.6873)
(10.1983 12.5016 17.0783)
(1.46848 4.3518 -2.90255)
(3.64845 0.809764 -2.10723)
)
;
    }
    procBoundary16to24
    {
        type            processor;
        value           nonuniform List<vector> 
50
(
(5.94698 -0.64 0.137165)
(6.08488 -1.17063 0.155114)
(5.68531 -2.13528 0.90392)
(7.43511 6.25456 -1.07836)
(6.51804 -2.53345 -0.487225)
(6.12483 -4.11176 0.765762)
(5.80001 -4.42242 0.945284)
(7.83961 -1.93783 0.389825)
(7.91812 -3.07305 0.0571832)
(7.34998 -5.16647 1.77089)
(5.87616 -0.353928 0.106757)
(6.06026 -1.06425 0.338657)
(6.36322 -0.255036 -0.152428)
(6.58436 0.554509 0.721676)
(4.88139 -3.05721 -0.0415635)
(6.32116 -2.78366 0.91375)
(6.96752 -1.83258 0.806739)
(7.42835 -2.16876 0.818057)
(6.74539 -2.70537 0.755347)
(7.72894 0.611082 -0.91227)
(6.00517 -0.2359 0.0379969)
(6.05848 -0.762638 0.0375104)
(6.17014 -0.354323 0.155015)
(6.54544 -0.584323 0.180822)
(7.07258 0.0615764 -1.02396)
(6.41978 -4.20865 -0.701214)
(5.61165 0.602715 -4.29446)
(5.7651 -0.508842 0.140064)
(7.0209 -1.0228 -0.186029)
(6.89033 -2.7896 0.936652)
(6.10504 0.13435 0.0539358)
(6.05748 -0.142749 -0.0281249)
(5.73853 -0.683724 -0.226991)
(6.12322 -0.133301 -0.990178)
(7.01856 -4.22651 -0.220269)
(5.73329 5.4435 -4.33543)
(5.13214 -2.78495 -0.67489)
(5.31998 -1.97572 -0.951256)
(4.90501 7.24766 -1.97071)
(6.65383 1.64759 -2.85428)
(6.00836 0.0165422 -0.052937)
(5.86159 0.252369 -0.055217)
(6.20476 0.0897948 -0.106664)
(6.08339 -0.943855 0.0171763)
(5.57261 -0.140612 -0.761495)
(5.48623 -4.59224 0.629037)
(4.57173 14.1382 -9.643)
(3.52407 2.41672 -1.07825)
(3.71736 -0.595988 -0.405154)
(3.53972 -0.383568 0.274518)
)
;
    }
}


// ************************************************************************* //
