/*--------------------------------*- C++ -*----------------------------------*\
| =========                 |                                                 |
| \\      /  F ield         | OpenFOAM: The Open Source CFD Toolbox           |
|  \\    /   O peration     | Version:  2.4.0                                 |
|   \\  /    A nd           | Web:      www.OpenFOAM.org                      |
|    \\/     M anipulation  |                                                 |
\*---------------------------------------------------------------------------*/
FoamFile
{
    version     2.0;
    format      ascii;
    class       volVectorField;
    location    "0.03";
    object      Uc;
}
// * * * * * * * * * * * * * * * * * * * * * * * * * * * * * * * * * * * * * //

dimensions      [0 1 -1 0 0 0 0];

internalField   nonuniform List<vector> 
200
(
(4.69714e-16 -1.0356e-16 6.05707e-17)
(6.44857e-14 -1.42175e-14 8.3156e-15)
(8.33501e-12 -1.83766e-12 1.07482e-12)
(9.8756e-10 -2.17732e-10 1.27348e-10)
(1.0401e-07 -2.29315e-08 1.34123e-08)
(9.24284e-06 -2.03781e-06 1.19189e-06)
(0.000625833 -0.00013798 8.07027e-05)
(0.0247233 -0.00545087 0.00318814)
(0.000625833 -0.00013798 8.07028e-05)
(9.24293e-06 -2.03782e-06 1.19195e-06)
(6.44527e-18 -1.42102e-18 8.31134e-19)
(8.16374e-16 -1.7999e-16 1.05273e-16)
(9.67275e-14 -2.13259e-14 1.24733e-14)
(1.04189e-11 -2.2971e-12 1.34354e-12)
(9.87603e-10 -2.17741e-10 1.27354e-10)
(7.80141e-08 -1.72001e-08 1.00601e-08)
(4.62224e-06 -1.01909e-06 5.9605e-07)
(0.000156532 -3.45114e-05 2.01852e-05)
(4.62224e-06 -1.01909e-06 5.9605e-07)
(7.80149e-08 -1.72002e-08 1.00607e-08)
(4.76238e-20 -1.04997e-20 6.14124e-21)
(5.59841e-18 -1.2343e-18 7.21932e-19)
(6.12307e-16 -1.34997e-16 7.89586e-17)
(6.04586e-14 -1.33295e-14 7.7963e-15)
(5.20995e-12 -1.14866e-12 6.71836e-13)
(3.70405e-10 -8.16649e-11 4.77646e-11)
(1.95084e-08 -4.30112e-09 2.51566e-09)
(5.78144e-07 -1.27466e-07 7.45531e-08)
(1.95084e-08 -4.30112e-09 2.51566e-09)
(3.70409e-10 -8.16651e-11 4.77679e-11)
(2.50675e-22 -5.5266e-23 3.23256e-23)
(2.75208e-20 -6.0675e-21 3.54891e-21)
(2.79738e-18 -6.16742e-19 3.60732e-19)
(2.551e-16 -5.62425e-17 3.28959e-17)
(2.01555e-14 -4.44376e-15 2.59911e-15)
(1.30273e-12 -2.87218e-13 1.6799e-13)
(6.17537e-11 -1.36151e-11 7.96329e-12)
(1.62699e-09 -3.58711e-10 2.09805e-10)
(6.17536e-11 -1.36151e-11 7.96328e-12)
(1.30274e-12 -2.87219e-13 1.68002e-13)
(2.51069e-18 -5.53542e-19 3.2376e-19)
(3.18071e-16 -7.01266e-17 4.10161e-17)
(3.76937e-14 -8.31051e-15 4.86071e-15)
(4.06093e-12 -8.95331e-13 5.23667e-13)
(3.85009e-10 -8.48847e-11 4.96479e-11)
(3.04191e-08 -6.70664e-09 3.92262e-09)
(1.80265e-06 -3.97439e-07 2.32457e-07)
(6.10588e-05 -1.34619e-05 7.87372e-06)
(1.80539e-06 -3.9762e-07 2.34491e-07)
(1.11763e-07 -1.20673e-08 6.42573e-08)
(3.70925e-20 -8.17786e-21 4.7832e-21)
(4.3613e-18 -9.61546e-19 5.62403e-19)
(4.77098e-16 -1.05187e-16 6.15232e-17)
(4.71177e-14 -1.03882e-14 6.07596e-15)
(4.06114e-12 -8.95376e-13 5.23695e-13)
(2.88788e-10 -6.36704e-11 3.724e-11)
(1.52129e-08 -3.35407e-09 1.96175e-09)
(4.50936e-07 -9.94199e-08 5.81497e-08)
(1.5239e-08 -3.35578e-09 1.98106e-09)
(9.75219e-10 -1.08907e-10 5.46383e-10)
(2.92798e-22 -6.45527e-23 3.77576e-23)
(3.21519e-20 -7.08852e-21 4.14611e-21)
(3.26878e-18 -7.20672e-19 4.21521e-19)
(2.98149e-16 -6.57337e-17 3.84473e-17)
(2.35617e-14 -5.19472e-15 3.03835e-15)
(1.52319e-12 -3.35824e-13 1.9642e-13)
(7.22192e-11 -1.59225e-11 9.31288e-12)
(1.90311e-09 -4.19588e-10 2.45413e-10)
(7.23564e-11 -1.59315e-11 9.4147e-12)
(4.78166e-12 -5.50563e-13 2.61331e-12)
(1.63682e-24 -3.6086e-25 2.11077e-25)
(1.68839e-22 -3.72233e-23 2.17726e-23)
(1.60531e-20 -3.5392e-21 2.07011e-21)
(1.36154e-18 -3.0018e-19 1.75576e-19)
(9.93976e-17 -2.19144e-17 1.28176e-17)
(5.89166e-15 -1.29896e-15 7.59748e-16)
(2.53962e-13 -5.59921e-14 3.27492e-14)
(6.0241e-12 -1.32816e-12 7.76831e-13)
(2.54492e-13 -5.6027e-14 3.31429e-14)
(1.73498e-14 -2.05407e-15 9.2585e-15)
(7.35815e-21 -1.6037e-21 1.02247e-21)
(8.68057e-19 -1.88759e-19 1.22339e-19)
(9.54074e-17 -2.06794e-17 1.37119e-17)
(9.48929e-15 -2.04677e-15 1.40351e-15)
(8.2743e-13 -1.7705e-13 1.28016e-13)
(6.01167e-11 -1.26748e-11 1.00492e-11)
(3.32504e-09 -6.78141e-10 6.46592e-10)
(1.16119e-07 -2.12592e-08 3.21869e-08)
(1.66795e-06 -1.10379e-07 1.23534e-06)
(5.64042e-05 -3.71714e-06 4.18363e-05)
(1.16281e-22 -2.53228e-23 1.62374e-23)
(1.28153e-20 -2.78389e-21 1.81709e-21)
(1.30962e-18 -2.83488e-19 1.8968e-19)
(1.20387e-16 -2.59202e-17 1.79897e-17)
(9.63663e-15 -2.05658e-15 1.51243e-15)
(6.38043e-13 -1.33951e-13 1.08924e-13)
(3.19405e-11 -6.4626e-12 6.41593e-12)
(1.00958e-09 -1.81373e-10 2.93569e-10)
(1.40763e-08 -9.32005e-10 1.04234e-08)
(4.16467e-07 -2.74459e-08 3.08904e-07)
(9.76156e-25 -2.12397e-25 1.37023e-25)
(1.01087e-22 -2.19363e-23 1.44236e-23)
(9.66503e-21 -2.08934e-21 1.41086e-21)
(8.26726e-19 -1.77678e-19 1.24809e-19)
(6.12072e-17 -1.30281e-17 9.74202e-18)
(3.7245e-15 -7.78622e-16 6.48893e-16)
(1.70439e-13 -3.42164e-14 3.5303e-14)
(4.93334e-12 -8.70348e-13 1.49772e-12)
(6.68236e-11 -4.42676e-12 4.94736e-11)
(1.75725e-09 -1.15806e-10 1.30339e-09)
(5.78054e-27 -1.25672e-27 8.1546e-28)
(5.65347e-25 -1.22558e-25 8.11525e-26)
(5.0852e-23 -1.09787e-23 7.47917e-24)
(4.0719e-21 -8.73584e-22 6.20801e-22)
(2.80664e-19 -5.95862e-20 4.5279e-20)
(1.58106e-17 -3.29158e-18 2.80882e-18)
(6.66862e-16 -1.3285e-16 1.42193e-16)
(1.78428e-14 -3.09344e-15 5.63267e-15)
(2.34989e-13 -1.5575e-14 1.73945e-13)
(5.56112e-12 -3.66489e-13 4.12481e-12)
(1.9448e-20 -1.28395e-21 1.44159e-20)
(2.94451e-18 -1.94301e-19 2.18302e-18)
(4.29481e-16 -2.83292e-17 3.18455e-16)
(5.93831e-14 -3.91578e-15 4.40366e-14)
(7.67784e-12 -5.06167e-13 5.69411e-12)
(9.10002e-10 -5.99826e-11 6.74924e-10)
(9.58756e-08 -6.31893e-09 7.11111e-08)
(8.52322e-06 -5.61709e-07 6.32182e-06)
(0.00057733 -3.8047e-05 0.00042822)
(0.0228156 -0.00150358 0.0169229)
(3.07759e-22 -2.03203e-23 2.2812e-22)
(4.34719e-20 -2.86884e-21 3.22285e-20)
(5.88787e-18 -3.88398e-19 4.36568e-18)
(7.51481e-16 -4.95558e-17 5.57265e-16)
(8.90656e-14 -5.8719e-15 6.60529e-14)
(9.59677e-12 -6.32581e-13 7.11761e-12)
(9.09995e-10 -5.99761e-11 6.74942e-10)
(7.19103e-08 -4.73915e-09 5.33371e-08)
(4.26222e-06 -2.80887e-07 3.16139e-06)
(0.000144391 -9.51562e-06 0.000107099)
(2.59759e-24 -1.71524e-25 1.92536e-24)
(3.43842e-22 -2.26927e-23 2.54906e-22)
(4.34657e-20 -2.8674e-21 3.2228e-20)
(5.15138e-18 -3.39717e-19 3.81998e-18)
(5.6358e-16 -3.71566e-17 4.17958e-16)
(5.56654e-14 -3.6693e-15 4.1285e-14)
(4.79857e-12 -3.16267e-13 3.55908e-12)
(3.41283e-10 -2.24918e-11 2.53135e-10)
(1.79814e-08 -1.185e-09 1.33372e-08)
(5.33074e-07 -3.51304e-08 3.95394e-07)
(1.54432e-26 -1.01982e-27 1.14464e-26)
(1.92615e-24 -1.27129e-25 1.42792e-24)
(2.28583e-22 -1.50802e-23 1.69482e-22)
(2.53133e-20 -1.6694e-21 1.87708e-20)
(2.57374e-18 -1.6969e-19 1.90871e-18)
(2.3478e-16 -1.54762e-17 1.74127e-16)
(1.85564e-14 -1.22304e-15 1.37632e-14)
(1.1998e-12 -7.90718e-14 8.89913e-13)
(5.68959e-11 -3.74953e-12 4.22011e-11)
(1.49952e-09 -9.88205e-11 1.11223e-09)
(1.20556e-22 -7.94856e-24 8.88166e-23)
(1.70279e-20 -1.12255e-21 1.25507e-20)
(2.30607e-18 -1.5201e-19 1.70049e-18)
(2.94295e-16 -1.93976e-17 2.17108e-16)
(3.48751e-14 -2.29855e-15 2.57393e-14)
(3.75718e-12 -2.47617e-13 2.77414e-12)
(3.56204e-10 -2.3475e-11 2.63117e-10)
(2.81428e-08 -1.85467e-09 2.07969e-08)
(1.66772e-06 -1.09906e-07 1.23292e-06)
(5.64855e-05 -3.72248e-06 4.1776e-05)
(2.03523e-24 -1.34189e-25 1.49879e-24)
(2.69391e-22 -1.77596e-23 1.98477e-22)
(3.40519e-20 -2.24463e-21 2.50993e-20)
(4.03529e-18 -2.65976e-19 2.97569e-18)
(4.41421e-16 -2.90933e-17 3.25653e-16)
(4.35933e-14 -2.87303e-15 3.21741e-14)
(3.75728e-12 -2.47617e-13 2.77424e-12)
(2.67176e-10 -1.76075e-11 1.97356e-10)
(1.40741e-08 -9.27506e-10 1.04005e-08)
(4.17153e-07 -2.7491e-08 3.08394e-07)
(1.81525e-26 -1.19685e-27 1.33624e-26)
(2.264e-24 -1.49254e-25 1.66734e-24)
(2.68659e-22 -1.77094e-23 1.97945e-22)
(2.97487e-20 -1.96081e-21 2.19282e-20)
(3.02435e-18 -1.9933e-19 2.23026e-18)
(2.75847e-16 -1.81797e-17 2.03506e-16)
(2.17987e-14 -1.4366e-15 1.60888e-14)
(1.40919e-12 -9.28685e-14 1.0405e-12)
(6.68122e-11 -4.40303e-12 4.93525e-11)
(1.7605e-09 -1.1602e-10 1.30098e-09)
(1.13464e-28 -7.48107e-30 8.34883e-29)
(1.3402e-26 -8.83527e-28 9.86597e-27)
(1.50112e-24 -9.89507e-26 1.10556e-24)
(1.5622e-22 -1.02968e-23 1.15105e-22)
(1.48527e-20 -9.78911e-22 1.09484e-20)
(1.25969e-18 -8.30202e-20 9.28958e-19)
(9.19598e-17 -6.06043e-18 6.78441e-17)
(5.45067e-15 -3.5921e-16 4.02295e-15)
(2.34945e-13 -1.54833e-14 1.73477e-13)
(5.57258e-12 -3.67242e-13 4.11633e-12)
)
;

boundaryField
{
    inlet
    {
        type            calculated;
        value           uniform (0 0 0);
    }
    outlet
    {
        type            calculated;
        value           nonuniform 0();
    }
    bottom
    {
        type            calculated;
        value           uniform (0 0 0);
    }
    top
    {
        type            symmetryPlane;
    }
    side1
    {
        type            symmetryPlane;
    }
    side2
    {
        type            symmetryPlane;
    }
    procBoundary16to8
    {
        type            processor;
        value           nonuniform List<vector> 
50
(
(5.94431e-18 -1.31056e-18 7.66534e-19)
(7.47597e-16 -1.64826e-16 9.64045e-17)
(8.78377e-14 -1.93659e-14 1.13269e-14)
(9.3656e-12 -2.06487e-12 1.20772e-12)
(8.76668e-10 -1.93283e-10 1.13048e-10)
(6.81556e-08 -1.50266e-08 8.78884e-09)
(3.95471e-06 -8.71913e-07 5.0997e-07)
(0.000130161 -2.86972e-05 1.67846e-05)
(3.95471e-06 -8.71913e-07 5.0997e-07)
(6.81558e-08 -1.50265e-08 8.78933e-09)
(3.44142e-20 -7.58724e-21 4.43786e-21)
(4.022e-18 -8.86727e-19 5.18653e-19)
(4.3689e-16 -9.63211e-17 5.63385e-17)
(4.2786e-14 -9.43309e-15 5.51741e-15)
(3.65047e-12 -8.04827e-13 4.70739e-13)
(2.56342e-10 -5.65167e-11 3.30561e-11)
(1.32902e-08 -2.93015e-09 1.71381e-09)
(3.85809e-07 -8.5061e-08 4.97513e-08)
(1.33133e-08 -2.93167e-09 1.73095e-09)
(8.55987e-10 -9.6034e-11 4.77829e-10)
(1.07809e-22 -2.34742e-23 1.50666e-23)
(1.18364e-20 -2.5708e-21 1.67978e-21)
(1.20411e-18 -2.60597e-19 1.74572e-19)
(1.1007e-16 -2.36934e-17 1.64676e-17)
(8.74846e-15 -1.86646e-15 1.37517e-15)
(5.73934e-13 -1.20433e-13 9.82068e-14)
(2.83939e-11 -5.73926e-12 5.72627e-12)
(8.85725e-10 -1.58698e-10 2.59237e-10)
(1.2297e-08 -8.14261e-10 9.10569e-09)
(3.56294e-07 -2.34804e-08 2.64272e-07)
(2.87014e-22 -1.89502e-23 2.12745e-22)
(4.03312e-20 -2.66154e-21 2.99002e-20)
(5.42978e-18 -3.58177e-19 4.02603e-18)
(6.88144e-16 -4.5379e-17 5.10297e-16)
(8.08764e-14 -5.33201e-15 5.99796e-14)
(8.62615e-12 -5.68601e-13 6.39773e-12)
(8.07731e-10 -5.32361e-11 5.99093e-10)
(6.2819e-08 -4.13999e-09 4.65939e-08)
(3.64639e-06 -2.40302e-07 2.70462e-06)
(0.000120053 -7.91166e-06 8.9046e-05)
(1.9066e-24 -1.25705e-25 1.40405e-24)
(2.51225e-22 -1.65615e-23 1.85089e-22)
(3.15917e-20 -2.08242e-21 2.32854e-20)
(3.72134e-18 -2.45279e-19 2.7441e-18)
(4.04218e-16 -2.66409e-17 2.98197e-16)
(3.95854e-14 -2.60886e-15 2.9215e-14)
(3.37732e-12 -2.22574e-13 2.49358e-12)
(2.37156e-10 -1.5629e-11 1.75172e-10)
(1.22951e-08 -8.10267e-10 9.0853e-09)
(3.56893e-07 -2.35198e-08 2.63827e-07)
)
;
    }
    procBoundary16to17
    {
        type            processor;
        value           nonuniform List<vector> 
20
(
(1.04012e-07 -2.29316e-08 1.34145e-08)
(9.87632e-10 -2.17742e-10 1.27377e-10)
(5.2101e-12 -1.14866e-12 6.71971e-13)
(2.0156e-14 -4.44375e-15 2.59966e-15)
(2.78198e-09 -2.42848e-10 1.82754e-09)
(2.71792e-11 -2.41888e-12 1.7671e-11)
(1.47023e-13 -1.33309e-14 9.46134e-14)
(5.8144e-16 -5.36842e-17 3.70353e-16)
(1.42441e-06 -9.38708e-08 1.05652e-06)
(1.2272e-08 -8.08744e-10 9.10243e-09)
(5.91815e-11 -3.90015e-12 4.38965e-11)
(2.10701e-13 -1.38855e-14 1.56283e-13)
(0.000480008 -3.16333e-05 0.000356034)
(3.64637e-06 -2.40302e-07 2.70461e-06)
(1.5708e-08 -1.03518e-09 1.1651e-08)
(5.05018e-11 -3.32814e-12 3.74585e-11)
(1.4268e-06 -9.40286e-08 1.05474e-06)
(1.22951e-08 -8.10266e-10 9.08529e-09)
(5.93053e-11 -3.9083e-12 4.38051e-11)
(2.11186e-13 -1.39175e-14 1.55927e-13)
)
;
    }
    procBoundary16to24
    {
        type            processor;
        value           nonuniform List<vector> 
50
(
(1.03797e-24 -2.28829e-25 1.33854e-25)
(1.07279e-22 -2.36507e-23 1.38343e-23)
(1.02228e-20 -2.25375e-21 1.3183e-21)
(8.69159e-19 -1.91619e-19 1.12083e-19)
(6.36019e-17 -1.40222e-17 8.20176e-18)
(3.77681e-15 -8.32674e-16 4.87035e-16)
(1.62903e-13 -3.59155e-14 2.10068e-14)
(3.86339e-12 -8.51777e-13 4.98193e-13)
(1.62905e-13 -3.59162e-14 2.10069e-14)
(3.77996e-15 -8.33373e-16 4.87468e-16)
(7.10529e-27 -1.56638e-27 9.16294e-28)
(6.943e-25 -1.53062e-25 8.95359e-26)
(6.23157e-23 -1.3738e-23 8.03609e-24)
(4.96543e-21 -1.09468e-21 6.40326e-22)
(3.38563e-19 -7.46411e-20 4.36597e-20)
(1.8606e-17 -4.10201e-18 2.39933e-18)
(7.36786e-16 -1.6244e-16 9.50116e-17)
(1.58913e-14 -3.5036e-15 2.04925e-15)
(7.38474e-16 -1.62555e-16 9.62548e-17)
(5.18563e-17 -6.29939e-18 2.70381e-17)
(2.62361e-29 -5.6981e-30 3.72274e-30)
(2.44507e-27 -5.29427e-28 3.53342e-28)
(2.0899e-25 -4.50558e-26 3.09828e-26)
(1.5841e-23 -3.3924e-24 2.43879e-24)
(1.02875e-21 -2.17869e-22 1.68071e-22)
(5.42936e-20 -1.12604e-20 9.81431e-21)
(2.13254e-18 -4.2188e-19 4.66406e-19)
(5.31475e-17 -9.06655e-18 1.73633e-17)
(6.81172e-16 -4.51707e-17 5.04132e-16)
(1.46656e-14 -9.66486e-16 1.08779e-14)
(7.12269e-29 -4.70359e-30 5.27934e-29)
(8.42669e-27 -5.56175e-28 6.24702e-27)
(9.45661e-25 -6.23877e-26 7.01162e-25)
(9.86355e-23 -6.50491e-24 7.31425e-23)
(9.40185e-21 -6.1987e-22 6.97256e-21)
(7.99604e-19 -5.27076e-20 5.93041e-19)
(5.85317e-17 -3.85771e-18 4.34131e-17)
(3.47696e-15 -2.29142e-16 2.57894e-15)
(1.50023e-13 -9.88667e-15 1.11277e-13)
(3.55903e-12 -2.34545e-13 2.63982e-12)
(5.42953e-31 -3.57972e-32 3.99346e-31)
(6.1147e-29 -4.03093e-30 4.4995e-29)
(6.51332e-27 -4.29326e-28 4.79501e-27)
(6.42424e-25 -4.23419e-26 4.73154e-25)
(5.76571e-23 -3.79991e-24 4.24838e-23)
(4.59404e-21 -3.02759e-22 3.38651e-21)
(3.13229e-19 -2.0642e-20 2.30995e-19)
(1.72131e-17 -1.13435e-18 1.26993e-17)
(6.81598e-16 -4.49176e-17 5.03068e-16)
(1.46992e-14 -9.68698e-16 1.08535e-14)
)
;
    }
}


// ************************************************************************* //
