LAMMPS data file with fixed and active particles

26250 atoms
2 atom types

0.000000 0.050000 xlo xhi
0.000000 0.020000 ylo yhi
0.000000 0.010000 zlo zhi

Atoms

1 1 0.0002 2650 0.000100 0.000100 0.000100
2 1 0.0002 2650 0.000300 0.000100 0.000100
3 1 0.0002 2650 0.000500 0.000100 0.000100
4 1 0.0002 2650 0.000700 0.000100 0.000100
5 1 0.0002 2650 0.000900 0.000100 0.000100
6 1 0.0002 2650 0.001100 0.000100 0.000100
7 1 0.0002 2650 0.001300 0.000100 0.000100
8 1 0.0002 2650 0.001500 0.000100 0.000100
9 1 0.0002 2650 0.001700 0.000100 0.000100
10 1 0.0002 2650 0.001900 0.000100 0.000100
11 1 0.0002 2650 0.002100 0.000100 0.000100
12 1 0.0002 2650 0.002300 0.000100 0.000100
13 1 0.0002 2650 0.002500 0.000100 0.000100
14 1 0.0002 2650 0.002700 0.000100 0.000100
15 1 0.0002 2650 0.002900 0.000100 0.000100
16 1 0.0002 2650 0.003100 0.000100 0.000100
17 1 0.0002 2650 0.003300 0.000100 0.000100
18 1 0.0002 2650 0.003500 0.000100 0.000100
19 1 0.0002 2650 0.003700 0.000100 0.000100
20 1 0.0002 2650 0.003900 0.000100 0.000100
21 1 0.0002 2650 0.004100 0.000100 0.000100
22 1 0.0002 2650 0.004300 0.000100 0.000100
23 1 0.0002 2650 0.004500 0.000100 0.000100
24 1 0.0002 2650 0.004700 0.000100 0.000100
25 1 0.0002 2650 0.004900 0.000100 0.000100
26 1 0.0002 2650 0.005100 0.000100 0.000100
27 1 0.0002 2650 0.005300 0.000100 0.000100
28 1 0.0002 2650 0.005500 0.000100 0.000100
29 1 0.0002 2650 0.005700 0.000100 0.000100
30 1 0.0002 2650 0.005900 0.000100 0.000100
31 1 0.0002 2650 0.006100 0.000100 0.000100
32 1 0.0002 2650 0.006300 0.000100 0.000100
33 1 0.0002 2650 0.006500 0.000100 0.000100
34 1 0.0002 2650 0.006700 0.000100 0.000100
35 1 0.0002 2650 0.006900 0.000100 0.000100
36 1 0.0002 2650 0.007100 0.000100 0.000100
37 1 0.0002 2650 0.007300 0.000100 0.000100
38 1 0.0002 2650 0.007500 0.000100 0.000100
39 1 0.0002 2650 0.007700 0.000100 0.000100
40 1 0.0002 2650 0.007900 0.000100 0.000100
41 1 0.0002 2650 0.008100 0.000100 0.000100
42 1 0.0002 2650 0.008300 0.000100 0.000100
43 1 0.0002 2650 0.008500 0.000100 0.000100
44 1 0.0002 2650 0.008700 0.000100 0.000100
45 1 0.0002 2650 0.008900 0.000100 0.000100
46 1 0.0002 2650 0.009100 0.000100 0.000100
47 1 0.0002 2650 0.009300 0.000100 0.000100
48 1 0.0002 2650 0.009500 0.000100 0.000100
49 1 0.0002 2650 0.009700 0.000100 0.000100
50 1 0.0002 2650 0.009900 0.000100 0.000100
51 1 0.0002 2650 0.010100 0.000100 0.000100
52 1 0.0002 2650 0.010300 0.000100 0.000100
53 1 0.0002 2650 0.010500 0.000100 0.000100
54 1 0.0002 2650 0.010700 0.000100 0.000100
55 1 0.0002 2650 0.010900 0.000100 0.000100
56 1 0.0002 2650 0.011100 0.000100 0.000100
57 1 0.0002 2650 0.011300 0.000100 0.000100
58 1 0.0002 2650 0.011500 0.000100 0.000100
59 1 0.0002 2650 0.011700 0.000100 0.000100
60 1 0.0002 2650 0.011900 0.000100 0.000100
61 1 0.0002 2650 0.012100 0.000100 0.000100
62 1 0.0002 2650 0.012300 0.000100 0.000100
63 1 0.0002 2650 0.012500 0.000100 0.000100
64 1 0.0002 2650 0.012700 0.000100 0.000100
65 1 0.0002 2650 0.012900 0.000100 0.000100
66 1 0.0002 2650 0.013100 0.000100 0.000100
67 1 0.0002 2650 0.013300 0.000100 0.000100
68 1 0.0002 2650 0.013500 0.000100 0.000100
69 1 0.0002 2650 0.013700 0.000100 0.000100
70 1 0.0002 2650 0.013900 0.000100 0.000100
71 1 0.0002 2650 0.014100 0.000100 0.000100
72 1 0.0002 2650 0.014300 0.000100 0.000100
73 1 0.0002 2650 0.014500 0.000100 0.000100
74 1 0.0002 2650 0.014700 0.000100 0.000100
75 1 0.0002 2650 0.014900 0.000100 0.000100
76 1 0.0002 2650 0.015100 0.000100 0.000100
77 1 0.0002 2650 0.015300 0.000100 0.000100
78 1 0.0002 2650 0.015500 0.000100 0.000100
79 1 0.0002 2650 0.015700 0.000100 0.000100
80 1 0.0002 2650 0.015900 0.000100 0.000100
81 1 0.0002 2650 0.016100 0.000100 0.000100
82 1 0.0002 2650 0.016300 0.000100 0.000100
83 1 0.0002 2650 0.016500 0.000100 0.000100
84 1 0.0002 2650 0.016700 0.000100 0.000100
85 1 0.0002 2650 0.016900 0.000100 0.000100
86 1 0.0002 2650 0.017100 0.000100 0.000100
87 1 0.0002 2650 0.017300 0.000100 0.000100
88 1 0.0002 2650 0.017500 0.000100 0.000100
89 1 0.0002 2650 0.017700 0.000100 0.000100
90 1 0.0002 2650 0.017900 0.000100 0.000100
91 1 0.0002 2650 0.018100 0.000100 0.000100
92 1 0.0002 2650 0.018300 0.000100 0.000100
93 1 0.0002 2650 0.018500 0.000100 0.000100
94 1 0.0002 2650 0.018700 0.000100 0.000100
95 1 0.0002 2650 0.018900 0.000100 0.000100
96 1 0.0002 2650 0.019100 0.000100 0.000100
97 1 0.0002 2650 0.019300 0.000100 0.000100
98 1 0.0002 2650 0.019500 0.000100 0.000100
99 1 0.0002 2650 0.019700 0.000100 0.000100
100 1 0.0002 2650 0.019900 0.000100 0.000100
101 1 0.0002 2650 0.020100 0.000100 0.000100
102 1 0.0002 2650 0.020300 0.000100 0.000100
103 1 0.0002 2650 0.020500 0.000100 0.000100
104 1 0.0002 2650 0.020700 0.000100 0.000100
105 1 0.0002 2650 0.020900 0.000100 0.000100
106 1 0.0002 2650 0.021100 0.000100 0.000100
107 1 0.0002 2650 0.021300 0.000100 0.000100
108 1 0.0002 2650 0.021500 0.000100 0.000100
109 1 0.0002 2650 0.021700 0.000100 0.000100
110 1 0.0002 2650 0.021900 0.000100 0.000100
111 1 0.0002 2650 0.022100 0.000100 0.000100
112 1 0.0002 2650 0.022300 0.000100 0.000100
113 1 0.0002 2650 0.022500 0.000100 0.000100
114 1 0.0002 2650 0.022700 0.000100 0.000100
115 1 0.0002 2650 0.022900 0.000100 0.000100
116 1 0.0002 2650 0.023100 0.000100 0.000100
117 1 0.0002 2650 0.023300 0.000100 0.000100
118 1 0.0002 2650 0.023500 0.000100 0.000100
119 1 0.0002 2650 0.023700 0.000100 0.000100
120 1 0.0002 2650 0.023900 0.000100 0.000100
121 1 0.0002 2650 0.024100 0.000100 0.000100
122 1 0.0002 2650 0.024300 0.000100 0.000100
123 1 0.0002 2650 0.024500 0.000100 0.000100
124 1 0.0002 2650 0.024700 0.000100 0.000100
125 1 0.0002 2650 0.024900 0.000100 0.000100
126 1 0.0002 2650 0.025100 0.000100 0.000100
127 1 0.0002 2650 0.025300 0.000100 0.000100
128 1 0.0002 2650 0.025500 0.000100 0.000100
129 1 0.0002 2650 0.025700 0.000100 0.000100
130 1 0.0002 2650 0.025900 0.000100 0.000100
131 1 0.0002 2650 0.026100 0.000100 0.000100
132 1 0.0002 2650 0.026300 0.000100 0.000100
133 1 0.0002 2650 0.026500 0.000100 0.000100
134 1 0.0002 2650 0.026700 0.000100 0.000100
135 1 0.0002 2650 0.026900 0.000100 0.000100
136 1 0.0002 2650 0.027100 0.000100 0.000100
137 1 0.0002 2650 0.027300 0.000100 0.000100
138 1 0.0002 2650 0.027500 0.000100 0.000100
139 1 0.0002 2650 0.027700 0.000100 0.000100
140 1 0.0002 2650 0.027900 0.000100 0.000100
141 1 0.0002 2650 0.028100 0.000100 0.000100
142 1 0.0002 2650 0.028300 0.000100 0.000100
143 1 0.0002 2650 0.028500 0.000100 0.000100
144 1 0.0002 2650 0.028700 0.000100 0.000100
145 1 0.0002 2650 0.028900 0.000100 0.000100
146 1 0.0002 2650 0.029100 0.000100 0.000100
147 1 0.0002 2650 0.029300 0.000100 0.000100
148 1 0.0002 2650 0.029500 0.000100 0.000100
149 1 0.0002 2650 0.029700 0.000100 0.000100
150 1 0.0002 2650 0.029900 0.000100 0.000100
151 1 0.0002 2650 0.030100 0.000100 0.000100
152 1 0.0002 2650 0.030300 0.000100 0.000100
153 1 0.0002 2650 0.030500 0.000100 0.000100
154 1 0.0002 2650 0.030700 0.000100 0.000100
155 1 0.0002 2650 0.030900 0.000100 0.000100
156 1 0.0002 2650 0.031100 0.000100 0.000100
157 1 0.0002 2650 0.031300 0.000100 0.000100
158 1 0.0002 2650 0.031500 0.000100 0.000100
159 1 0.0002 2650 0.031700 0.000100 0.000100
160 1 0.0002 2650 0.031900 0.000100 0.000100
161 1 0.0002 2650 0.032100 0.000100 0.000100
162 1 0.0002 2650 0.032300 0.000100 0.000100
163 1 0.0002 2650 0.032500 0.000100 0.000100
164 1 0.0002 2650 0.032700 0.000100 0.000100
165 1 0.0002 2650 0.032900 0.000100 0.000100
166 1 0.0002 2650 0.033100 0.000100 0.000100
167 1 0.0002 2650 0.033300 0.000100 0.000100
168 1 0.0002 2650 0.033500 0.000100 0.000100
169 1 0.0002 2650 0.033700 0.000100 0.000100
170 1 0.0002 2650 0.033900 0.000100 0.000100
171 1 0.0002 2650 0.034100 0.000100 0.000100
172 1 0.0002 2650 0.034300 0.000100 0.000100
173 1 0.0002 2650 0.034500 0.000100 0.000100
174 1 0.0002 2650 0.034700 0.000100 0.000100
175 1 0.0002 2650 0.034900 0.000100 0.000100
176 1 0.0002 2650 0.035100 0.000100 0.000100
177 1 0.0002 2650 0.035300 0.000100 0.000100
178 1 0.0002 2650 0.035500 0.000100 0.000100
179 1 0.0002 2650 0.035700 0.000100 0.000100
180 1 0.0002 2650 0.035900 0.000100 0.000100
181 1 0.0002 2650 0.036100 0.000100 0.000100
182 1 0.0002 2650 0.036300 0.000100 0.000100
183 1 0.0002 2650 0.036500 0.000100 0.000100
184 1 0.0002 2650 0.036700 0.000100 0.000100
185 1 0.0002 2650 0.036900 0.000100 0.000100
186 1 0.0002 2650 0.037100 0.000100 0.000100
187 1 0.0002 2650 0.037300 0.000100 0.000100
188 1 0.0002 2650 0.037500 0.000100 0.000100
189 1 0.0002 2650 0.037700 0.000100 0.000100
190 1 0.0002 2650 0.037900 0.000100 0.000100
191 1 0.0002 2650 0.038100 0.000100 0.000100
192 1 0.0002 2650 0.038300 0.000100 0.000100
193 1 0.0002 2650 0.038500 0.000100 0.000100
194 1 0.0002 2650 0.038700 0.000100 0.000100
195 1 0.0002 2650 0.038900 0.000100 0.000100
196 1 0.0002 2650 0.039100 0.000100 0.000100
197 1 0.0002 2650 0.039300 0.000100 0.000100
198 1 0.0002 2650 0.039500 0.000100 0.000100
199 1 0.0002 2650 0.039700 0.000100 0.000100
200 1 0.0002 2650 0.039900 0.000100 0.000100
201 1 0.0002 2650 0.040100 0.000100 0.000100
202 1 0.0002 2650 0.040300 0.000100 0.000100
203 1 0.0002 2650 0.040500 0.000100 0.000100
204 1 0.0002 2650 0.040700 0.000100 0.000100
205 1 0.0002 2650 0.040900 0.000100 0.000100
206 1 0.0002 2650 0.041100 0.000100 0.000100
207 1 0.0002 2650 0.041300 0.000100 0.000100
208 1 0.0002 2650 0.041500 0.000100 0.000100
209 1 0.0002 2650 0.041700 0.000100 0.000100
210 1 0.0002 2650 0.041900 0.000100 0.000100
211 1 0.0002 2650 0.042100 0.000100 0.000100
212 1 0.0002 2650 0.042300 0.000100 0.000100
213 1 0.0002 2650 0.042500 0.000100 0.000100
214 1 0.0002 2650 0.042700 0.000100 0.000100
215 1 0.0002 2650 0.042900 0.000100 0.000100
216 1 0.0002 2650 0.043100 0.000100 0.000100
217 1 0.0002 2650 0.043300 0.000100 0.000100
218 1 0.0002 2650 0.043500 0.000100 0.000100
219 1 0.0002 2650 0.043700 0.000100 0.000100
220 1 0.0002 2650 0.043900 0.000100 0.000100
221 1 0.0002 2650 0.044100 0.000100 0.000100
222 1 0.0002 2650 0.044300 0.000100 0.000100
223 1 0.0002 2650 0.044500 0.000100 0.000100
224 1 0.0002 2650 0.044700 0.000100 0.000100
225 1 0.0002 2650 0.044900 0.000100 0.000100
226 1 0.0002 2650 0.045100 0.000100 0.000100
227 1 0.0002 2650 0.045300 0.000100 0.000100
228 1 0.0002 2650 0.045500 0.000100 0.000100
229 1 0.0002 2650 0.045700 0.000100 0.000100
230 1 0.0002 2650 0.045900 0.000100 0.000100
231 1 0.0002 2650 0.046100 0.000100 0.000100
232 1 0.0002 2650 0.046300 0.000100 0.000100
233 1 0.0002 2650 0.046500 0.000100 0.000100
234 1 0.0002 2650 0.046700 0.000100 0.000100
235 1 0.0002 2650 0.046900 0.000100 0.000100
236 1 0.0002 2650 0.047100 0.000100 0.000100
237 1 0.0002 2650 0.047300 0.000100 0.000100
238 1 0.0002 2650 0.047500 0.000100 0.000100
239 1 0.0002 2650 0.047700 0.000100 0.000100
240 1 0.0002 2650 0.047900 0.000100 0.000100
241 1 0.0002 2650 0.048100 0.000100 0.000100
242 1 0.0002 2650 0.048300 0.000100 0.000100
243 1 0.0002 2650 0.048500 0.000100 0.000100
244 1 0.0002 2650 0.048700 0.000100 0.000100
245 1 0.0002 2650 0.048900 0.000100 0.000100
246 1 0.0002 2650 0.049100 0.000100 0.000100
247 1 0.0002 2650 0.049300 0.000100 0.000100
248 1 0.0002 2650 0.049500 0.000100 0.000100
249 1 0.0002 2650 0.049700 0.000100 0.000100
250 1 0.0002 2650 0.049900 0.000100 0.000100
251 1 0.0002 2650 0.000100 0.000100 0.000300
252 1 0.0002 2650 0.000300 0.000100 0.000300
253 1 0.0002 2650 0.000500 0.000100 0.000300
254 1 0.0002 2650 0.000700 0.000100 0.000300
255 1 0.0002 2650 0.000900 0.000100 0.000300
256 1 0.0002 2650 0.001100 0.000100 0.000300
257 1 0.0002 2650 0.001300 0.000100 0.000300
258 1 0.0002 2650 0.001500 0.000100 0.000300
259 1 0.0002 2650 0.001700 0.000100 0.000300
260 1 0.0002 2650 0.001900 0.000100 0.000300
261 1 0.0002 2650 0.002100 0.000100 0.000300
262 1 0.0002 2650 0.002300 0.000100 0.000300
263 1 0.0002 2650 0.002500 0.000100 0.000300
264 1 0.0002 2650 0.002700 0.000100 0.000300
265 1 0.0002 2650 0.002900 0.000100 0.000300
266 1 0.0002 2650 0.003100 0.000100 0.000300
267 1 0.0002 2650 0.003300 0.000100 0.000300
268 1 0.0002 2650 0.003500 0.000100 0.000300
269 1 0.0002 2650 0.003700 0.000100 0.000300
270 1 0.0002 2650 0.003900 0.000100 0.000300
271 1 0.0002 2650 0.004100 0.000100 0.000300
272 1 0.0002 2650 0.004300 0.000100 0.000300
273 1 0.0002 2650 0.004500 0.000100 0.000300
274 1 0.0002 2650 0.004700 0.000100 0.000300
275 1 0.0002 2650 0.004900 0.000100 0.000300
276 1 0.0002 2650 0.005100 0.000100 0.000300
277 1 0.0002 2650 0.005300 0.000100 0.000300
278 1 0.0002 2650 0.005500 0.000100 0.000300
279 1 0.0002 2650 0.005700 0.000100 0.000300
280 1 0.0002 2650 0.005900 0.000100 0.000300
281 1 0.0002 2650 0.006100 0.000100 0.000300
282 1 0.0002 2650 0.006300 0.000100 0.000300
283 1 0.0002 2650 0.006500 0.000100 0.000300
284 1 0.0002 2650 0.006700 0.000100 0.000300
285 1 0.0002 2650 0.006900 0.000100 0.000300
286 1 0.0002 2650 0.007100 0.000100 0.000300
287 1 0.0002 2650 0.007300 0.000100 0.000300
288 1 0.0002 2650 0.007500 0.000100 0.000300
289 1 0.0002 2650 0.007700 0.000100 0.000300
290 1 0.0002 2650 0.007900 0.000100 0.000300
291 1 0.0002 2650 0.008100 0.000100 0.000300
292 1 0.0002 2650 0.008300 0.000100 0.000300
293 1 0.0002 2650 0.008500 0.000100 0.000300
294 1 0.0002 2650 0.008700 0.000100 0.000300
295 1 0.0002 2650 0.008900 0.000100 0.000300
296 1 0.0002 2650 0.009100 0.000100 0.000300
297 1 0.0002 2650 0.009300 0.000100 0.000300
298 1 0.0002 2650 0.009500 0.000100 0.000300
299 1 0.0002 2650 0.009700 0.000100 0.000300
300 1 0.0002 2650 0.009900 0.000100 0.000300
301 1 0.0002 2650 0.010100 0.000100 0.000300
302 1 0.0002 2650 0.010300 0.000100 0.000300
303 1 0.0002 2650 0.010500 0.000100 0.000300
304 1 0.0002 2650 0.010700 0.000100 0.000300
305 1 0.0002 2650 0.010900 0.000100 0.000300
306 1 0.0002 2650 0.011100 0.000100 0.000300
307 1 0.0002 2650 0.011300 0.000100 0.000300
308 1 0.0002 2650 0.011500 0.000100 0.000300
309 1 0.0002 2650 0.011700 0.000100 0.000300
310 1 0.0002 2650 0.011900 0.000100 0.000300
311 1 0.0002 2650 0.012100 0.000100 0.000300
312 1 0.0002 2650 0.012300 0.000100 0.000300
313 1 0.0002 2650 0.012500 0.000100 0.000300
314 1 0.0002 2650 0.012700 0.000100 0.000300
315 1 0.0002 2650 0.012900 0.000100 0.000300
316 1 0.0002 2650 0.013100 0.000100 0.000300
317 1 0.0002 2650 0.013300 0.000100 0.000300
318 1 0.0002 2650 0.013500 0.000100 0.000300
319 1 0.0002 2650 0.013700 0.000100 0.000300
320 1 0.0002 2650 0.013900 0.000100 0.000300
321 1 0.0002 2650 0.014100 0.000100 0.000300
322 1 0.0002 2650 0.014300 0.000100 0.000300
323 1 0.0002 2650 0.014500 0.000100 0.000300
324 1 0.0002 2650 0.014700 0.000100 0.000300
325 1 0.0002 2650 0.014900 0.000100 0.000300
326 1 0.0002 2650 0.015100 0.000100 0.000300
327 1 0.0002 2650 0.015300 0.000100 0.000300
328 1 0.0002 2650 0.015500 0.000100 0.000300
329 1 0.0002 2650 0.015700 0.000100 0.000300
330 1 0.0002 2650 0.015900 0.000100 0.000300
331 1 0.0002 2650 0.016100 0.000100 0.000300
332 1 0.0002 2650 0.016300 0.000100 0.000300
333 1 0.0002 2650 0.016500 0.000100 0.000300
334 1 0.0002 2650 0.016700 0.000100 0.000300
335 1 0.0002 2650 0.016900 0.000100 0.000300
336 1 0.0002 2650 0.017100 0.000100 0.000300
337 1 0.0002 2650 0.017300 0.000100 0.000300
338 1 0.0002 2650 0.017500 0.000100 0.000300
339 1 0.0002 2650 0.017700 0.000100 0.000300
340 1 0.0002 2650 0.017900 0.000100 0.000300
341 1 0.0002 2650 0.018100 0.000100 0.000300
342 1 0.0002 2650 0.018300 0.000100 0.000300
343 1 0.0002 2650 0.018500 0.000100 0.000300
344 1 0.0002 2650 0.018700 0.000100 0.000300
345 1 0.0002 2650 0.018900 0.000100 0.000300
346 1 0.0002 2650 0.019100 0.000100 0.000300
347 1 0.0002 2650 0.019300 0.000100 0.000300
348 1 0.0002 2650 0.019500 0.000100 0.000300
349 1 0.0002 2650 0.019700 0.000100 0.000300
350 1 0.0002 2650 0.019900 0.000100 0.000300
351 1 0.0002 2650 0.020100 0.000100 0.000300
352 1 0.0002 2650 0.020300 0.000100 0.000300
353 1 0.0002 2650 0.020500 0.000100 0.000300
354 1 0.0002 2650 0.020700 0.000100 0.000300
355 1 0.0002 2650 0.020900 0.000100 0.000300
356 1 0.0002 2650 0.021100 0.000100 0.000300
357 1 0.0002 2650 0.021300 0.000100 0.000300
358 1 0.0002 2650 0.021500 0.000100 0.000300
359 1 0.0002 2650 0.021700 0.000100 0.000300
360 1 0.0002 2650 0.021900 0.000100 0.000300
361 1 0.0002 2650 0.022100 0.000100 0.000300
362 1 0.0002 2650 0.022300 0.000100 0.000300
363 1 0.0002 2650 0.022500 0.000100 0.000300
364 1 0.0002 2650 0.022700 0.000100 0.000300
365 1 0.0002 2650 0.022900 0.000100 0.000300
366 1 0.0002 2650 0.023100 0.000100 0.000300
367 1 0.0002 2650 0.023300 0.000100 0.000300
368 1 0.0002 2650 0.023500 0.000100 0.000300
369 1 0.0002 2650 0.023700 0.000100 0.000300
370 1 0.0002 2650 0.023900 0.000100 0.000300
371 1 0.0002 2650 0.024100 0.000100 0.000300
372 1 0.0002 2650 0.024300 0.000100 0.000300
373 1 0.0002 2650 0.024500 0.000100 0.000300
374 1 0.0002 2650 0.024700 0.000100 0.000300
375 1 0.0002 2650 0.024900 0.000100 0.000300
376 1 0.0002 2650 0.025100 0.000100 0.000300
377 1 0.0002 2650 0.025300 0.000100 0.000300
378 1 0.0002 2650 0.025500 0.000100 0.000300
379 1 0.0002 2650 0.025700 0.000100 0.000300
380 1 0.0002 2650 0.025900 0.000100 0.000300
381 1 0.0002 2650 0.026100 0.000100 0.000300
382 1 0.0002 2650 0.026300 0.000100 0.000300
383 1 0.0002 2650 0.026500 0.000100 0.000300
384 1 0.0002 2650 0.026700 0.000100 0.000300
385 1 0.0002 2650 0.026900 0.000100 0.000300
386 1 0.0002 2650 0.027100 0.000100 0.000300
387 1 0.0002 2650 0.027300 0.000100 0.000300
388 1 0.0002 2650 0.027500 0.000100 0.000300
389 1 0.0002 2650 0.027700 0.000100 0.000300
390 1 0.0002 2650 0.027900 0.000100 0.000300
391 1 0.0002 2650 0.028100 0.000100 0.000300
392 1 0.0002 2650 0.028300 0.000100 0.000300
393 1 0.0002 2650 0.028500 0.000100 0.000300
394 1 0.0002 2650 0.028700 0.000100 0.000300
395 1 0.0002 2650 0.028900 0.000100 0.000300
396 1 0.0002 2650 0.029100 0.000100 0.000300
397 1 0.0002 2650 0.029300 0.000100 0.000300
398 1 0.0002 2650 0.029500 0.000100 0.000300
399 1 0.0002 2650 0.029700 0.000100 0.000300
400 1 0.0002 2650 0.029900 0.000100 0.000300
401 1 0.0002 2650 0.030100 0.000100 0.000300
402 1 0.0002 2650 0.030300 0.000100 0.000300
403 1 0.0002 2650 0.030500 0.000100 0.000300
404 1 0.0002 2650 0.030700 0.000100 0.000300
405 1 0.0002 2650 0.030900 0.000100 0.000300
406 1 0.0002 2650 0.031100 0.000100 0.000300
407 1 0.0002 2650 0.031300 0.000100 0.000300
408 1 0.0002 2650 0.031500 0.000100 0.000300
409 1 0.0002 2650 0.031700 0.000100 0.000300
410 1 0.0002 2650 0.031900 0.000100 0.000300
411 1 0.0002 2650 0.032100 0.000100 0.000300
412 1 0.0002 2650 0.032300 0.000100 0.000300
413 1 0.0002 2650 0.032500 0.000100 0.000300
414 1 0.0002 2650 0.032700 0.000100 0.000300
415 1 0.0002 2650 0.032900 0.000100 0.000300
416 1 0.0002 2650 0.033100 0.000100 0.000300
417 1 0.0002 2650 0.033300 0.000100 0.000300
418 1 0.0002 2650 0.033500 0.000100 0.000300
419 1 0.0002 2650 0.033700 0.000100 0.000300
420 1 0.0002 2650 0.033900 0.000100 0.000300
421 1 0.0002 2650 0.034100 0.000100 0.000300
422 1 0.0002 2650 0.034300 0.000100 0.000300
423 1 0.0002 2650 0.034500 0.000100 0.000300
424 1 0.0002 2650 0.034700 0.000100 0.000300
425 1 0.0002 2650 0.034900 0.000100 0.000300
426 1 0.0002 2650 0.035100 0.000100 0.000300
427 1 0.0002 2650 0.035300 0.000100 0.000300
428 1 0.0002 2650 0.035500 0.000100 0.000300
429 1 0.0002 2650 0.035700 0.000100 0.000300
430 1 0.0002 2650 0.035900 0.000100 0.000300
431 1 0.0002 2650 0.036100 0.000100 0.000300
432 1 0.0002 2650 0.036300 0.000100 0.000300
433 1 0.0002 2650 0.036500 0.000100 0.000300
434 1 0.0002 2650 0.036700 0.000100 0.000300
435 1 0.0002 2650 0.036900 0.000100 0.000300
436 1 0.0002 2650 0.037100 0.000100 0.000300
437 1 0.0002 2650 0.037300 0.000100 0.000300
438 1 0.0002 2650 0.037500 0.000100 0.000300
439 1 0.0002 2650 0.037700 0.000100 0.000300
440 1 0.0002 2650 0.037900 0.000100 0.000300
441 1 0.0002 2650 0.038100 0.000100 0.000300
442 1 0.0002 2650 0.038300 0.000100 0.000300
443 1 0.0002 2650 0.038500 0.000100 0.000300
444 1 0.0002 2650 0.038700 0.000100 0.000300
445 1 0.0002 2650 0.038900 0.000100 0.000300
446 1 0.0002 2650 0.039100 0.000100 0.000300
447 1 0.0002 2650 0.039300 0.000100 0.000300
448 1 0.0002 2650 0.039500 0.000100 0.000300
449 1 0.0002 2650 0.039700 0.000100 0.000300
450 1 0.0002 2650 0.039900 0.000100 0.000300
451 1 0.0002 2650 0.040100 0.000100 0.000300
452 1 0.0002 2650 0.040300 0.000100 0.000300
453 1 0.0002 2650 0.040500 0.000100 0.000300
454 1 0.0002 2650 0.040700 0.000100 0.000300
455 1 0.0002 2650 0.040900 0.000100 0.000300
456 1 0.0002 2650 0.041100 0.000100 0.000300
457 1 0.0002 2650 0.041300 0.000100 0.000300
458 1 0.0002 2650 0.041500 0.000100 0.000300
459 1 0.0002 2650 0.041700 0.000100 0.000300
460 1 0.0002 2650 0.041900 0.000100 0.000300
461 1 0.0002 2650 0.042100 0.000100 0.000300
462 1 0.0002 2650 0.042300 0.000100 0.000300
463 1 0.0002 2650 0.042500 0.000100 0.000300
464 1 0.0002 2650 0.042700 0.000100 0.000300
465 1 0.0002 2650 0.042900 0.000100 0.000300
466 1 0.0002 2650 0.043100 0.000100 0.000300
467 1 0.0002 2650 0.043300 0.000100 0.000300
468 1 0.0002 2650 0.043500 0.000100 0.000300
469 1 0.0002 2650 0.043700 0.000100 0.000300
470 1 0.0002 2650 0.043900 0.000100 0.000300
471 1 0.0002 2650 0.044100 0.000100 0.000300
472 1 0.0002 2650 0.044300 0.000100 0.000300
473 1 0.0002 2650 0.044500 0.000100 0.000300
474 1 0.0002 2650 0.044700 0.000100 0.000300
475 1 0.0002 2650 0.044900 0.000100 0.000300
476 1 0.0002 2650 0.045100 0.000100 0.000300
477 1 0.0002 2650 0.045300 0.000100 0.000300
478 1 0.0002 2650 0.045500 0.000100 0.000300
479 1 0.0002 2650 0.045700 0.000100 0.000300
480 1 0.0002 2650 0.045900 0.000100 0.000300
481 1 0.0002 2650 0.046100 0.000100 0.000300
482 1 0.0002 2650 0.046300 0.000100 0.000300
483 1 0.0002 2650 0.046500 0.000100 0.000300
484 1 0.0002 2650 0.046700 0.000100 0.000300
485 1 0.0002 2650 0.046900 0.000100 0.000300
486 1 0.0002 2650 0.047100 0.000100 0.000300
487 1 0.0002 2650 0.047300 0.000100 0.000300
488 1 0.0002 2650 0.047500 0.000100 0.000300
489 1 0.0002 2650 0.047700 0.000100 0.000300
490 1 0.0002 2650 0.047900 0.000100 0.000300
491 1 0.0002 2650 0.048100 0.000100 0.000300
492 1 0.0002 2650 0.048300 0.000100 0.000300
493 1 0.0002 2650 0.048500 0.000100 0.000300
494 1 0.0002 2650 0.048700 0.000100 0.000300
495 1 0.0002 2650 0.048900 0.000100 0.000300
496 1 0.0002 2650 0.049100 0.000100 0.000300
497 1 0.0002 2650 0.049300 0.000100 0.000300
498 1 0.0002 2650 0.049500 0.000100 0.000300
499 1 0.0002 2650 0.049700 0.000100 0.000300
500 1 0.0002 2650 0.049900 0.000100 0.000300
501 1 0.0002 2650 0.000100 0.000100 0.000500
502 1 0.0002 2650 0.000300 0.000100 0.000500
503 1 0.0002 2650 0.000500 0.000100 0.000500
504 1 0.0002 2650 0.000700 0.000100 0.000500
505 1 0.0002 2650 0.000900 0.000100 0.000500
506 1 0.0002 2650 0.001100 0.000100 0.000500
507 1 0.0002 2650 0.001300 0.000100 0.000500
508 1 0.0002 2650 0.001500 0.000100 0.000500
509 1 0.0002 2650 0.001700 0.000100 0.000500
510 1 0.0002 2650 0.001900 0.000100 0.000500
511 1 0.0002 2650 0.002100 0.000100 0.000500
512 1 0.0002 2650 0.002300 0.000100 0.000500
513 1 0.0002 2650 0.002500 0.000100 0.000500
514 1 0.0002 2650 0.002700 0.000100 0.000500
515 1 0.0002 2650 0.002900 0.000100 0.000500
516 1 0.0002 2650 0.003100 0.000100 0.000500
517 1 0.0002 2650 0.003300 0.000100 0.000500
518 1 0.0002 2650 0.003500 0.000100 0.000500
519 1 0.0002 2650 0.003700 0.000100 0.000500
520 1 0.0002 2650 0.003900 0.000100 0.000500
521 1 0.0002 2650 0.004100 0.000100 0.000500
522 1 0.0002 2650 0.004300 0.000100 0.000500
523 1 0.0002 2650 0.004500 0.000100 0.000500
524 1 0.0002 2650 0.004700 0.000100 0.000500
525 1 0.0002 2650 0.004900 0.000100 0.000500
526 1 0.0002 2650 0.005100 0.000100 0.000500
527 1 0.0002 2650 0.005300 0.000100 0.000500
528 1 0.0002 2650 0.005500 0.000100 0.000500
529 1 0.0002 2650 0.005700 0.000100 0.000500
530 1 0.0002 2650 0.005900 0.000100 0.000500
531 1 0.0002 2650 0.006100 0.000100 0.000500
532 1 0.0002 2650 0.006300 0.000100 0.000500
533 1 0.0002 2650 0.006500 0.000100 0.000500
534 1 0.0002 2650 0.006700 0.000100 0.000500
535 1 0.0002 2650 0.006900 0.000100 0.000500
536 1 0.0002 2650 0.007100 0.000100 0.000500
537 1 0.0002 2650 0.007300 0.000100 0.000500
538 1 0.0002 2650 0.007500 0.000100 0.000500
539 1 0.0002 2650 0.007700 0.000100 0.000500
540 1 0.0002 2650 0.007900 0.000100 0.000500
541 1 0.0002 2650 0.008100 0.000100 0.000500
542 1 0.0002 2650 0.008300 0.000100 0.000500
543 1 0.0002 2650 0.008500 0.000100 0.000500
544 1 0.0002 2650 0.008700 0.000100 0.000500
545 1 0.0002 2650 0.008900 0.000100 0.000500
546 1 0.0002 2650 0.009100 0.000100 0.000500
547 1 0.0002 2650 0.009300 0.000100 0.000500
548 1 0.0002 2650 0.009500 0.000100 0.000500
549 1 0.0002 2650 0.009700 0.000100 0.000500
550 1 0.0002 2650 0.009900 0.000100 0.000500
551 1 0.0002 2650 0.010100 0.000100 0.000500
552 1 0.0002 2650 0.010300 0.000100 0.000500
553 1 0.0002 2650 0.010500 0.000100 0.000500
554 1 0.0002 2650 0.010700 0.000100 0.000500
555 1 0.0002 2650 0.010900 0.000100 0.000500
556 1 0.0002 2650 0.011100 0.000100 0.000500
557 1 0.0002 2650 0.011300 0.000100 0.000500
558 1 0.0002 2650 0.011500 0.000100 0.000500
559 1 0.0002 2650 0.011700 0.000100 0.000500
560 1 0.0002 2650 0.011900 0.000100 0.000500
561 1 0.0002 2650 0.012100 0.000100 0.000500
562 1 0.0002 2650 0.012300 0.000100 0.000500
563 1 0.0002 2650 0.012500 0.000100 0.000500
564 1 0.0002 2650 0.012700 0.000100 0.000500
565 1 0.0002 2650 0.012900 0.000100 0.000500
566 1 0.0002 2650 0.013100 0.000100 0.000500
567 1 0.0002 2650 0.013300 0.000100 0.000500
568 1 0.0002 2650 0.013500 0.000100 0.000500
569 1 0.0002 2650 0.013700 0.000100 0.000500
570 1 0.0002 2650 0.013900 0.000100 0.000500
571 1 0.0002 2650 0.014100 0.000100 0.000500
572 1 0.0002 2650 0.014300 0.000100 0.000500
573 1 0.0002 2650 0.014500 0.000100 0.000500
574 1 0.0002 2650 0.014700 0.000100 0.000500
575 1 0.0002 2650 0.014900 0.000100 0.000500
576 1 0.0002 2650 0.015100 0.000100 0.000500
577 1 0.0002 2650 0.015300 0.000100 0.000500
578 1 0.0002 2650 0.015500 0.000100 0.000500
579 1 0.0002 2650 0.015700 0.000100 0.000500
580 1 0.0002 2650 0.015900 0.000100 0.000500
581 1 0.0002 2650 0.016100 0.000100 0.000500
582 1 0.0002 2650 0.016300 0.000100 0.000500
583 1 0.0002 2650 0.016500 0.000100 0.000500
584 1 0.0002 2650 0.016700 0.000100 0.000500
585 1 0.0002 2650 0.016900 0.000100 0.000500
586 1 0.0002 2650 0.017100 0.000100 0.000500
587 1 0.0002 2650 0.017300 0.000100 0.000500
588 1 0.0002 2650 0.017500 0.000100 0.000500
589 1 0.0002 2650 0.017700 0.000100 0.000500
590 1 0.0002 2650 0.017900 0.000100 0.000500
591 1 0.0002 2650 0.018100 0.000100 0.000500
592 1 0.0002 2650 0.018300 0.000100 0.000500
593 1 0.0002 2650 0.018500 0.000100 0.000500
594 1 0.0002 2650 0.018700 0.000100 0.000500
595 1 0.0002 2650 0.018900 0.000100 0.000500
596 1 0.0002 2650 0.019100 0.000100 0.000500
597 1 0.0002 2650 0.019300 0.000100 0.000500
598 1 0.0002 2650 0.019500 0.000100 0.000500
599 1 0.0002 2650 0.019700 0.000100 0.000500
600 1 0.0002 2650 0.019900 0.000100 0.000500
601 1 0.0002 2650 0.020100 0.000100 0.000500
602 1 0.0002 2650 0.020300 0.000100 0.000500
603 1 0.0002 2650 0.020500 0.000100 0.000500
604 1 0.0002 2650 0.020700 0.000100 0.000500
605 1 0.0002 2650 0.020900 0.000100 0.000500
606 1 0.0002 2650 0.021100 0.000100 0.000500
607 1 0.0002 2650 0.021300 0.000100 0.000500
608 1 0.0002 2650 0.021500 0.000100 0.000500
609 1 0.0002 2650 0.021700 0.000100 0.000500
610 1 0.0002 2650 0.021900 0.000100 0.000500
611 1 0.0002 2650 0.022100 0.000100 0.000500
612 1 0.0002 2650 0.022300 0.000100 0.000500
613 1 0.0002 2650 0.022500 0.000100 0.000500
614 1 0.0002 2650 0.022700 0.000100 0.000500
615 1 0.0002 2650 0.022900 0.000100 0.000500
616 1 0.0002 2650 0.023100 0.000100 0.000500
617 1 0.0002 2650 0.023300 0.000100 0.000500
618 1 0.0002 2650 0.023500 0.000100 0.000500
619 1 0.0002 2650 0.023700 0.000100 0.000500
620 1 0.0002 2650 0.023900 0.000100 0.000500
621 1 0.0002 2650 0.024100 0.000100 0.000500
622 1 0.0002 2650 0.024300 0.000100 0.000500
623 1 0.0002 2650 0.024500 0.000100 0.000500
624 1 0.0002 2650 0.024700 0.000100 0.000500
625 1 0.0002 2650 0.024900 0.000100 0.000500
626 1 0.0002 2650 0.025100 0.000100 0.000500
627 1 0.0002 2650 0.025300 0.000100 0.000500
628 1 0.0002 2650 0.025500 0.000100 0.000500
629 1 0.0002 2650 0.025700 0.000100 0.000500
630 1 0.0002 2650 0.025900 0.000100 0.000500
631 1 0.0002 2650 0.026100 0.000100 0.000500
632 1 0.0002 2650 0.026300 0.000100 0.000500
633 1 0.0002 2650 0.026500 0.000100 0.000500
634 1 0.0002 2650 0.026700 0.000100 0.000500
635 1 0.0002 2650 0.026900 0.000100 0.000500
636 1 0.0002 2650 0.027100 0.000100 0.000500
637 1 0.0002 2650 0.027300 0.000100 0.000500
638 1 0.0002 2650 0.027500 0.000100 0.000500
639 1 0.0002 2650 0.027700 0.000100 0.000500
640 1 0.0002 2650 0.027900 0.000100 0.000500
641 1 0.0002 2650 0.028100 0.000100 0.000500
642 1 0.0002 2650 0.028300 0.000100 0.000500
643 1 0.0002 2650 0.028500 0.000100 0.000500
644 1 0.0002 2650 0.028700 0.000100 0.000500
645 1 0.0002 2650 0.028900 0.000100 0.000500
646 1 0.0002 2650 0.029100 0.000100 0.000500
647 1 0.0002 2650 0.029300 0.000100 0.000500
648 1 0.0002 2650 0.029500 0.000100 0.000500
649 1 0.0002 2650 0.029700 0.000100 0.000500
650 1 0.0002 2650 0.029900 0.000100 0.000500