 Granular Flow simulation

       10000  atoms
           1  atom types

   0.000000     0.050000  xlo xhi
   0.000000     0.020000  ylo yhi
   0.000000     0.010000  zlo zhi

 Atoms

     1   1 1.70000E-04  2.65000E+03  0.00009  0.00009  0.00009
     2   1 1.70000E-04  2.65000E+03  0.00026  0.00009  0.00009
     3   1 1.70000E-04  2.65000E+03  0.00044  0.00009  0.00009
     4   1 1.70000E-04  2.65000E+03  0.00062  0.00009  0.00009
     5   1 1.70000E-04  2.65000E+03  0.00080  0.00009  0.00009
     6   1 1.70000E-04  2.65000E+03  0.00098  0.00009  0.00009
     7   1 1.70000E-04  2.65000E+03  0.00116  0.00009  0.00009
     8   1 1.70000E-04  2.65000E+03  0.00133  0.00009  0.00009
     9   1 1.70000E-04  2.65000E+03  0.00151  0.00009  0.00009
    10   1 1.70000E-04  2.65000E+03  0.00169  0.00009  0.00009
    11   1 1.70000E-04  2.65000E+03  0.00187  0.00009  0.00009
    12   1 1.70000E-04  2.65000E+03  0.00205  0.00009  0.00009
    13   1 1.70000E-04  2.65000E+03  0.00223  0.00009  0.00009
    14   1 1.70000E-04  2.65000E+03  0.00241  0.00009  0.00009
    15   1 1.70000E-04  2.65000E+03  0.00258  0.00009  0.00009
    16   1 1.70000E-04  2.65000E+03  0.00276  0.00009  0.00009
    17   1 1.70000E-04  2.65000E+03  0.00294  0.00009  0.00009
    18   1 1.70000E-04  2.65000E+03  0.00312  0.00009  0.00009
    19   1 1.70000E-04  2.65000E+03  0.00330  0.00009  0.00009
    20   1 1.70000E-04  2.65000E+03  0.00348  0.00009  0.00009
    21   1 1.70000E-04  2.65000E+03  0.00366  0.00009  0.00009
    22   1 1.70000E-04  2.65000E+03  0.00383  0.00009  0.00009
    23   1 1.70000E-04  2.65000E+03  0.00401  0.00009  0.00009
    24   1 1.70000E-04  2.65000E+03  0.00419  0.00009  0.00009
    25   1 1.70000E-04  2.65000E+03  0.00437  0.00009  0.00009
    26   1 1.70000E-04  2.65000E+03  0.00455  0.00009  0.00009
    27   1 1.70000E-04  2.65000E+03  0.00473  0.00009  0.00009
    28   1 1.70000E-04  2.65000E+03  0.00490  0.00009  0.00009
    29   1 1.70000E-04  2.65000E+03  0.00508  0.00009  0.00009
    30   1 1.70000E-04  2.65000E+03  0.00526  0.00009  0.00009
    31   1 1.70000E-04  2.65000E+03  0.00544  0.00009  0.00009
    32   1 1.70000E-04  2.65000E+03  0.00562  0.00009  0.00009
    33   1 1.70000E-04  2.65000E+03  0.00580  0.00009  0.00009
    34   1 1.70000E-04  2.65000E+03  0.00598  0.00009  0.00009
    35   1 1.70000E-04  2.65000E+03  0.00615  0.00009  0.00009
    36   1 1.70000E-04  2.65000E+03  0.00633  0.00009  0.00009
    37   1 1.70000E-04  2.65000E+03  0.00651  0.00009  0.00009
    38   1 1.70000E-04  2.65000E+03  0.00669  0.00009  0.00009
    39   1 1.70000E-04  2.65000E+03  0.00687  0.00009  0.00009
    40   1 1.70000E-04  2.65000E+03  0.00705  0.00009  0.00009
    41   1 1.70000E-04  2.65000E+03  0.00723  0.00009  0.00009
    42   1 1.70000E-04  2.65000E+03  0.00740  0.00009  0.00009
    43   1 1.70000E-04  2.65000E+03  0.00758  0.00009  0.00009
    44   1 1.70000E-04  2.65000E+03  0.00776  0.00009  0.00009
    45   1 1.70000E-04  2.65000E+03  0.00794  0.00009  0.00009
    46   1 1.70000E-04  2.65000E+03  0.00812  0.00009  0.00009
    47   1 1.70000E-04  2.65000E+03  0.00830  0.00009  0.00009
    48   1 1.70000E-04  2.65000E+03  0.00847  0.00009  0.00009
    49   1 1.70000E-04  2.65000E+03  0.00865  0.00009  0.00009
    50   1 1.70000E-04  2.65000E+03  0.00883  0.00009  0.00009
    51   1 1.70000E-04  2.65000E+03  0.00901  0.00009  0.00009
    52   1 1.70000E-04  2.65000E+03  0.00919  0.00009  0.00009
    53   1 1.70000E-04  2.65000E+03  0.00937  0.00009  0.00009
    54   1 1.70000E-04  2.65000E+03  0.00955  0.00009  0.00009
    55   1 1.70000E-04  2.65000E+03  0.00972  0.00009  0.00009
    56   1 1.70000E-04  2.65000E+03  0.00990  0.00009  0.00009
    57   1 1.70000E-04  2.65000E+03  0.01008  0.00009  0.00009
    58   1 1.70000E-04  2.65000E+03  0.01026  0.00009  0.00009
    59   1 1.70000E-04  2.65000E+03  0.01044  0.00009  0.00009
    60   1 1.70000E-04  2.65000E+03  0.01062  0.00009  0.00009
    61   1 1.70000E-04  2.65000E+03  0.01080  0.00009  0.00009
    62   1 1.70000E-04  2.65000E+03  0.01097  0.00009  0.00009
    63   1 1.70000E-04  2.65000E+03  0.01115  0.00009  0.00009
    64   1 1.70000E-04  2.65000E+03  0.01133  0.00009  0.00009
    65   1 1.70000E-04  2.65000E+03  0.01151  0.00009  0.00009
    66   1 1.70000E-04  2.65000E+03  0.01169  0.00009  0.00009
    67   1 1.70000E-04  2.65000E+03  0.01187  0.00009  0.00009
    68   1 1.70000E-04  2.65000E+03  0.01204  0.00009  0.00009
    69   1 1.70000E-04  2.65000E+03  0.01222  0.00009  0.00009
    70   1 1.70000E-04  2.65000E+03  0.01240  0.00009  0.00009
    71   1 1.70000E-04  2.65000E+03  0.01258  0.00009  0.00009
    72   1 1.70000E-04  2.65000E+03  0.01276  0.00009  0.00009
    73   1 1.70000E-04  2.65000E+03  0.01294  0.00009  0.00009
    74   1 1.70000E-04  2.65000E+03  0.01312  0.00009  0.00009
    75   1 1.70000E-04  2.65000E+03  0.01329  0.00009  0.00009
    76   1 1.70000E-04  2.65000E+03  0.01347  0.00009  0.00009
    77   1 1.70000E-04  2.65000E+03  0.01365  0.00009  0.00009
    78   1 1.70000E-04  2.65000E+03  0.01383  0.00009  0.00009
    79   1 1.70000E-04  2.65000E+03  0.01401  0.00009  0.00009
    80   1 1.70000E-04  2.65000E+03  0.01419  0.00009  0.00009
    81   1 1.70000E-04  2.65000E+03  0.01437  0.00009  0.00009
    82   1 1.70000E-04  2.65000E+03  0.01454  0.00009  0.00009
    83   1 1.70000E-04  2.65000E+03  0.01472  0.00009  0.00009
    84   1 1.70000E-04  2.65000E+03  0.01490  0.00009  0.00009
    85   1 1.70000E-04  2.65000E+03  0.01508  0.00009  0.00009
    86   1 1.70000E-04  2.65000E+03  0.01526  0.00009  0.00009
    87   1 1.70000E-04  2.65000E+03  0.01544  0.00009  0.00009
    88   1 1.70000E-04  2.65000E+03  0.01561  0.00009  0.00009
    89   1 1.70000E-04  2.65000E+03  0.01579  0.00009  0.00009
    90   1 1.70000E-04  2.65000E+03  0.01597  0.00009  0.00009
    91   1 1.70000E-04  2.65000E+03  0.01615  0.00009  0.00009
    92   1 1.70000E-04  2.65000E+03  0.01633  0.00009  0.00009
    93   1 1.70000E-04  2.65000E+03  0.01651  0.00009  0.00009
    94   1 1.70000E-04  2.65000E+03  0.01669  0.00009  0.00009
    95   1 1.70000E-04  2.65000E+03  0.01686  0.00009  0.00009
    96   1 1.70000E-04  2.65000E+03  0.01704  0.00009  0.00009
    97   1 1.70000E-04  2.65000E+03  0.01722  0.00009  0.00009
    98   1 1.70000E-04  2.65000E+03  0.01740  0.00009  0.00009
    99   1 1.70000E-04  2.65000E+03  0.01758  0.00009  0.00009
   100   1 1.70000E-04  2.65000E+03  0.01776  0.00009  0.00009
   101   1 1.70000E-04  2.65000E+03  0.01793  0.00009  0.00009
   102   1 1.70000E-04  2.65000E+03  0.01811  0.00009  0.00009
   103   1 1.70000E-04  2.65000E+03  0.01829  0.00009  0.00009
   104   1 1.70000E-04  2.65000E+03  0.01847  0.00009  0.00009
   105   1 1.70000E-04  2.65000E+03  0.01865  0.00009  0.00009
   106   1 1.70000E-04  2.65000E+03  0.01883  0.00009  0.00009
   107   1 1.70000E-04  2.65000E+03  0.01901  0.00009  0.00009
   108   1 1.70000E-04  2.65000E+03  0.01918  0.00009  0.00009
   109   1 1.70000E-04  2.65000E+03  0.01936  0.00009  0.00009
   110   1 1.70000E-04  2.65000E+03  0.01954  0.00009  0.00009
   111   1 1.70000E-04  2.65000E+03  0.01972  0.00009  0.00009
   112   1 1.70000E-04  2.65000E+03  0.01990  0.00009  0.00009
   113   1 1.70000E-04  2.65000E+03  0.02008  0.00009  0.00009
   114   1 1.70000E-04  2.65000E+03  0.02026  0.00009  0.00009
   115   1 1.70000E-04  2.65000E+03  0.02043  0.00009  0.00009
   116   1 1.70000E-04  2.65000E+03  0.02061  0.00009  0.00009
   117   1 1.70000E-04  2.65000E+03  0.02079  0.00009  0.00009
   118   1 1.70000E-04  2.65000E+03  0.02097  0.00009  0.00009
   119   1 1.70000E-04  2.65000E+03  0.02115  0.00009  0.00009
   120   1 1.70000E-04  2.65000E+03  0.02133  0.00009  0.00009
   121   1 1.70000E-04  2.65000E+03  0.02151  0.00009  0.00009
   122   1 1.70000E-04  2.65000E+03  0.02168  0.00009  0.00009
   123   1 1.70000E-04  2.65000E+03  0.02186  0.00009  0.00009
   124   1 1.70000E-04  2.65000E+03  0.02204  0.00009  0.00009
   125   1 1.70000E-04  2.65000E+03  0.02222  0.00009  0.00009
   126   1 1.70000E-04  2.65000E+03  0.02240  0.00009  0.00009
   127   1 1.70000E-04  2.65000E+03  0.02258  0.00009  0.00009
   128   1 1.70000E-04  2.65000E+03  0.02275  0.00009  0.00009
   129   1 1.70000E-04  2.65000E+03  0.02293  0.00009  0.00009
   130   1 1.70000E-04  2.65000E+03  0.02311  0.00009  0.00009
   131   1 1.70000E-04  2.65000E+03  0.02329  0.00009  0.00009
   132   1 1.70000E-04  2.65000E+03  0.02347  0.00009  0.00009
   133   1 1.70000E-04  2.65000E+03  0.02365  0.00009  0.00009
   134   1 1.70000E-04  2.65000E+03  0.02383  0.00009  0.00009
   135   1 1.70000E-04  2.65000E+03  0.02400  0.00009  0.00009
   136   1 1.70000E-04  2.65000E+03  0.02418  0.00009  0.00009
   137   1 1.70000E-04  2.65000E+03  0.02436  0.00009  0.00009
   138   1 1.70000E-04  2.65000E+03  0.02454  0.00009  0.00009
   139   1 1.70000E-04  2.65000E+03  0.02472  0.00009  0.00009
   140   1 1.70000E-04  2.65000E+03  0.02490  0.00009  0.00009
   141   1 1.70000E-04  2.65000E+03  0.02508  0.00009  0.00009
   142   1 1.70000E-04  2.65000E+03  0.02525  0.00009  0.00009
   143   1 1.70000E-04  2.65000E+03  0.02543  0.00009  0.00009
   144   1 1.70000E-04  2.65000E+03  0.02561  0.00009  0.00009
   145   1 1.70000E-04  2.65000E+03  0.02579  0.00009  0.00009
   146   1 1.70000E-04  2.65000E+03  0.02597  0.00009  0.00009
   147   1 1.70000E-04  2.65000E+03  0.02615  0.00009  0.00009
   148   1 1.70000E-04  2.65000E+03  0.02632  0.00009  0.00009
   149   1 1.70000E-04  2.65000E+03  0.02650  0.00009  0.00009
   150   1 1.70000E-04  2.65000E+03  0.02668  0.00009  0.00009
   151   1 1.70000E-04  2.65000E+03  0.02686  0.00009  0.00009
   152   1 1.70000E-04  2.65000E+03  0.02704  0.00009  0.00009
   153   1 1.70000E-04  2.65000E+03  0.02722  0.00009  0.00009
   154   1 1.70000E-04  2.65000E+03  0.02740  0.00009  0.00009
   155   1 1.70000E-04  2.65000E+03  0.02757  0.00009  0.00009
   156   1 1.70000E-04  2.65000E+03  0.02775  0.00009  0.00009
   157   1 1.70000E-04  2.65000E+03  0.02793  0.00009  0.00009
   158   1 1.70000E-04  2.65000E+03  0.02811  0.00009  0.00009
   159   1 1.70000E-04  2.65000E+03  0.02829  0.00009  0.00009
   160   1 1.70000E-04  2.65000E+03  0.02847  0.00009  0.00009
   161   1 1.70000E-04  2.65000E+03  0.02865  0.00009  0.00009
   162   1 1.70000E-04  2.65000E+03  0.02882  0.00009  0.00009
   163   1 1.70000E-04  2.65000E+03  0.02900  0.00009  0.00009
   164   1 1.70000E-04  2.65000E+03  0.02918  0.00009  0.00009
   165   1 1.70000E-04  2.65000E+03  0.02936  0.00009  0.00009
   166   1 1.70000E-04  2.65000E+03  0.02954  0.00009  0.00009
   167   1 1.70000E-04  2.65000E+03  0.02972  0.00009  0.00009
   168   1 1.70000E-04  2.65000E+03  0.02989  0.00009  0.00009
   169   1 1.70000E-04  2.65000E+03  0.03007  0.00009  0.00009
   170   1 1.70000E-04  2.65000E+03  0.03025  0.00009  0.00009
   171   1 1.70000E-04  2.65000E+03  0.03043  0.00009  0.00009
   172   1 1.70000E-04  2.65000E+03  0.03061  0.00009  0.00009
   173   1 1.70000E-04  2.65000E+03  0.03079  0.00009  0.00009
   174   1 1.70000E-04  2.65000E+03  0.03097  0.00009  0.00009
   175   1 1.70000E-04  2.65000E+03  0.03114  0.00009  0.00009
   176   1 1.70000E-04  2.65000E+03  0.03132  0.00009  0.00009
   177   1 1.70000E-04  2.65000E+03  0.03150  0.00009  0.00009
   178   1 1.70000E-04  2.65000E+03  0.03168  0.00009  0.00009
   179   1 1.70000E-04  2.65000E+03  0.03186  0.00009  0.00009
   180   1 1.70000E-04  2.65000E+03  0.03204  0.00009  0.00009
   181   1 1.70000E-04  2.65000E+03  0.03222  0.00009  0.00009
   182   1 1.70000E-04  2.65000E+03  0.03239  0.00009  0.00009
   183   1 1.70000E-04  2.65000E+03  0.03257  0.00009  0.00009
   184   1 1.70000E-04  2.65000E+03  0.03275  0.00009  0.00009
   185   1 1.70000E-04  2.65000E+03  0.03293  0.00009  0.00009
   186   1 1.70000E-04  2.65000E+03  0.03311  0.00009  0.00009
   187   1 1.70000E-04  2.65000E+03  0.03329  0.00009  0.00009
   188   1 1.70000E-04  2.65000E+03  0.03346  0.00009  0.00009
   189   1 1.70000E-04  2.65000E+03  0.03364  0.00009  0.00009
   190   1 1.70000E-04  2.65000E+03  0.03382  0.00009  0.00009
   191   1 1.70000E-04  2.65000E+03  0.03400  0.00009  0.00009
   192   1 1.70000E-04  2.65000E+03  0.03418  0.00009  0.00009
   193   1 1.70000E-04  2.65000E+03  0.03436  0.00009  0.00009
   194   1 1.70000E-04  2.65000E+03  0.03454  0.00009  0.00009
   195   1 1.70000E-04  2.65000E+03  0.03471  0.00009  0.00009
   196   1 1.70000E-04  2.65000E+03  0.03489  0.00009  0.00009
   197   1 1.70000E-04  2.65000E+03  0.03507  0.00009  0.00009
   198   1 1.70000E-04  2.65000E+03  0.03525  0.00009  0.00009
   199   1 1.70000E-04  2.65000E+03  0.03543  0.00009  0.00009
   200   1 1.70000E-04  2.65000E+03  0.03561  0.00009  0.00009
   201   1 1.70000E-04  2.65000E+03  0.03579  0.00009  0.00009
   202   1 1.70000E-04  2.65000E+03  0.03596  0.00009  0.00009
   203   1 1.70000E-04  2.65000E+03  0.03614  0.00009  0.00009
   204   1 1.70000E-04  2.65000E+03  0.03632  0.00009  0.00009
   205   1 1.70000E-04  2.65000E+03  0.03650  0.00009  0.00009
   206   1 1.70000E-04  2.65000E+03  0.03668  0.00009  0.00009
   207   1 1.70000E-04  2.65000E+03  0.03686  0.00009  0.00009
   208   1 1.70000E-04  2.65000E+03  0.03703  0.00009  0.00009
   209   1 1.70000E-04  2.65000E+03  0.03721  0.00009  0.00009
   210   1 1.70000E-04  2.65000E+03  0.03739  0.00009  0.00009
   211   1 1.70000E-04  2.65000E+03  0.03757  0.00009  0.00009
   212   1 1.70000E-04  2.65000E+03  0.03775  0.00009  0.00009
   213   1 1.70000E-04  2.65000E+03  0.03793  0.00009  0.00009
   214   1 1.70000E-04  2.65000E+03  0.03811  0.00009  0.00009
   215   1 1.70000E-04  2.65000E+03  0.03828  0.00009  0.00009
   216   1 1.70000E-04  2.65000E+03  0.03846  0.00009  0.00009
   217   1 1.70000E-04  2.65000E+03  0.03864  0.00009  0.00009
   218   1 1.70000E-04  2.65000E+03  0.03882  0.00009  0.00009
   219   1 1.70000E-04  2.65000E+03  0.03900  0.00009  0.00009
   220   1 1.70000E-04  2.65000E+03  0.03918  0.00009  0.00009
   221   1 1.70000E-04  2.65000E+03  0.03936  0.00009  0.00009
   222   1 1.70000E-04  2.65000E+03  0.03953  0.00009  0.00009
   223   1 1.70000E-04  2.65000E+03  0.03971  0.00009  0.00009
   224   1 1.70000E-04  2.65000E+03  0.03989  0.00009  0.00009
   225   1 1.70000E-04  2.65000E+03  0.04007  0.00009  0.00009
   226   1 1.70000E-04  2.65000E+03  0.04025  0.00009  0.00009
   227   1 1.70000E-04  2.65000E+03  0.04043  0.00009  0.00009
   228   1 1.70000E-04  2.65000E+03  0.04060  0.00009  0.00009
   229   1 1.70000E-04  2.65000E+03  0.04078  0.00009  0.00009
   230   1 1.70000E-04  2.65000E+03  0.04096  0.00009  0.00009
   231   1 1.70000E-04  2.65000E+03  0.04114  0.00009  0.00009
   232   1 1.70000E-04  2.65000E+03  0.04132  0.00009  0.00009
   233   1 1.70000E-04  2.65000E+03  0.04150  0.00009  0.00009
   234   1 1.70000E-04  2.65000E+03  0.04168  0.00009  0.00009
   235   1 1.70000E-04  2.65000E+03  0.04185  0.00009  0.00009
   236   1 1.70000E-04  2.65000E+03  0.04203  0.00009  0.00009
   237   1 1.70000E-04  2.65000E+03  0.04221  0.00009  0.00009
   238   1 1.70000E-04  2.65000E+03  0.04239  0.00009  0.00009
   239   1 1.70000E-04  2.65000E+03  0.04257  0.00009  0.00009
   240   1 1.70000E-04  2.65000E+03  0.04275  0.00009  0.00009
   241   1 1.70000E-04  2.65000E+03  0.04293  0.00009  0.00009
   242   1 1.70000E-04  2.65000E+03  0.04310  0.00009  0.00009
   243   1 1.70000E-04  2.65000E+03  0.04328  0.00009  0.00009
   244   1 1.70000E-04  2.65000E+03  0.04346  0.00009  0.00009
   245   1 1.70000E-04  2.65000E+03  0.04364  0.00009  0.00009
   246   1 1.70000E-04  2.65000E+03  0.04382  0.00009  0.00009
   247   1 1.70000E-04  2.65000E+03  0.04400  0.00009  0.00009
   248   1 1.70000E-04  2.65000E+03  0.04417  0.00009  0.00009
   249   1 1.70000E-04  2.65000E+03  0.04435  0.00009  0.00009
   250   1 1.70000E-04  2.65000E+03  0.04453  0.00009  0.00009
   251   1 1.70000E-04  2.65000E+03  0.04471  0.00009  0.00009
   252   1 1.70000E-04  2.65000E+03  0.04489  0.00009  0.00009
   253   1 1.70000E-04  2.65000E+03  0.04507  0.00009  0.00009
   254   1 1.70000E-04  2.65000E+03  0.04525  0.00009  0.00009
   255   1 1.70000E-04  2.65000E+03  0.04542  0.00009  0.00009
   256   1 1.70000E-04  2.65000E+03  0.04560  0.00009  0.00009
   257   1 1.70000E-04  2.65000E+03  0.04578  0.00009  0.00009
   258   1 1.70000E-04  2.65000E+03  0.04596  0.00009  0.00009
   259   1 1.70000E-04  2.65000E+03  0.04614  0.00009  0.00009
   260   1 1.70000E-04  2.65000E+03  0.04632  0.00009  0.00009
   261   1 1.70000E-04  2.65000E+03  0.04650  0.00009  0.00009
   262   1 1.70000E-04  2.65000E+03  0.04667  0.00009  0.00009
   263   1 1.70000E-04  2.65000E+03  0.04685  0.00009  0.00009
   264   1 1.70000E-04  2.65000E+03  0.04703  0.00009  0.00009
   265   1 1.70000E-04  2.65000E+03  0.04721  0.00009  0.00009
   266   1 1.70000E-04  2.65000E+03  0.04739  0.00009  0.00009
   267   1 1.70000E-04  2.65000E+03  0.04757  0.00009  0.00009
   268   1 1.70000E-04  2.65000E+03  0.04774  0.00009  0.00009
   269   1 1.70000E-04  2.65000E+03  0.04792  0.00009  0.00009
   270   1 1.70000E-04  2.65000E+03  0.04810  0.00009  0.00009
   271   1 1.70000E-04  2.65000E+03  0.04828  0.00009  0.00009
   272   1 1.70000E-04  2.65000E+03  0.04846  0.00009  0.00009
   273   1 1.70000E-04  2.65000E+03  0.04864  0.00009  0.00009
   274   1 1.70000E-04  2.65000E+03  0.04882  0.00009  0.00009
   275   1 1.70000E-04  2.65000E+03  0.04899  0.00009  0.00009
   276   1 1.70000E-04  2.65000E+03  0.04917  0.00009  0.00009
   277   1 1.70000E-04  2.65000E+03  0.04935  0.00009  0.00009
   278   1 1.70000E-04  2.65000E+03  0.04953  0.00009  0.00009
   279   1 1.70000E-04  2.65000E+03  0.04971  0.00009  0.00009
   280   1 1.70000E-04  2.65000E+03  0.04989  0.00009  0.00009
   281   1 1.70000E-04  2.65000E+03  0.00009  0.00026  0.00009
   282   1 1.70000E-04  2.65000E+03  0.00026  0.00026  0.00009
   283   1 1.70000E-04  2.65000E+03  0.00044  0.00026  0.00009
   284   1 1.70000E-04  2.65000E+03  0.00062  0.00026  0.00009
   285   1 1.70000E-04  2.65000E+03  0.00080  0.00026  0.00009
   286   1 1.70000E-04  2.65000E+03  0.00098  0.00026  0.00009
   287   1 1.70000E-04  2.65000E+03  0.00116  0.00026  0.00009
   288   1 1.70000E-04  2.65000E+03  0.00133  0.00026  0.00009
   289   1 1.70000E-04  2.65000E+03  0.00151  0.00026  0.00009
   290   1 1.70000E-04  2.65000E+03  0.00169  0.00026  0.00009
   291   1 1.70000E-04  2.65000E+03  0.00187  0.00026  0.00009
   292   1 1.70000E-04  2.65000E+03  0.00205  0.00026  0.00009
   293   1 1.70000E-04  2.65000E+03  0.00223  0.00026  0.00009
   294   1 1.70000E-04  2.65000E+03  0.00241  0.00026  0.00009
   295   1 1.70000E-04  2.65000E+03  0.00258  0.00026  0.00009
   296   1 1.70000E-04  2.65000E+03  0.00276  0.00026  0.00009
   297   1 1.70000E-04  2.65000E+03  0.00294  0.00026  0.00009
   298   1 1.70000E-04  2.65000E+03  0.00312  0.00026  0.00009
   299   1 1.70000E-04  2.65000E+03  0.00330  0.00026  0.00009
   300   1 1.70000E-04  2.65000E+03  0.00348  0.00026  0.00009
   301   1 1.70000E-04  2.65000E+03  0.00366  0.00026  0.00009
   302   1 1.70000E-04  2.65000E+03  0.00383  0.00026  0.00009
   303   1 1.70000E-04  2.65000E+03  0.00401  0.00026  0.00009
   304   1 1.70000E-04  2.65000E+03  0.00419  0.00026  0.00009
   305   1 1.70000E-04  2.65000E+03  0.00437  0.00026  0.00009
   306   1 1.70000E-04  2.65000E+03  0.00455  0.00026  0.00009
   307   1 1.70000E-04  2.65000E+03  0.00473  0.00026  0.00009
   308   1 1.70000E-04  2.65000E+03  0.00490  0.00026  0.00009
   309   1 1.70000E-04  2.65000E+03  0.00508  0.00026  0.00009
   310   1 1.70000E-04  2.65000E+03  0.00526  0.00026  0.00009
   311   1 1.70000E-04  2.65000E+03  0.00544  0.00026  0.00009
   312   1 1.70000E-04  2.65000E+03  0.00562  0.00026  0.00009
   313   1 1.70000E-04  2.65000E+03  0.00580  0.00026  0.00009
   314   1 1.70000E-04  2.65000E+03  0.00598  0.00026  0.00009
   315   1 1.70000E-04  2.65000E+03  0.00615  0.00026  0.00009
   316   1 1.70000E-04  2.65000E+03  0.00633  0.00026  0.00009
   317   1 1.70000E-04  2.65000E+03  0.00651  0.00026  0.00009
   318   1 1.70000E-04  2.65000E+03  0.00669  0.00026  0.00009
   319   1 1.70000E-04  2.65000E+03  0.00687  0.00026  0.00009
   320   1 1.70000E-04  2.65000E+03  0.00705  0.00026  0.00009
   321   1 1.70000E-04  2.65000E+03  0.00723  0.00026  0.00009
   322   1 1.70000E-04  2.65000E+03  0.00740  0.00026  0.00009
   323   1 1.70000E-04  2.65000E+03  0.00758  0.00026  0.00009
   324   1 1.70000E-04  2.65000E+03  0.00776  0.00026  0.00009
   325   1 1.70000E-04  2.65000E+03  0.00794  0.00026  0.00009
   326   1 1.70000E-04  2.65000E+03  0.00812  0.00026  0.00009
   327   1 1.70000E-04  2.65000E+03  0.00830  0.00026  0.00009
   328   1 1.70000E-04  2.65000E+03  0.00847  0.00026  0.00009
   329   1 1.70000E-04  2.65000E+03  0.00865  0.00026  0.00009
   330   1 1.70000E-04  2.65000E+03  0.00883  0.00026  0.00009
   331   1 1.70000E-04  2.65000E+03  0.00901  0.00026  0.00009
   332   1 1.70000E-04  2.65000E+03  0.00919  0.00026  0.00009
   333   1 1.70000E-04  2.65000E+03  0.00937  0.00026  0.00009
   334   1 1.70000E-04  2.65000E+03  0.00955  0.00026  0.00009
   335   1 1.70000E-04  2.65000E+03  0.00972  0.00026  0.00009
   336   1 1.70000E-04  2.65000E+03  0.00990  0.00026  0.00009
   337   1 1.70000E-04  2.65000E+03  0.01008  0.00026  0.00009
   338   1 1.70000E-04  2.65000E+03  0.01026  0.00026  0.00009
   339   1 1.70000E-04  2.65000E+03  0.01044  0.00026  0.00009
   340   1 1.70000E-04  2.65000E+03  0.01062  0.00026  0.00009
   341   1 1.70000E-04  2.65000E+03  0.01080  0.00026  0.00009
   342   1 1.70000E-04  2.65000E+03  0.01097  0.00026  0.00009
   343   1 1.70000E-04  2.65000E+03  0.01115  0.00026  0.00009
   344   1 1.70000E-04  2.65000E+03  0.01133  0.00026  0.00009
   345   1 1.70000E-04  2.65000E+03  0.01151  0.00026  0.00009
   346   1 1.70000E-04  2.65000E+03  0.01169  0.00026  0.00009
   347   1 1.70000E-04  2.65000E+03  0.01187  0.00026  0.00009
   348   1 1.70000E-04  2.65000E+03  0.01204  0.00026  0.00009
   349   1 1.70000E-04  2.65000E+03  0.01222  0.00026  0.00009
   350   1 1.70000E-04  2.65000E+03  0.01240  0.00026  0.00009
   351   1 1.70000E-04  2.65000E+03  0.01258  0.00026  0.00009
   352   1 1.70000E-04  2.65000E+03  0.01276  0.00026  0.00009
   353   1 1.70000E-04  2.65000E+03  0.01294  0.00026  0.00009
   354   1 1.70000E-04  2.65000E+03  0.01312  0.00026  0.00009
   355   1 1.70000E-04  2.65000E+03  0.01329  0.00026  0.00009
   356   1 1.70000E-04  2.65000E+03  0.01347  0.00026  0.00009
   357   1 1.70000E-04  2.65000E+03  0.01365  0.00026  0.00009
   358   1 1.70000E-04  2.65000E+03  0.01383  0.00026  0.00009
   359   1 1.70000E-04  2.65000E+03  0.01401  0.00026  0.00009
   360   1 1.70000E-04  2.65000E+03  0.01419  0.00026  0.00009
   361   1 1.70000E-04  2.65000E+03  0.01437  0.00026  0.00009
   362   1 1.70000E-04  2.65000E+03  0.01454  0.00026  0.00009
   363   1 1.70000E-04  2.65000E+03  0.01472  0.00026  0.00009
   364   1 1.70000E-04  2.65000E+03  0.01490  0.00026  0.00009
   365   1 1.70000E-04  2.65000E+03  0.01508  0.00026  0.00009
   366   1 1.70000E-04  2.65000E+03  0.01526  0.00026  0.00009
   367   1 1.70000E-04  2.65000E+03  0.01544  0.00026  0.00009
   368   1 1.70000E-04  2.65000E+03  0.01561  0.00026  0.00009
   369   1 1.70000E-04  2.65000E+03  0.01579  0.00026  0.00009
   370   1 1.70000E-04  2.65000E+03  0.01597  0.00026  0.00009
   371   1 1.70000E-04  2.65000E+03  0.01615  0.00026  0.00009
   372   1 1.70000E-04  2.65000E+03  0.01633  0.00026  0.00009
   373   1 1.70000E-04  2.65000E+03  0.01651  0.00026  0.00009
   374   1 1.70000E-04  2.65000E+03  0.01669  0.00026  0.00009
   375   1 1.70000E-04  2.65000E+03  0.01686  0.00026  0.00009
   376   1 1.70000E-04  2.65000E+03  0.01704  0.00026  0.00009
   377   1 1.70000E-04  2.65000E+03  0.01722  0.00026  0.00009
   378   1 1.70000E-04  2.65000E+03  0.01740  0.00026  0.00009
   379   1 1.70000E-04  2.65000E+03  0.01758  0.00026  0.00009
   380   1 1.70000E-04  2.65000E+03  0.01776  0.00026  0.00009
   381   1 1.70000E-04  2.65000E+03  0.01793  0.00026  0.00009
   382   1 1.70000E-04  2.65000E+03  0.01811  0.00026  0.00009
   383   1 1.70000E-04  2.65000E+03  0.01829  0.00026  0.00009
   384   1 1.70000E-04  2.65000E+03  0.01847  0.00026  0.00009
   385   1 1.70000E-04  2.65000E+03  0.01865  0.00026  0.00009
   386   1 1.70000E-04  2.65000E+03  0.01883  0.00026  0.00009
   387   1 1.70000E-04  2.65000E+03  0.01901  0.00026  0.00009
   388   1 1.70000E-04  2.65000E+03  0.01918  0.00026  0.00009
   389   1 1.70000E-04  2.65000E+03  0.01936  0.00026  0.00009
   390   1 1.70000E-04  2.65000E+03  0.01954  0.00026  0.00009
   391   1 1.70000E-04  2.65000E+03  0.01972  0.00026  0.00009
   392   1 1.70000E-04  2.65000E+03  0.01990  0.00026  0.00009
   393   1 1.70000E-04  2.65000E+03  0.02008  0.00026  0.00009
   394   1 1.70000E-04  2.65000E+03  0.02026  0.00026  0.00009
   395   1 1.70000E-04  2.65000E+03  0.02043  0.00026  0.00009
   396   1 1.70000E-04  2.65000E+03  0.02061  0.00026  0.00009
   397   1 1.70000E-04  2.65000E+03  0.02079  0.00026  0.00009
   398   1 1.70000E-04  2.65000E+03  0.02097  0.00026  0.00009
   399   1 1.70000E-04  2.65000E+03  0.02115  0.00026  0.00009
   400   1 1.70000E-04  2.65000E+03  0.02133  0.00026  0.00009
   401   1 1.70000E-04  2.65000E+03  0.02151  0.00026  0.00009
   402   1 1.70000E-04  2.65000E+03  0.02168  0.00026  0.00009
   403   1 1.70000E-04  2.65000E+03  0.02186  0.00026  0.00009
   404   1 1.70000E-04  2.65000E+03  0.02204  0.00026  0.00009
   405   1 1.70000E-04  2.65000E+03  0.02222  0.00026  0.00009
   406   1 1.70000E-04  2.65000E+03  0.02240  0.00026  0.00009
   407   1 1.70000E-04  2.65000E+03  0.02258  0.00026  0.00009
   408   1 1.70000E-04  2.65000E+03  0.02275  0.00026  0.00009
   409   1 1.70000E-04  2.65000E+03  0.02293  0.00026  0.00009
   410   1 1.70000E-04  2.65000E+03  0.02311  0.00026  0.00009
   411   1 1.70000E-04  2.65000E+03  0.02329  0.00026  0.00009
   412   1 1.70000E-04  2.65000E+03  0.02347  0.00026  0.00009
   413   1 1.70000E-04  2.65000E+03  0.02365  0.00026  0.00009
   414   1 1.70000E-04  2.65000E+03  0.02383  0.00026  0.00009
   415   1 1.70000E-04  2.65000E+03  0.02400  0.00026  0.00009
   416   1 1.70000E-04  2.65000E+03  0.02418  0.00026  0.00009
   417   1 1.70000E-04  2.65000E+03  0.02436  0.00026  0.00009
   418   1 1.70000E-04  2.65000E+03  0.02454  0.00026  0.00009
   419   1 1.70000E-04  2.65000E+03  0.02472  0.00026  0.00009
   420   1 1.70000E-04  2.65000E+03  0.02490  0.00026  0.00009
   421   1 1.70000E-04  2.65000E+03  0.02508  0.00026  0.00009
   422   1 1.70000E-04  2.65000E+03  0.02525  0.00026  0.00009
   423   1 1.70000E-04  2.65000E+03  0.02543  0.00026  0.00009
   424   1 1.70000E-04  2.65000E+03  0.02561  0.00026  0.00009
   425   1 1.70000E-04  2.65000E+03  0.02579  0.00026  0.00009
   426   1 1.70000E-04  2.65000E+03  0.02597  0.00026  0.00009
   427   1 1.70000E-04  2.65000E+03  0.02615  0.00026  0.00009
   428   1 1.70000E-04  2.65000E+03  0.02632  0.00026  0.00009
   429   1 1.70000E-04  2.65000E+03  0.02650  0.00026  0.00009
   430   1 1.70000E-04  2.65000E+03  0.02668  0.00026  0.00009
   431   1 1.70000E-04  2.65000E+03  0.02686  0.00026  0.00009
   432   1 1.70000E-04  2.65000E+03  0.02704  0.00026  0.00009
   433   1 1.70000E-04  2.65000E+03  0.02722  0.00026  0.00009
   434   1 1.70000E-04  2.65000E+03  0.02740  0.00026  0.00009
   435   1 1.70000E-04  2.65000E+03  0.02757  0.00026  0.00009
   436   1 1.70000E-04  2.65000E+03  0.02775  0.00026  0.00009
   437   1 1.70000E-04  2.65000E+03  0.02793  0.00026  0.00009
   438   1 1.70000E-04  2.65000E+03  0.02811  0.00026  0.00009
   439   1 1.70000E-04  2.65000E+03  0.02829  0.00026  0.00009
   440   1 1.70000E-04  2.65000E+03  0.02847  0.00026  0.00009
   441   1 1.70000E-04  2.65000E+03  0.02865  0.00026  0.00009
   442   1 1.70000E-04  2.65000E+03  0.02882  0.00026  0.00009
   443   1 1.70000E-04  2.65000E+03  0.02900  0.00026  0.00009
   444   1 1.70000E-04  2.65000E+03  0.02918  0.00026  0.00009
   445   1 1.70000E-04  2.65000E+03  0.02936  0.00026  0.00009
   446   1 1.70000E-04  2.65000E+03  0.02954  0.00026  0.00009
   447   1 1.70000E-04  2.65000E+03  0.02972  0.00026  0.00009
   448   1 1.70000E-04  2.65000E+03  0.02989  0.00026  0.00009
   449   1 1.70000E-04  2.65000E+03  0.03007  0.00026  0.00009
   450   1 1.70000E-04  2.65000E+03  0.03025  0.00026  0.00009
   451   1 1.70000E-04  2.65000E+03  0.03043  0.00026  0.00009
   452   1 1.70000E-04  2.65000E+03  0.03061  0.00026  0.00009
   453   1 1.70000E-04  2.65000E+03  0.03079  0.00026  0.00009
   454   1 1.70000E-04  2.65000E+03  0.03097  0.00026  0.00009
   455   1 1.70000E-04  2.65000E+03  0.03114  0.00026  0.00009
   456   1 1.70000E-04  2.65000E+03  0.03132  0.00026  0.00009
   457   1 1.70000E-04  2.65000E+03  0.03150  0.00026  0.00009
   458   1 1.70000E-04  2.65000E+03  0.03168  0.00026  0.00009
   459   1 1.70000E-04  2.65000E+03  0.03186  0.00026  0.00009
   460   1 1.70000E-04  2.65000E+03  0.03204  0.00026  0.00009
   461   1 1.70000E-04  2.65000E+03  0.03222  0.00026  0.00009
   462   1 1.70000E-04  2.65000E+03  0.03239  0.00026  0.00009
   463   1 1.70000E-04  2.65000E+03  0.03257  0.00026  0.00009
   464   1 1.70000E-04  2.65000E+03  0.03275  0.00026  0.00009
   465   1 1.70000E-04  2.65000E+03  0.03293  0.00026  0.00009
   466   1 1.70000E-04  2.65000E+03  0.03311  0.00026  0.00009
   467   1 1.70000E-04  2.65000E+03  0.03329  0.00026  0.00009
   468   1 1.70000E-04  2.65000E+03  0.03346  0.00026  0.00009
   469   1 1.70000E-04  2.65000E+03  0.03364  0.00026  0.00009
   470   1 1.70000E-04  2.65000E+03  0.03382  0.00026  0.00009
   471   1 1.70000E-04  2.65000E+03  0.03400  0.00026  0.00009
   472   1 1.70000E-04  2.65000E+03  0.03418  0.00026  0.00009
   473   1 1.70000E-04  2.65000E+03  0.03436  0.00026  0.00009