 Granular Flow simulation

         100  atoms
           1  atom types

   0.000000     0.050000  xlo xhi
   0.000000     0.020000  ylo yhi
   0.000000     0.010000  zlo zhi

 Atoms

     1   1 1.70000E-04  2.65000E+03  0.00009  0.00009  0.00009
     2   1 1.70000E-04  2.65000E+03  0.00026  0.00009  0.00009
     3   1 1.70000E-04  2.65000E+03  0.00044  0.00009  0.00009
     4   1 1.70000E-04  2.65000E+03  0.00062  0.00009  0.00009
     5   1 1.70000E-04  2.65000E+03  0.00080  0.00009  0.00009
     6   1 1.70000E-04  2.65000E+03  0.00098  0.00009  0.00009
     7   1 1.70000E-04  2.65000E+03  0.00116  0.00009  0.00009
     8   1 1.70000E-04  2.65000E+03  0.00133  0.00009  0.00009
     9   1 1.70000E-04  2.65000E+03  0.00151  0.00009  0.00009
    10   1 1.70000E-04  2.65000E+03  0.00169  0.00009  0.00009
    11   1 1.70000E-04  2.65000E+03  0.00187  0.00009  0.00009
    12   1 1.70000E-04  2.65000E+03  0.00205  0.00009  0.00009
    13   1 1.70000E-04  2.65000E+03  0.00223  0.00009  0.00009
    14   1 1.70000E-04  2.65000E+03  0.00241  0.00009  0.00009
    15   1 1.70000E-04  2.65000E+03  0.00258  0.00009  0.00009
    16   1 1.70000E-04  2.65000E+03  0.00276  0.00009  0.00009
    17   1 1.70000E-04  2.65000E+03  0.00294  0.00009  0.00009
    18   1 1.70000E-04  2.65000E+03  0.00312  0.00009  0.00009
    19   1 1.70000E-04  2.65000E+03  0.00330  0.00009  0.00009
    20   1 1.70000E-04  2.65000E+03  0.00348  0.00009  0.00009
    21   1 1.70000E-04  2.65000E+03  0.00366  0.00009  0.00009
    22   1 1.70000E-04  2.65000E+03  0.00383  0.00009  0.00009
    23   1 1.70000E-04  2.65000E+03  0.00401  0.00009  0.00009
    24   1 1.70000E-04  2.65000E+03  0.00419  0.00009  0.00009
    25   1 1.70000E-04  2.65000E+03  0.00437  0.00009  0.00009
    26   1 1.70000E-04  2.65000E+03  0.00455  0.00009  0.00009
    27   1 1.70000E-04  2.65000E+03  0.00473  0.00009  0.00009
    28   1 1.70000E-04  2.65000E+03  0.00490  0.00009  0.00009
    29   1 1.70000E-04  2.65000E+03  0.00508  0.00009  0.00009
    30   1 1.70000E-04  2.65000E+03  0.00526  0.00009  0.00009
    31   1 1.70000E-04  2.65000E+03  0.00544  0.00009  0.00009
    32   1 1.70000E-04  2.65000E+03  0.00562  0.00009  0.00009
    33   1 1.70000E-04  2.65000E+03  0.00580  0.00009  0.00009
    34   1 1.70000E-04  2.65000E+03  0.00598  0.00009  0.00009
    35   1 1.70000E-04  2.65000E+03  0.00615  0.00009  0.00009
    36   1 1.70000E-04  2.65000E+03  0.00633  0.00009  0.00009
    37   1 1.70000E-04  2.65000E+03  0.00651  0.00009  0.00009
    38   1 1.70000E-04  2.65000E+03  0.00669  0.00009  0.00009
    39   1 1.70000E-04  2.65000E+03  0.00687  0.00009  0.00009
    40   1 1.70000E-04  2.65000E+03  0.00705  0.00009  0.00009
    41   1 1.70000E-04  2.65000E+03  0.00723  0.00009  0.00009
    42   1 1.70000E-04  2.65000E+03  0.00740  0.00009  0.00009
    43   1 1.70000E-04  2.65000E+03  0.00758  0.00009  0.00009
    44   1 1.70000E-04  2.65000E+03  0.00776  0.00009  0.00009
    45   1 1.70000E-04  2.65000E+03  0.00794  0.00009  0.00009
    46   1 1.70000E-04  2.65000E+03  0.00812  0.00009  0.00009
    47   1 1.70000E-04  2.65000E+03  0.00830  0.00009  0.00009
    48   1 1.70000E-04  2.65000E+03  0.00847  0.00009  0.00009
    49   1 1.70000E-04  2.65000E+03  0.00865  0.00009  0.00009
    50   1 1.70000E-04  2.65000E+03  0.00883  0.00009  0.00009
    51   1 1.70000E-04  2.65000E+03  0.00901  0.00009  0.00009
    52   1 1.70000E-04  2.65000E+03  0.00919  0.00009  0.00009
    53   1 1.70000E-04  2.65000E+03  0.00937  0.00009  0.00009
    54   1 1.70000E-04  2.65000E+03  0.00955  0.00009  0.00009
    55   1 1.70000E-04  2.65000E+03  0.00972  0.00009  0.00009
    56   1 1.70000E-04  2.65000E+03  0.00990  0.00009  0.00009
    57   1 1.70000E-04  2.65000E+03  0.01008  0.00009  0.00009
    58   1 1.70000E-04  2.65000E+03  0.01026  0.00009  0.00009
    59   1 1.70000E-04  2.65000E+03  0.01044  0.00009  0.00009
    60   1 1.70000E-04  2.65000E+03  0.01062  0.00009  0.00009
    61   1 1.70000E-04  2.65000E+03  0.01080  0.00009  0.00009
    62   1 1.70000E-04  2.65000E+03  0.01097  0.00009  0.00009
    63   1 1.70000E-04  2.65000E+03  0.01115  0.00009  0.00009
    64   1 1.70000E-04  2.65000E+03  0.01133  0.00009  0.00009
    65   1 1.70000E-04  2.65000E+03  0.01151  0.00009  0.00009
    66   1 1.70000E-04  2.65000E+03  0.01169  0.00009  0.00009
    67   1 1.70000E-04  2.65000E+03  0.01187  0.00009  0.00009
    68   1 1.70000E-04  2.65000E+03  0.01204  0.00009  0.00009
    69   1 1.70000E-04  2.65000E+03  0.01222  0.00009  0.00009
    70   1 1.70000E-04  2.65000E+03  0.01240  0.00009  0.00009
    71   1 1.70000E-04  2.65000E+03  0.01258  0.00009  0.00009
    72   1 1.70000E-04  2.65000E+03  0.01276  0.00009  0.00009
    73   1 1.70000E-04  2.65000E+03  0.01294  0.00009  0.00009
    74   1 1.70000E-04  2.65000E+03  0.01312  0.00009  0.00009
    75   1 1.70000E-04  2.65000E+03  0.01329  0.00009  0.00009
    76   1 1.70000E-04  2.65000E+03  0.01347  0.00009  0.00009
    77   1 1.70000E-04  2.65000E+03  0.01365  0.00009  0.00009
    78   1 1.70000E-04  2.65000E+03  0.01383  0.00009  0.00009
    79   1 1.70000E-04  2.65000E+03  0.01401  0.00009  0.00009
    80   1 1.70000E-04  2.65000E+03  0.01419  0.00009  0.00009
    81   1 1.70000E-04  2.65000E+03  0.01437  0.00009  0.00009
    82   1 1.70000E-04  2.65000E+03  0.01454  0.00009  0.00009
    83   1 1.70000E-04  2.65000E+03  0.01472  0.00009  0.00009
    84   1 1.70000E-04  2.65000E+03  0.01490  0.00009  0.00009
    85   1 1.70000E-04  2.65000E+03  0.01508  0.00009  0.00009
    86   1 1.70000E-04  2.65000E+03  0.01526  0.00009  0.00009
    87   1 1.70000E-04  2.65000E+03  0.01544  0.00009  0.00009
    88   1 1.70000E-04  2.65000E+03  0.01561  0.00009  0.00009
    89   1 1.70000E-04  2.65000E+03  0.01579  0.00009  0.00009
    90   1 1.70000E-04  2.65000E+03  0.01597  0.00009  0.00009
    91   1 1.70000E-04  2.65000E+03  0.01615  0.00009  0.00009
    92   1 1.70000E-04  2.65000E+03  0.01633  0.00009  0.00009
    93   1 1.70000E-04  2.65000E+03  0.01651  0.00009  0.00009
    94   1 1.70000E-04  2.65000E+03  0.01669  0.00009  0.00009
    95   1 1.70000E-04  2.65000E+03  0.01686  0.00009  0.00009
    96   1 1.70000E-04  2.65000E+03  0.01704  0.00009  0.00009
    97   1 1.70000E-04  2.65000E+03  0.01722  0.00009  0.00009
    98   1 1.70000E-04  2.65000E+03  0.01740  0.00009  0.00009
    99   1 1.70000E-04  2.65000E+03  0.01758  0.00009  0.00009
   100   1 1.70000E-04  2.65000E+03  0.01776  0.00009  0.00009
