 Granular Flow simulation

           1  atoms
           1  atom types

   0.000000      1.000000  xlo xhi
   0.000000      0.200000  ylo yhi
   0.000000      0.100000  zlo zhi

 Atoms

     1   1 1.70000E-04  2.65000E+03  0.50000  0.10000  2.50000E-04

