 #Model for sand particles

 Granular Flow simulation

        5000  atoms
           1  atom types

   0.000000     0.050000  xlo xhi
   0.000000     0.020000  ylo yhi
   0.000000     0.010000  zlo zhi

 Atoms

     1   1 1.70000E-04  2.65000E+03  0.000085  0.000085  0.000085
     2   1 1.70000E-04  2.65000E+03  0.000255  0.000085  0.000085
     3   1 1.70000E-04  2.65000E+03  0.000425  0.000085  0.000085
     4   1 1.70000E-04  2.65000E+03  0.000595  0.000085  0.000085
     5   1 1.70000E-04  2.65000E+03  0.000765  0.000085  0.000085
     6   1 1.70000E-04  2.65000E+03  0.000935  0.000085  0.000085
     7   1 1.70000E-04  2.65000E+03  0.001105  0.000085  0.000085
     8   1 1.70000E-04  2.65000E+03  0.001275  0.000085  0.000085
     9   1 1.70000E-04  2.65000E+03  0.001445  0.000085  0.000085
    10   1 1.70000E-04  2.65000E+03  0.001615  0.000085  0.000085
    11   1 1.70000E-04  2.65000E+03  0.001785  0.000085  0.000085
    12   1 1.70000E-04  2.65000E+03  0.001955  0.000085  0.000085
    13   1 1.70000E-04  2.65000E+03  0.002125  0.000085  0.000085
    14   1 1.70000E-04  2.65000E+03  0.002295  0.000085  0.000085
    15   1 1.70000E-04  2.65000E+03  0.002465  0.000085  0.000085
    16   1 1.70000E-04  2.65000E+03  0.002635  0.000085  0.000085
    17   1 1.70000E-04  2.65000E+03  0.002805  0.000085  0.000085
    18   1 1.70000E-04  2.65000E+03  0.002975  0.000085  0.000085
    19   1 1.70000E-04  2.65000E+03  0.003145  0.000085  0.000085
    20   1 1.70000E-04  2.65000E+03  0.003315  0.000085  0.000085
    21   1 1.70000E-04  2.65000E+03  0.003485  0.000085  0.000085
    22   1 1.70000E-04  2.65000E+03  0.003655  0.000085  0.000085
    23   1 1.70000E-04  2.65000E+03  0.003825  0.000085  0.000085
    24   1 1.70000E-04  2.65000E+03  0.003995  0.000085  0.000085
    25   1 1.70000E-04  2.65000E+03  0.004165  0.000085  0.000085
    26   1 1.70000E-04  2.65000E+03  0.004335  0.000085  0.000085
    27   1 1.70000E-04  2.65000E+03  0.004505  0.000085  0.000085
    28   1 1.70000E-04  2.65000E+03  0.004675  0.000085  0.000085
    29   1 1.70000E-04  2.65000E+03  0.004845  0.000085  0.000085
    30   1 1.70000E-04  2.65000E+03  0.005015  0.000085  0.000085
    31   1 1.70000E-04  2.65000E+03  0.005185  0.000085  0.000085
    32   1 1.70000E-04  2.65000E+03  0.005355  0.000085  0.000085
    33   1 1.70000E-04  2.65000E+03  0.005525  0.000085  0.000085
    34   1 1.70000E-04  2.65000E+03  0.005695  0.000085  0.000085
    35   1 1.70000E-04  2.65000E+03  0.005865  0.000085  0.000085
    36   1 1.70000E-04  2.65000E+03  0.006035  0.000085  0.000085
    37   1 1.70000E-04  2.65000E+03  0.006205  0.000085  0.000085
    38   1 1.70000E-04  2.65000E+03  0.006375  0.000085  0.000085
    39   1 1.70000E-04  2.65000E+03  0.006545  0.000085  0.000085
    40   1 1.70000E-04  2.65000E+03  0.006715  0.000085  0.000085
    41   1 1.70000E-04  2.65000E+03  0.006885  0.000085  0.000085
    42   1 1.70000E-04  2.65000E+03  0.007055  0.000085  0.000085
    43   1 1.70000E-04  2.65000E+03  0.007225  0.000085  0.000085
    44   1 1.70000E-04  2.65000E+03  0.007395  0.000085  0.000085
    45   1 1.70000E-04  2.65000E+03  0.007565  0.000085  0.000085
    46   1 1.70000E-04  2.65000E+03  0.007735  0.000085  0.000085
    47   1 1.70000E-04  2.65000E+03  0.007905  0.000085  0.000085
    48   1 1.70000E-04  2.65000E+03  0.008075  0.000085  0.000085
    49   1 1.70000E-04  2.65000E+03  0.008245  0.000085  0.000085
    50   1 1.70000E-04  2.65000E+03  0.008415  0.000085  0.000085
    51   1 1.70000E-04  2.65000E+03  0.008585  0.000085  0.000085
    52   1 1.70000E-04  2.65000E+03  0.008755  0.000085  0.000085
    53   1 1.70000E-04  2.65000E+03  0.008925  0.000085  0.000085
    54   1 1.70000E-04  2.65000E+03  0.009095  0.000085  0.000085
    55   1 1.70000E-04  2.65000E+03  0.009265  0.000085  0.000085
    56   1 1.70000E-04  2.65000E+03  0.009435  0.000085  0.000085
    57   1 1.70000E-04  2.65000E+03  0.009605  0.000085  0.000085
    58   1 1.70000E-04  2.65000E+03  0.009775  0.000085  0.000085
    59   1 1.70000E-04  2.65000E+03  0.009945  0.000085  0.000085
    60   1 1.70000E-04  2.65000E+03  0.010115  0.000085  0.000085
    61   1 1.70000E-04  2.65000E+03  0.010285  0.000085  0.000085
    62   1 1.70000E-04  2.65000E+03  0.010455  0.000085  0.000085
    63   1 1.70000E-04  2.65000E+03  0.010625  0.000085  0.000085
    64   1 1.70000E-04  2.65000E+03  0.010795  0.000085  0.000085
    65   1 1.70000E-04  2.65000E+03  0.010965  0.000085  0.000085
    66   1 1.70000E-04  2.65000E+03  0.011135  0.000085  0.000085
    67   1 1.70000E-04  2.65000E+03  0.011305  0.000085  0.000085
    68   1 1.70000E-04  2.65000E+03  0.011475  0.000085  0.000085
    69   1 1.70000E-04  2.65000E+03  0.011645  0.000085  0.000085
    70   1 1.70000E-04  2.65000E+03  0.011815  0.000085  0.000085
    71   1 1.70000E-04  2.65000E+03  0.011985  0.000085  0.000085
    72   1 1.70000E-04  2.65000E+03  0.012155  0.000085  0.000085
    73   1 1.70000E-04  2.65000E+03  0.012325  0.000085  0.000085
    74   1 1.70000E-04  2.65000E+03  0.012495  0.000085  0.000085
    75   1 1.70000E-04  2.65000E+03  0.012665  0.000085  0.000085
    76   1 1.70000E-04  2.65000E+03  0.012835  0.000085  0.000085
    77   1 1.70000E-04  2.65000E+03  0.013005  0.000085  0.000085
    78   1 1.70000E-04  2.65000E+03  0.013175  0.000085  0.000085
    79   1 1.70000E-04  2.65000E+03  0.013345  0.000085  0.000085
    80   1 1.70000E-04  2.65000E+03  0.013515  0.000085  0.000085
    81   1 1.70000E-04  2.65000E+03  0.013685  0.000085  0.000085
    82   1 1.70000E-04  2.65000E+03  0.013855  0.000085  0.000085
    83   1 1.70000E-04  2.65000E+03  0.014025  0.000085  0.000085
    84   1 1.70000E-04  2.65000E+03  0.014195  0.000085  0.000085
    85   1 1.70000E-04  2.65000E+03  0.014365  0.000085  0.000085
    86   1 1.70000E-04  2.65000E+03  0.014535  0.000085  0.000085
    87   1 1.70000E-04  2.65000E+03  0.014705  0.000085  0.000085
    88   1 1.70000E-04  2.65000E+03  0.014875  0.000085  0.000085
    89   1 1.70000E-04  2.65000E+03  0.015045  0.000085  0.000085
    90   1 1.70000E-04  2.65000E+03  0.015215  0.000085  0.000085
    91   1 1.70000E-04  2.65000E+03  0.015385  0.000085  0.000085
    92   1 1.70000E-04  2.65000E+03  0.015555  0.000085  0.000085
    93   1 1.70000E-04  2.65000E+03  0.015725  0.000085  0.000085
    94   1 1.70000E-04  2.65000E+03  0.015895  0.000085  0.000085
    95   1 1.70000E-04  2.65000E+03  0.016065  0.000085  0.000085
    96   1 1.70000E-04  2.65000E+03  0.016235  0.000085  0.000085
    97   1 1.70000E-04  2.65000E+03  0.016405  0.000085  0.000085
    98   1 1.70000E-04  2.65000E+03  0.016575  0.000085  0.000085
    99   1 1.70000E-04  2.65000E+03  0.016745  0.000085  0.000085
   100   1 1.70000E-04  2.65000E+03  0.016915  0.000085  0.000085
   101   1 1.70000E-04  2.65000E+03  0.017085  0.000085  0.000085
   102   1 1.70000E-04  2.65000E+03  0.017255  0.000085  0.000085
   103   1 1.70000E-04  2.65000E+03  0.017425  0.000085  0.000085
   104   1 1.70000E-04  2.65000E+03  0.017595  0.000085  0.000085
   105   1 1.70000E-04  2.65000E+03  0.017765  0.000085  0.000085
   106   1 1.70000E-04  2.65000E+03  0.017935  0.000085  0.000085
   107   1 1.70000E-04  2.65000E+03  0.018105  0.000085  0.000085
   108   1 1.70000E-04  2.65000E+03  0.018275  0.000085  0.000085
   109   1 1.70000E-04  2.65000E+03  0.018445  0.000085  0.000085
   110   1 1.70000E-04  2.65000E+03  0.018615  0.000085  0.000085
   111   1 1.70000E-04  2.65000E+03  0.018785  0.000085  0.000085
   112   1 1.70000E-04  2.65000E+03  0.018955  0.000085  0.000085
   113   1 1.70000E-04  2.65000E+03  0.019125  0.000085  0.000085
   114   1 1.70000E-04  2.65000E+03  0.019295  0.000085  0.000085
   115   1 1.70000E-04  2.65000E+03  0.019465  0.000085  0.000085
   116   1 1.70000E-04  2.65000E+03  0.019635  0.000085  0.000085
   117   1 1.70000E-04  2.65000E+03  0.019805  0.000085  0.000085
   118   1 1.70000E-04  2.65000E+03  0.019975  0.000085  0.000085
   119   1 1.70000E-04  2.65000E+03  0.020145  0.000085  0.000085
   120   1 1.70000E-04  2.65000E+03  0.020315  0.000085  0.000085
   121   1 1.70000E-04  2.65000E+03  0.020485  0.000085  0.000085
   122   1 1.70000E-04  2.65000E+03  0.020655  0.000085  0.000085
   123   1 1.70000E-04  2.65000E+03  0.020825  0.000085  0.000085
   124   1 1.70000E-04  2.65000E+03  0.020995  0.000085  0.000085
   125   1 1.70000E-04  2.65000E+03  0.021165  0.000085  0.000085
   126   1 1.70000E-04  2.65000E+03  0.021335  0.000085  0.000085
   127   1 1.70000E-04  2.65000E+03  0.021505  0.000085  0.000085
   128   1 1.70000E-04  2.65000E+03  0.021675  0.000085  0.000085
   129   1 1.70000E-04  2.65000E+03  0.021845  0.000085  0.000085
   130   1 1.70000E-04  2.65000E+03  0.022015  0.000085  0.000085
   131   1 1.70000E-04  2.65000E+03  0.022185  0.000085  0.000085
   132   1 1.70000E-04  2.65000E+03  0.022355  0.000085  0.000085
   133   1 1.70000E-04  2.65000E+03  0.022525  0.000085  0.000085
   134   1 1.70000E-04  2.65000E+03  0.022695  0.000085  0.000085
   135   1 1.70000E-04  2.65000E+03  0.022865  0.000085  0.000085
   136   1 1.70000E-04  2.65000E+03  0.023035  0.000085  0.000085
   137   1 1.70000E-04  2.65000E+03  0.023205  0.000085  0.000085
   138   1 1.70000E-04  2.65000E+03  0.023375  0.000085  0.000085
   139   1 1.70000E-04  2.65000E+03  0.023545  0.000085  0.000085
   140   1 1.70000E-04  2.65000E+03  0.023715  0.000085  0.000085
   141   1 1.70000E-04  2.65000E+03  0.023885  0.000085  0.000085
   142   1 1.70000E-04  2.65000E+03  0.024055  0.000085  0.000085
   143   1 1.70000E-04  2.65000E+03  0.024225  0.000085  0.000085
   144   1 1.70000E-04  2.65000E+03  0.024395  0.000085  0.000085
   145   1 1.70000E-04  2.65000E+03  0.024565  0.000085  0.000085
   146   1 1.70000E-04  2.65000E+03  0.024735  0.000085  0.000085
   147   1 1.70000E-04  2.65000E+03  0.024905  0.000085  0.000085
   148   1 1.70000E-04  2.65000E+03  0.025075  0.000085  0.000085
   149   1 1.70000E-04  2.65000E+03  0.025245  0.000085  0.000085
   150   1 1.70000E-04  2.65000E+03  0.025415  0.000085  0.000085
   151   1 1.70000E-04  2.65000E+03  0.025585  0.000085  0.000085
   152   1 1.70000E-04  2.65000E+03  0.025755  0.000085  0.000085
   153   1 1.70000E-04  2.65000E+03  0.025925  0.000085  0.000085
   154   1 1.70000E-04  2.65000E+03  0.026095  0.000085  0.000085
   155   1 1.70000E-04  2.65000E+03  0.026265  0.000085  0.000085
   156   1 1.70000E-04  2.65000E+03  0.026435  0.000085  0.000085
   157   1 1.70000E-04  2.65000E+03  0.026605  0.000085  0.000085
   158   1 1.70000E-04  2.65000E+03  0.026775  0.000085  0.000085
   159   1 1.70000E-04  2.65000E+03  0.026945  0.000085  0.000085
   160   1 1.70000E-04  2.65000E+03  0.027115  0.000085  0.000085
   161   1 1.70000E-04  2.65000E+03  0.027285  0.000085  0.000085
   162   1 1.70000E-04  2.65000E+03  0.027455  0.000085  0.000085
   163   1 1.70000E-04  2.65000E+03  0.027625  0.000085  0.000085
   164   1 1.70000E-04  2.65000E+03  0.027795  0.000085  0.000085
   165   1 1.70000E-04  2.65000E+03  0.027965  0.000085  0.000085
   166   1 1.70000E-04  2.65000E+03  0.028135  0.000085  0.000085
   167   1 1.70000E-04  2.65000E+03  0.028305  0.000085  0.000085
   168   1 1.70000E-04  2.65000E+03  0.028475  0.000085  0.000085
   169   1 1.70000E-04  2.65000E+03  0.028645  0.000085  0.000085
   170   1 1.70000E-04  2.65000E+03  0.028815  0.000085  0.000085
   171   1 1.70000E-04  2.65000E+03  0.028985  0.000085  0.000085
   172   1 1.70000E-04  2.65000E+03  0.029155  0.000085  0.000085
   173   1 1.70000E-04  2.65000E+03  0.029325  0.000085  0.000085
   174   1 1.70000E-04  2.65000E+03  0.029495  0.000085  0.000085
   175   1 1.70000E-04  2.65000E+03  0.029665  0.000085  0.000085
   176   1 1.70000E-04  2.65000E+03  0.029835  0.000085  0.000085
   177   1 1.70000E-04  2.65000E+03  0.030005  0.000085  0.000085
   178   1 1.70000E-04  2.65000E+03  0.030175  0.000085  0.000085
   179   1 1.70000E-04  2.65000E+03  0.030345  0.000085  0.000085
   180   1 1.70000E-04  2.65000E+03  0.030515  0.000085  0.000085
   181   1 1.70000E-04  2.65000E+03  0.030685  0.000085  0.000085
   182   1 1.70000E-04  2.65000E+03  0.030855  0.000085  0.000085
   183   1 1.70000E-04  2.65000E+03  0.031025  0.000085  0.000085
   184   1 1.70000E-04  2.65000E+03  0.031195  0.000085  0.000085
   185   1 1.70000E-04  2.65000E+03  0.031365  0.000085  0.000085
   186   1 1.70000E-04  2.65000E+03  0.031535  0.000085  0.000085
   187   1 1.70000E-04  2.65000E+03  0.031705  0.000085  0.000085
   188   1 1.70000E-04  2.65000E+03  0.031875  0.000085  0.000085
   189   1 1.70000E-04  2.65000E+03  0.032045  0.000085  0.000085
   190   1 1.70000E-04  2.65000E+03  0.032215  0.000085  0.000085
   191   1 1.70000E-04  2.65000E+03  0.032385  0.000085  0.000085
   192   1 1.70000E-04  2.65000E+03  0.032555  0.000085  0.000085
   193   1 1.70000E-04  2.65000E+03  0.032725  0.000085  0.000085
   194   1 1.70000E-04  2.65000E+03  0.032895  0.000085  0.000085
   195   1 1.70000E-04  2.65000E+03  0.033065  0.000085  0.000085
   196   1 1.70000E-04  2.65000E+03  0.033235  0.000085  0.000085
   197   1 1.70000E-04  2.65000E+03  0.033405  0.000085  0.000085
   198   1 1.70000E-04  2.65000E+03  0.033575  0.000085  0.000085
   199   1 1.70000E-04  2.65000E+03  0.033745  0.000085  0.000085
   200   1 1.70000E-04  2.65000E+03  0.033915  0.000085  0.000085
   201   1 1.70000E-04  2.65000E+03  0.034085  0.000085  0.000085
   202   1 1.70000E-04  2.65000E+03  0.034255  0.000085  0.000085
   203   1 1.70000E-04  2.65000E+03  0.034425  0.000085  0.000085
   204   1 1.70000E-04  2.65000E+03  0.034595  0.000085  0.000085
   205   1 1.70000E-04  2.65000E+03  0.034765  0.000085  0.000085
   206   1 1.70000E-04  2.65000E+03  0.034935  0.000085  0.000085
   207   1 1.70000E-04  2.65000E+03  0.035105  0.000085  0.000085
   208   1 1.70000E-04  2.65000E+03  0.035275  0.000085  0.000085
   209   1 1.70000E-04  2.65000E+03  0.035445  0.000085  0.000085
   210   1 1.70000E-04  2.65000E+03  0.035615  0.000085  0.000085
   211   1 1.70000E-04  2.65000E+03  0.035785  0.000085  0.000085
   212   1 1.70000E-04  2.65000E+03  0.035955  0.000085  0.000085
   213   1 1.70000E-04  2.65000E+03  0.036125  0.000085  0.000085
   214   1 1.70000E-04  2.65000E+03  0.036295  0.000085  0.000085
   215   1 1.70000E-04  2.65000E+03  0.036465  0.000085  0.000085
   216   1 1.70000E-04  2.65000E+03  0.036635  0.000085  0.000085
   217   1 1.70000E-04  2.65000E+03  0.036805  0.000085  0.000085
   218   1 1.70000E-04  2.65000E+03  0.036975  0.000085  0.000085
   219   1 1.70000E-04  2.65000E+03  0.037145  0.000085  0.000085
   220   1 1.70000E-04  2.65000E+03  0.037315  0.000085  0.000085
   221   1 1.70000E-04  2.65000E+03  0.037485  0.000085  0.000085
   222   1 1.70000E-04  2.65000E+03  0.037655  0.000085  0.000085
   223   1 1.70000E-04  2.65000E+03  0.037825  0.000085  0.000085
   224   1 1.70000E-04  2.65000E+03  0.037995  0.000085  0.000085
   225   1 1.70000E-04  2.65000E+03  0.038165  0.000085  0.000085
   226   1 1.70000E-04  2.65000E+03  0.038335  0.000085  0.000085
   227   1 1.70000E-04  2.65000E+03  0.038505  0.000085  0.000085
   228   1 1.70000E-04  2.65000E+03  0.038675  0.000085  0.000085
   229   1 1.70000E-04  2.65000E+03  0.038845  0.000085  0.000085
   230   1 1.70000E-04  2.65000E+03  0.039015  0.000085  0.000085
   231   1 1.70000E-04  2.65000E+03  0.039185  0.000085  0.000085
   232   1 1.70000E-04  2.65000E+03  0.039355  0.000085  0.000085
   233   1 1.70000E-04  2.65000E+03  0.039525  0.000085  0.000085
   234   1 1.70000E-04  2.65000E+03  0.039695  0.000085  0.000085
   235   1 1.70000E-04  2.65000E+03  0.039865  0.000085  0.000085
   236   1 1.70000E-04  2.65000E+03  0.040035  0.000085  0.000085
   237   1 1.70000E-04  2.65000E+03  0.040205  0.000085  0.000085
   238   1 1.70000E-04  2.65000E+03  0.040375  0.000085  0.000085
   239   1 1.70000E-04  2.65000E+03  0.040545  0.000085  0.000085
   240   1 1.70000E-04  2.65000E+03  0.040715  0.000085  0.000085
   241   1 1.70000E-04  2.65000E+03  0.040885  0.000085  0.000085
   242   1 1.70000E-04  2.65000E+03  0.041055  0.000085  0.000085
   243   1 1.70000E-04  2.65000E+03  0.041225  0.000085  0.000085
   244   1 1.70000E-04  2.65000E+03  0.041395  0.000085  0.000085
   245   1 1.70000E-04  2.65000E+03  0.041565  0.000085  0.000085
   246   1 1.70000E-04  2.65000E+03  0.041735  0.000085  0.000085
   247   1 1.70000E-04  2.65000E+03  0.041905  0.000085  0.000085
   248   1 1.70000E-04  2.65000E+03  0.042075  0.000085  0.000085
   249   1 1.70000E-04  2.65000E+03  0.042245  0.000085  0.000085
   250   1 1.70000E-04  2.65000E+03  0.042415  0.000085  0.000085
   251   1 1.70000E-04  2.65000E+03  0.042585  0.000085  0.000085
   252   1 1.70000E-04  2.65000E+03  0.042755  0.000085  0.000085
   253   1 1.70000E-04  2.65000E+03  0.042925  0.000085  0.000085
   254   1 1.70000E-04  2.65000E+03  0.043095  0.000085  0.000085
   255   1 1.70000E-04  2.65000E+03  0.043265  0.000085  0.000085
   256   1 1.70000E-04  2.65000E+03  0.043435  0.000085  0.000085
   257   1 1.70000E-04  2.65000E+03  0.043605  0.000085  0.000085
   258   1 1.70000E-04  2.65000E+03  0.043775  0.000085  0.000085
   259   1 1.70000E-04  2.65000E+03  0.043945  0.000085  0.000085
   260   1 1.70000E-04  2.65000E+03  0.044115  0.000085  0.000085
   261   1 1.70000E-04  2.65000E+03  0.044285  0.000085  0.000085
   262   1 1.70000E-04  2.65000E+03  0.044455  0.000085  0.000085
   263   1 1.70000E-04  2.65000E+03  0.044625  0.000085  0.000085
   264   1 1.70000E-04  2.65000E+03  0.044795  0.000085  0.000085
   265   1 1.70000E-04  2.65000E+03  0.044965  0.000085  0.000085
   266   1 1.70000E-04  2.65000E+03  0.045135  0.000085  0.000085
   267   1 1.70000E-04  2.65000E+03  0.045305  0.000085  0.000085
   268   1 1.70000E-04  2.65000E+03  0.045475  0.000085  0.000085
   269   1 1.70000E-04  2.65000E+03  0.045645  0.000085  0.000085
   270   1 1.70000E-04  2.65000E+03  0.045815  0.000085  0.000085
   271   1 1.70000E-04  2.65000E+03  0.045985  0.000085  0.000085
   272   1 1.70000E-04  2.65000E+03  0.046155  0.000085  0.000085
   273   1 1.70000E-04  2.65000E+03  0.046325  0.000085  0.000085
   274   1 1.70000E-04  2.65000E+03  0.046495  0.000085  0.000085
   275   1 1.70000E-04  2.65000E+03  0.046665  0.000085  0.000085
   276   1 1.70000E-04  2.65000E+03  0.046835  0.000085  0.000085
   277   1 1.70000E-04  2.65000E+03  0.047005  0.000085  0.000085
   278   1 1.70000E-04  2.65000E+03  0.047175  0.000085  0.000085
   279   1 1.70000E-04  2.65000E+03  0.047345  0.000085  0.000085
   280   1 1.70000E-04  2.65000E+03  0.047515  0.000085  0.000085
   281   1 1.70000E-04  2.65000E+03  0.047685  0.000085  0.000085
   282   1 1.70000E-04  2.65000E+03  0.047855  0.000085  0.000085
   283   1 1.70000E-04  2.65000E+03  0.048025  0.000085  0.000085
   284   1 1.70000E-04  2.65000E+03  0.048195  0.000085  0.000085
   285   1 1.70000E-04  2.65000E+03  0.048365  0.000085  0.000085
   286   1 1.70000E-04  2.65000E+03  0.048535  0.000085  0.000085
   287   1 1.70000E-04  2.65000E+03  0.048705  0.000085  0.000085
   288   1 1.70000E-04  2.65000E+03  0.048875  0.000085  0.000085
   289   1 1.70000E-04  2.65000E+03  0.049045  0.000085  0.000085
   290   1 1.70000E-04  2.65000E+03  0.049215  0.000085  0.000085
   291   1 1.70000E-04  2.65000E+03  0.049385  0.000085  0.000085
   292   1 1.70000E-04  2.65000E+03  0.049555  0.000085  0.000085
   293   1 1.70000E-04  2.65000E+03  0.049725  0.000085  0.000085
   294   1 1.70000E-04  2.65000E+03  0.049895  0.000085  0.000085
   295   1 1.70000E-04  2.65000E+03  0.000170  0.000232  0.000085
   296   1 1.70000E-04  2.65000E+03  0.000340  0.000232  0.000085
   297   1 1.70000E-04  2.65000E+03  0.000510  0.000232  0.000085
   298   1 1.70000E-04  2.65000E+03  0.000680  0.000232  0.000085
   299   1 1.70000E-04  2.65000E+03  0.000850  0.000232  0.000085
   300   1 1.70000E-04  2.65000E+03  0.001020  0.000232  0.000085
   301   1 1.70000E-04  2.65000E+03  0.001190  0.000232  0.000085
   302   1 1.70000E-04  2.65000E+03  0.001360  0.000232  0.000085
   303   1 1.70000E-04  2.65000E+03  0.001530  0.000232  0.000085
   304   1 1.70000E-04  2.65000E+03  0.001700  0.000232  0.000085
   305   1 1.70000E-04  2.65000E+03  0.001870  0.000232  0.000085
   306   1 1.70000E-04  2.65000E+03  0.002040  0.000232  0.000085
   307   1 1.70000E-04  2.65000E+03  0.002210  0.000232  0.000085
   308   1 1.70000E-04  2.65000E+03  0.002380  0.000232  0.000085
   309   1 1.70000E-04  2.65000E+03  0.002550  0.000232  0.000085
   310   1 1.70000E-04  2.65000E+03  0.002720  0.000232  0.000085
   311   1 1.70000E-04  2.65000E+03  0.002890  0.000232  0.000085
   312   1 1.70000E-04  2.65000E+03  0.003060  0.000232  0.000085
   313   1 1.70000E-04  2.65000E+03  0.003230  0.000232  0.000085
   314   1 1.70000E-04  2.65000E+03  0.003400  0.000232  0.000085
   315   1 1.70000E-04  2.65000E+03  0.003570  0.000232  0.000085
   316   1 1.70000E-04  2.65000E+03  0.003740  0.000232  0.000085
   317   1 1.70000E-04  2.65000E+03  0.003910  0.000232  0.000085
   318   1 1.70000E-04  2.65000E+03  0.004080  0.000232  0.000085
   319   1 1.70000E-04  2.65000E+03  0.004250  0.000232  0.000085
   320   1 1.70000E-04  2.65000E+03  0.004420  0.000232  0.000085
   321   1 1.70000E-04  2.65000E+03  0.004590  0.000232  0.000085
   322   1 1.70000E-04  2.65000E+03  0.004760  0.000232  0.000085
   323   1 1.70000E-04  2.65000E+03  0.004930  0.000232  0.000085
   324   1 1.70000E-04  2.65000E+03  0.005100  0.000232  0.000085
   325   1 1.70000E-04  2.65000E+03  0.005270  0.000232  0.000085
   326   1 1.70000E-04  2.65000E+03  0.005440  0.000232  0.000085
   327   1 1.70000E-04  2.65000E+03  0.005610  0.000232  0.000085
   328   1 1.70000E-04  2.65000E+03  0.005780  0.000232  0.000085
   329   1 1.70000E-04  2.65000E+03  0.005950  0.000232  0.000085
   330   1 1.70000E-04  2.65000E+03  0.006120  0.000232  0.000085
   331   1 1.70000E-04  2.65000E+03  0.006290  0.000232  0.000085
   332   1 1.70000E-04  2.65000E+03  0.006460  0.000232  0.000085
   333   1 1.70000E-04  2.65000E+03  0.006630  0.000232  0.000085
   334   1 1.70000E-04  2.65000E+03  0.006800  0.000232  0.000085
   335   1 1.70000E-04  2.65000E+03  0.006970  0.000232  0.000085
   336   1 1.70000E-04  2.65000E+03  0.007140  0.000232  0.000085
   337   1 1.70000E-04  2.65000E+03  0.007310  0.000232  0.000085
   338   1 1.70000E-04  2.65000E+03  0.007480  0.000232  0.000085
   339   1 1.70000E-04  2.65000E+03  0.007650  0.000232  0.000085
   340   1 1.70000E-04  2.65000E+03  0.007820  0.000232  0.000085
   341   1 1.70000E-04  2.65000E+03  0.007990  0.000232  0.000085
   342   1 1.70000E-04  2.65000E+03  0.008160  0.000232  0.000085
   343   1 1.70000E-04  2.65000E+03  0.008330  0.000232  0.000085
   344   1 1.70000E-04  2.65000E+03  0.008500  0.000232  0.000085
   345   1 1.70000E-04  2.65000E+03  0.008670  0.000232  0.000085
   346   1 1.70000E-04  2.65000E+03  0.008840  0.000232  0.000085
   347   1 1.70000E-04  2.65000E+03  0.009010  0.000232  0.000085
   348   1 1.70000E-04  2.65000E+03  0.009180  0.000232  0.000085
   349   1 1.70000E-04  2.65000E+03  0.009350  0.000232  0.000085
   350   1 1.70000E-04  2.65000E+03  0.009520  0.000232  0.000085
   351   1 1.70000E-04  2.65000E+03  0.009690  0.000232  0.000085
   352   1 1.70000E-04  2.65000E+03  0.009860  0.000232  0.000085
   353   1 1.70000E-04  2.65000E+03  0.010030  0.000232  0.000085
   354   1 1.70000E-04  2.65000E+03  0.010200  0.000232  0.000085
   355   1 1.70000E-04  2.65000E+03  0.010370  0.000232  0.000085
   356   1 1.70000E-04  2.65000E+03  0.010540  0.000232  0.000085
   357   1 1.70000E-04  2.65000E+03  0.010710  0.000232  0.000085
   358   1 1.70000E-04  2.65000E+03  0.010880  0.000232  0.000085
   359   1 1.70000E-04  2.65000E+03  0.011050  0.000232  0.000085
   360   1 1.70000E-04  2.65000E+03  0.011220  0.000232  0.000085
   361   1 1.70000E-04  2.65000E+03  0.011390  0.000232  0.000085
   362   1 1.70000E-04  2.65000E+03  0.011560  0.000232  0.000085
   363   1 1.70000E-04  2.65000E+03  0.011730  0.000232  0.000085
   364   1 1.70000E-04  2.65000E+03  0.011900  0.000232  0.000085
   365   1 1.70000E-04  2.65000E+03  0.012070  0.000232  0.000085
   366   1 1.70000E-04  2.65000E+03  0.012240  0.000232  0.000085
   367   1 1.70000E-04  2.65000E+03  0.012410  0.000232  0.000085
   368   1 1.70000E-04  2.65000E+03  0.012580  0.000232  0.000085
   369   1 1.70000E-04  2.65000E+03  0.012750  0.000232  0.000085
   370   1 1.70000E-04  2.65000E+03  0.012920  0.000232  0.000085
   371   1 1.70000E-04  2.65000E+03  0.013090  0.000232  0.000085
   372   1 1.70000E-04  2.65000E+03  0.013260  0.000232  0.000085
   373   1 1.70000E-04  2.65000E+03  0.013430  0.000232  0.000085
   374   1 1.70000E-04  2.65000E+03  0.013600  0.000232  0.000085
   375   1 1.70000E-04  2.65000E+03  0.013770  0.000232  0.000085
   376   1 1.70000E-04  2.65000E+03  0.013940  0.000232  0.000085
   377   1 1.70000E-04  2.65000E+03  0.014110  0.000232  0.000085
   378   1 1.70000E-04  2.65000E+03  0.014280  0.000232  0.000085
   379   1 1.70000E-04  2.65000E+03  0.014450  0.000232  0.000085
   380   1 1.70000E-04  2.65000E+03  0.014620  0.000232  0.000085
   381   1 1.70000E-04  2.65000E+03  0.014790  0.000232  0.000085
   382   1 1.70000E-04  2.65000E+03  0.014960  0.000232  0.000085
   383   1 1.70000E-04  2.65000E+03  0.015130  0.000232  0.000085
   384   1 1.70000E-04  2.65000E+03  0.015300  0.000232  0.000085
   385   1 1.70000E-04  2.65000E+03  0.015470  0.000232  0.000085
   386   1 1.70000E-04  2.65000E+03  0.015640  0.000232  0.000085
   387   1 1.70000E-04  2.65000E+03  0.015810  0.000232  0.000085
   388   1 1.70000E-04  2.65000E+03  0.015980  0.000232  0.000085
   389   1 1.70000E-04  2.65000E+03  0.016150  0.000232  0.000085
   390   1 1.70000E-04  2.65000E+03  0.016320  0.000232  0.000085
   391   1 1.70000E-04  2.65000E+03  0.016490  0.000232  0.000085
   392   1 1.70000E-04  2.65000E+03  0.016660  0.000232  0.000085
   393   1 1.70000E-04  2.65000E+03  0.016830  0.000232  0.000085
   394   1 1.70000E-04  2.65000E+03  0.017000  0.000232  0.000085
   395   1 1.70000E-04  2.65000E+03  0.017170  0.000232  0.000085
   396   1 1.70000E-04  2.65000E+03  0.017340  0.000232  0.000085
   397   1 1.70000E-04  2.65000E+03  0.017510  0.000232  0.000085
   398   1 1.70000E-04  2.65000E+03  0.017680  0.000232  0.000085
   399   1 1.70000E-04  2.65000E+03  0.017850  0.000232  0.000085
   400   1 1.70000E-04  2.65000E+03  0.018020  0.000232  0.000085
   401   1 1.70000E-04  2.65000E+03  0.018190  0.000232  0.000085
   402   1 1.70000E-04  2.65000E+03  0.018360  0.000232  0.000085
   403   1 1.70000E-04  2.65000E+03  0.018530  0.000232  0.000085
   404   1 1.70000E-04  2.65000E+03  0.018700  0.000232  0.000085
   405   1 1.70000E-04  2.65000E+03  0.018870  0.000232  0.000085
   406   1 1.70000E-04  2.65000E+03  0.019040  0.000232  0.000085
   407   1 1.70000E-04  2.65000E+03  0.019210  0.000232  0.000085
   408   1 1.70000E-04  2.65000E+03  0.019380  0.000232  0.000085
   409   1 1.70000E-04  2.65000E+03  0.019550  0.000232  0.000085
   410   1 1.70000E-04  2.65000E+03  0.019720  0.000232  0.000085
   411   1 1.70000E-04  2.65000E+03  0.019890  0.000232  0.000085
   412   1 1.70000E-04  2.65000E+03  0.020060  0.000232  0.000085
   413   1 1.70000E-04  2.65000E+03  0.020230  0.000232  0.000085
   414   1 1.70000E-04  2.65000E+03  0.020400  0.000232  0.000085
   415   1 1.70000E-04  2.65000E+03  0.020570  0.000232  0.000085
   416   1 1.70000E-04  2.65000E+03  0.020740  0.000232  0.000085
   417   1 1.70000E-04  2.65000E+03  0.020910  0.000232  0.000085
   418   1 1.70000E-04  2.65000E+03  0.021080  0.000232  0.000085
   419   1 1.70000E-04  2.65000E+03  0.021250  0.000232  0.000085
   420   1 1.70000E-04  2.65000E+03  0.021420  0.000232  0.000085
   421   1 1.70000E-04  2.65000E+03  0.021590  0.000232  0.000085
   422   1 1.70000E-04  2.65000E+03  0.021760  0.000232  0.000085
   423   1 1.70000E-04  2.65000E+03  0.021930  0.000232  0.000085
   424   1 1.70000E-04  2.65000E+03  0.022100  0.000232  0.000085
   425   1 1.70000E-04  2.65000E+03  0.022270  0.000232  0.000085
   426   1 1.70000E-04  2.65000E+03  0.022440  0.000232  0.000085
   427   1 1.70000E-04  2.65000E+03  0.022610  0.000232  0.000085
   428   1 1.70000E-04  2.65000E+03  0.022780  0.000232  0.000085
   429   1 1.70000E-04  2.65000E+03  0.022950  0.000232  0.000085
   430   1 1.70000E-04  2.65000E+03  0.023120  0.000232  0.000085
   431   1 1.70000E-04  2.65000E+03  0.023290  0.000232  0.000085
   432   1 1.70000E-04  2.65000E+03  0.023460  0.000232  0.000085
   433   1 1.70000E-04  2.65000E+03  0.023630  0.000232  0.000085
   434   1 1.70000E-04  2.65000E+03  0.023800  0.000232  0.000085
   435   1 1.70000E-04  2.65000E+03  0.023970  0.000232  0.000085
   436   1 1.70000E-04  2.65000E+03  0.024140  0.000232  0.000085
   437   1 1.70000E-04  2.65000E+03  0.024310  0.000232  0.000085
   438   1 1.70000E-04  2.65000E+03  0.024480  0.000232  0.000085
   439   1 1.70000E-04  2.65000E+03  0.024650  0.000232  0.000085
   440   1 1.70000E-04  2.65000E+03  0.024820  0.000232  0.000085
   441   1 1.70000E-04  2.65000E+03  0.024990  0.000232  0.000085
   442   1 1.70000E-04  2.65000E+03  0.025160  0.000232  0.000085
   443   1 1.70000E-04  2.65000E+03  0.025330  0.000232  0.000085
   444   1 1.70000E-04  2.65000E+03  0.025500  0.000232  0.000085
   445   1 1.70000E-04  2.65000E+03  0.025670  0.000232  0.000085
   446   1 1.70000E-04  2.65000E+03  0.025840  0.000232  0.000085
   447   1 1.70000E-04  2.65000E+03  0.026010  0.000232  0.000085
   448   1 1.70000E-04  2.65000E+03  0.026180  0.000232  0.000085
   449   1 1.70000E-04  2.65000E+03  0.026350  0.000232  0.000085
   450   1 1.70000E-04  2.65000E+03  0.026520  0.000232  0.000085
   451   1 1.70000E-04  2.65000E+03  0.026690  0.000232  0.000085