LAMMPS (1 Feb 2014)
units si

atom_style sphere

atom_modify map array

boundary ff ff ff

newton off

#processors 16 4 2



communicate single vel yes

read_data initial_bed.lammps

ERROR: Unknown identifier in data file: Granular Flow simulation (read_data.cpp:708)
