LAMMPS (1 Feb 2014)
units si

atom_style sphere

atom_modify map array

boundary ff ff ff

newton off

#processors 16 4 2



communicate single vel yes

read_data atoms_26250.in

  orthogonal box = (0 0 0) to (0.05 0.02 0.01)
  8 by 2 by 2 MPI processor grid
  reading atoms ...
  26250 atoms




neighbor 5.0e-4 bin

neigh_modify every 1 delay 0 check yes



pair_style gran/hertz/history 5000.0 50.0 11200.0 50.0 0.5 0

pair_coeff * *

timestep 1e-7



velocity all set 0.0 0.0 0.0 units box



fix 1 all nve/sphere

fix 2 all gravity 9.81 vector 0 0 -1

fix 3 all fdrag



fix xwall all wall/gran 5000.0 NULL 11200 NULL 0.1 0 xplane 0.00 0.05

fix ywall all wall/gran 5000.0 NULL 11200 NULL 0.1 0 yplane 0.00 0.02

fix zwall all wall/gran 5000.0 NULL 11200 NULL 0.1 0 zplane 0.00 0.01



dump id all custom 1000 snapshot.bubblemd id type diameter mass x y z vx vy vz



thermo_style one

thermo 2000

thermo_modify lost ignore



run 0 pre no post no

Memory usage per processor = 17.8195 Mbytes
Step Temp E_pair E_mol TotEng Press 
       0            0            0            0            0 4.9482021e-21 
Loop time of 0.000133574 on 32 procs for 0 steps with 26250 atoms
run 10000 pre no post no

Step Temp E_pair E_mol TotEng Press 
       0            0            0            0            0 4.9482021e-21 
    2000 1.0303165e+09            0            0 5.6009075e-10 3.7348398e-05 
    4000 4.0856254e+09            0            0 2.2209884e-09 0.00014965613 
    6000 9.0171311e+09            0            0 4.9018061e-09 0.00035763501 
    8000 1.5637457e+10            0            0 8.500684e-09 0.00079385409 
   10000 2.3859383e+10            0            0 1.2970208e-08 0.0017782518 
Loop time of 154.646 on 32 procs for 10000 steps with 26250 atoms
run 0 pre no post no
Step Temp E_pair E_mol TotEng Press 
   10000 2.3859383e+10            0            0 1.2970208e-08 0.0017782518 
Loop time of 0.000124261 on 32 procs for 0 steps with 26250 atoms
run 10000 pre no post no
Step Temp E_pair E_mol TotEng Press 
   10000 2.3859383e+10            0            0 1.2970208e-08 0.0017782518 
   12000 7.1505363e+11            0            0 3.8871058e-07  0.029400759 
   14000 2.7502536e+12            0            0 1.4950664e-06   0.11145726 
   16000 6.1064679e+12            0            0 3.3195393e-06   0.24791009 
   18000 1.0756185e+13            0            0 5.8471737e-06   0.44057238 
   20000 1.6672071e+13            0            0 9.0631111e-06     0.689091 
Loop time of 156.177 on 32 procs for 10000 steps with 26250 atoms
run 10000 pre no post no
Step Temp E_pair E_mol TotEng Press 
   20000 1.6672071e+13            0            0 9.0631111e-06     0.689091 
   22000 9.6533154e+16            0            0  0.052476425    3499.8024 
   24000 2.9107547e+17            0            0   0.15823165    10549.867 
   26000 1.885407e+17            0            0   0.10249268    6833.2184 
   28000 8.7776233e+16            0            0  0.047716072    3181.5212 
   30000 5.5446426e+16            0            0  0.030141253    2009.7877 
Loop time of 109.097 on 32 procs for 10000 steps with 10655 atoms
run 10000 pre no post no
Step Temp E_pair E_mol TotEng Press 
   30000 5.5446426e+16            0            0  0.030141253    2009.7877 
   32000 1.5080712e+17            0            0  0.081980317    5465.6775 
   34000 4.1830082e+16            0            0  0.022739267    1516.0707 
   36000 1.623316e+16            0            0 0.0088245146    588.36233 
   38000 1.2189584e+16            0            0 0.0066263847    441.78501 
   40000 8.8395974e+15            0            0 0.0048052969    320.36679 
Loop time of 8.95409 on 32 procs for 10000 steps with 3347 atoms
run 10000 pre no post no
Step Temp E_pair E_mol TotEng Press 
   40000 8.8395974e+15            0            0 0.0048052969    320.36679 
   42000 1.5942456e+16            0            0 0.0086664845    577.77548 
   44000 7.2458291e+15            0            0 0.0039389079    262.59795 
   46000 3.6813456e+15            0            0 0.0020012177    133.41641 
   48000 2.6167089e+15            0            0 0.0014224701    94.831985 
   50000 2.0217227e+15            0            0 0.0010990294    73.269166 
Loop time of 2.55017 on 32 procs for 10000 steps with 672 atoms
run 10000 pre no post no
Step Temp E_pair E_mol TotEng Press 
   50000 2.0217227e+15            0            0 0.0010990294    73.269166 
   52000            0            0            0            0            0 
   54000            0            0            0            0            0 
   56000            0            0            0            0            0 
   58000            0            0            0            0            0 
   60000            0            0            0            0            0 
Loop time of 1.32274 on 32 procs for 10000 steps with 0 atoms
run 10000 pre no post no
Step Temp E_pair E_mol TotEng Press 
   60000            0            0            0            0            0 
   62000            0            0            0            0            0 
   64000            0            0            0            0            0 
   66000            0            0            0            0            0 
   68000            0            0            0            0            0 
   70000            0            0            0            0            0 
Loop time of 1.24185 on 32 procs for 10000 steps with 0 atoms
run 10000 pre no post no
Step Temp E_pair E_mol TotEng Press 
   70000            0            0            0            0            0 
   72000            0            0            0            0            0 
   74000            0            0            0            0            0 
   76000            0            0            0            0            0 
   78000            0            0            0            0            0 
   80000            0            0            0            0            0 
Loop time of 1.24763 on 32 procs for 10000 steps with 0 atoms
