ITEM: TIMESTEP
0
ITEM: NUMBER OF ATOMS
100
ITEM: BOX BOUNDS ff ff ff
0 0.05
0 0.02
0 0.01
ITEM: ATOMS id type diameter mass x y z vx vy vz 
1 1 0.00017 6.81697e-09 9e-05 9e-05 9e-05 0 0 0 
2 1 0.00017 6.81697e-09 0.00026 9e-05 9e-05 0 0 0 
3 1 0.00017 6.81697e-09 0.00044 9e-05 9e-05 0 0 0 
4 1 0.00017 6.81697e-09 0.00062 9e-05 9e-05 0 0 0 
5 1 0.00017 6.81697e-09 0.0008 9e-05 9e-05 0 0 0 
6 1 0.00017 6.81697e-09 0.00098 9e-05 9e-05 0 0 0 
7 1 0.00017 6.81697e-09 0.00116 9e-05 9e-05 0 0 0 
8 1 0.00017 6.81697e-09 0.00133 9e-05 9e-05 0 0 0 
9 1 0.00017 6.81697e-09 0.00151 9e-05 9e-05 0 0 0 
10 1 0.00017 6.81697e-09 0.00169 9e-05 9e-05 0 0 0 
11 1 0.00017 6.81697e-09 0.00187 9e-05 9e-05 0 0 0 
12 1 0.00017 6.81697e-09 0.00205 9e-05 9e-05 0 0 0 
13 1 0.00017 6.81697e-09 0.00223 9e-05 9e-05 0 0 0 
14 1 0.00017 6.81697e-09 0.00241 9e-05 9e-05 0 0 0 
15 1 0.00017 6.81697e-09 0.00258 9e-05 9e-05 0 0 0 
16 1 0.00017 6.81697e-09 0.00276 9e-05 9e-05 0 0 0 
17 1 0.00017 6.81697e-09 0.00294 9e-05 9e-05 0 0 0 
18 1 0.00017 6.81697e-09 0.00312 9e-05 9e-05 0 0 0 
19 1 0.00017 6.81697e-09 0.0033 9e-05 9e-05 0 0 0 
20 1 0.00017 6.81697e-09 0.00348 9e-05 9e-05 0 0 0 
21 1 0.00017 6.81697e-09 0.00366 9e-05 9e-05 0 0 0 
22 1 0.00017 6.81697e-09 0.00383 9e-05 9e-05 0 0 0 
23 1 0.00017 6.81697e-09 0.00401 9e-05 9e-05 0 0 0 
24 1 0.00017 6.81697e-09 0.00419 9e-05 9e-05 0 0 0 
25 1 0.00017 6.81697e-09 0.00437 9e-05 9e-05 0 0 0 
26 1 0.00017 6.81697e-09 0.00455 9e-05 9e-05 0 0 0 
27 1 0.00017 6.81697e-09 0.00473 9e-05 9e-05 0 0 0 
28 1 0.00017 6.81697e-09 0.0049 9e-05 9e-05 0 0 0 
29 1 0.00017 6.81697e-09 0.00508 9e-05 9e-05 0 0 0 
30 1 0.00017 6.81697e-09 0.00526 9e-05 9e-05 0 0 0 
31 1 0.00017 6.81697e-09 0.00544 9e-05 9e-05 0 0 0 
32 1 0.00017 6.81697e-09 0.00562 9e-05 9e-05 0 0 0 
33 1 0.00017 6.81697e-09 0.0058 9e-05 9e-05 0 0 0 
34 1 0.00017 6.81697e-09 0.00598 9e-05 9e-05 0 0 0 
35 1 0.00017 6.81697e-09 0.00615 9e-05 9e-05 0 0 0 
36 1 0.00017 6.81697e-09 0.00633 9e-05 9e-05 0 0 0 
37 1 0.00017 6.81697e-09 0.00651 9e-05 9e-05 0 0 0 
38 1 0.00017 6.81697e-09 0.00669 9e-05 9e-05 0 0 0 
39 1 0.00017 6.81697e-09 0.00687 9e-05 9e-05 0 0 0 
40 1 0.00017 6.81697e-09 0.00705 9e-05 9e-05 0 0 0 
41 1 0.00017 6.81697e-09 0.00723 9e-05 9e-05 0 0 0 
42 1 0.00017 6.81697e-09 0.0074 9e-05 9e-05 0 0 0 
43 1 0.00017 6.81697e-09 0.00758 9e-05 9e-05 0 0 0 
44 1 0.00017 6.81697e-09 0.00776 9e-05 9e-05 0 0 0 
45 1 0.00017 6.81697e-09 0.00794 9e-05 9e-05 0 0 0 
46 1 0.00017 6.81697e-09 0.00812 9e-05 9e-05 0 0 0 
47 1 0.00017 6.81697e-09 0.0083 9e-05 9e-05 0 0 0 
48 1 0.00017 6.81697e-09 0.00847 9e-05 9e-05 0 0 0 
49 1 0.00017 6.81697e-09 0.00865 9e-05 9e-05 0 0 0 
50 1 0.00017 6.81697e-09 0.00883 9e-05 9e-05 0 0 0 
51 1 0.00017 6.81697e-09 0.00901 9e-05 9e-05 0 0 0 
52 1 0.00017 6.81697e-09 0.00919 9e-05 9e-05 0 0 0 
53 1 0.00017 6.81697e-09 0.00937 9e-05 9e-05 0 0 0 
54 1 0.00017 6.81697e-09 0.00955 9e-05 9e-05 0 0 0 
55 1 0.00017 6.81697e-09 0.00972 9e-05 9e-05 0 0 0 
56 1 0.00017 6.81697e-09 0.0099 9e-05 9e-05 0 0 0 
57 1 0.00017 6.81697e-09 0.01008 9e-05 9e-05 0 0 0 
58 1 0.00017 6.81697e-09 0.01026 9e-05 9e-05 0 0 0 
59 1 0.00017 6.81697e-09 0.01044 9e-05 9e-05 0 0 0 
60 1 0.00017 6.81697e-09 0.01062 9e-05 9e-05 0 0 0 
61 1 0.00017 6.81697e-09 0.0108 9e-05 9e-05 0 0 0 
62 1 0.00017 6.81697e-09 0.01097 9e-05 9e-05 0 0 0 
63 1 0.00017 6.81697e-09 0.01115 9e-05 9e-05 0 0 0 
64 1 0.00017 6.81697e-09 0.01133 9e-05 9e-05 0 0 0 
65 1 0.00017 6.81697e-09 0.01151 9e-05 9e-05 0 0 0 
66 1 0.00017 6.81697e-09 0.01169 9e-05 9e-05 0 0 0 
67 1 0.00017 6.81697e-09 0.01187 9e-05 9e-05 0 0 0 
68 1 0.00017 6.81697e-09 0.01204 9e-05 9e-05 0 0 0 
69 1 0.00017 6.81697e-09 0.01222 9e-05 9e-05 0 0 0 
70 1 0.00017 6.81697e-09 0.0124 9e-05 9e-05 0 0 0 
71 1 0.00017 6.81697e-09 0.01258 9e-05 9e-05 0 0 0 
72 1 0.00017 6.81697e-09 0.01276 9e-05 9e-05 0 0 0 
73 1 0.00017 6.81697e-09 0.01294 9e-05 9e-05 0 0 0 
74 1 0.00017 6.81697e-09 0.01312 9e-05 9e-05 0 0 0 
75 1 0.00017 6.81697e-09 0.01329 9e-05 9e-05 0 0 0 
76 1 0.00017 6.81697e-09 0.01347 9e-05 9e-05 0 0 0 
77 1 0.00017 6.81697e-09 0.01365 9e-05 9e-05 0 0 0 
78 1 0.00017 6.81697e-09 0.01383 9e-05 9e-05 0 0 0 
79 1 0.00017 6.81697e-09 0.01401 9e-05 9e-05 0 0 0 
80 1 0.00017 6.81697e-09 0.01419 9e-05 9e-05 0 0 0 
81 1 0.00017 6.81697e-09 0.01437 9e-05 9e-05 0 0 0 
82 1 0.00017 6.81697e-09 0.01454 9e-05 9e-05 0 0 0 
83 1 0.00017 6.81697e-09 0.01472 9e-05 9e-05 0 0 0 
84 1 0.00017 6.81697e-09 0.0149 9e-05 9e-05 0 0 0 
85 1 0.00017 6.81697e-09 0.01508 9e-05 9e-05 0 0 0 
86 1 0.00017 6.81697e-09 0.01526 9e-05 9e-05 0 0 0 
87 1 0.00017 6.81697e-09 0.01544 9e-05 9e-05 0 0 0 
88 1 0.00017 6.81697e-09 0.01561 9e-05 9e-05 0 0 0 
89 1 0.00017 6.81697e-09 0.01579 9e-05 9e-05 0 0 0 
90 1 0.00017 6.81697e-09 0.01597 9e-05 9e-05 0 0 0 
91 1 0.00017 6.81697e-09 0.01615 9e-05 9e-05 0 0 0 
92 1 0.00017 6.81697e-09 0.01633 9e-05 9e-05 0 0 0 
93 1 0.00017 6.81697e-09 0.01651 9e-05 9e-05 0 0 0 
94 1 0.00017 6.81697e-09 0.01669 9e-05 9e-05 0 0 0 
95 1 0.00017 6.81697e-09 0.01686 9e-05 9e-05 0 0 0 
96 1 0.00017 6.81697e-09 0.01704 9e-05 9e-05 0 0 0 
97 1 0.00017 6.81697e-09 0.01722 9e-05 9e-05 0 0 0 
98 1 0.00017 6.81697e-09 0.0174 9e-05 9e-05 0 0 0 
99 1 0.00017 6.81697e-09 0.01758 9e-05 9e-05 0 0 0 
100 1 0.00017 6.81697e-09 0.01776 9e-05 9e-05 0 0 0 
ITEM: TIMESTEP
1000
ITEM: NUMBER OF ATOMS
100
ITEM: BOX BOUNDS ff ff ff
0 0.05
0 0.02
0 0.01
ITEM: ATOMS id type diameter mass x y z vx vy vz 
1 1 0.00017 6.81697e-09 0.000143945 8.99905e-05 8.72616e-05 0.107944 -1.89528e-05 -0.00547454 
2 1 0.00017 6.81697e-09 0.000313945 8.99905e-05 8.72616e-05 0.107944 -1.89528e-05 -0.00547454 
3 1 0.00017 6.81697e-09 0.000493945 8.99905e-05 8.72616e-05 0.107944 -1.89528e-05 -0.00547454 
4 1 0.00017 6.81697e-09 0.000673945 8.99905e-05 8.72616e-05 0.107944 -1.89528e-05 -0.00547454 
5 1 0.00017 6.81697e-09 0.000865106 8.99691e-05 8.61495e-05 0.130277 -6.17748e-05 -0.00769985 
6 1 0.00017 6.81697e-09 0.00104387 8.9969e-05 8.61541e-05 0.0897135 -6.55579e-05 -0.00755729 
7 1 0.00017 6.81697e-09 0.00121431 8.99733e-05 8.59914e-05 0.105706 -5.20558e-05 -0.00806609 
8 1 0.00017 6.81697e-09 0.00138451 8.9995e-05 8.51752e-05 0.112061 -1.13543e-05 -0.00959982 
9 1 0.00017 6.81697e-09 0.00155496 8.99993e-05 8.50124e-05 0.128053 2.14773e-06 -0.0101086 
10 1 0.00017 6.81697e-09 0.00173372 8.99992e-05 8.5017e-05 0.0874894 -1.63529e-06 -0.00996606 
11 1 0.00017 6.81697e-09 0.00191372 8.99992e-05 8.5017e-05 0.0874894 -1.63529e-06 -0.00996606 
12 1 0.00017 6.81697e-09 0.00210536 8.9999e-05 8.50246e-05 0.11077 -2.08145e-06 -0.00995089 
13 1 0.00017 6.81697e-09 0.00228536 8.9999e-05 8.50246e-05 0.11077 -2.08145e-06 -0.00995089 
14 1 0.00017 6.81697e-09 0.00246536 8.9999e-05 8.50246e-05 0.11077 -2.08145e-06 -0.00995089 
15 1 0.00017 6.81697e-09 0.00263604 8.9999e-05 8.50504e-05 0.112141 -1.9194e-06 -0.00989932 
16 1 0.00017 6.81697e-09 0.00281604 8.9999e-05 8.50504e-05 0.112141 -1.9194e-06 -0.00989932 
17 1 0.00017 6.81697e-09 0.00299604 8.9999e-05 8.50504e-05 0.112141 -1.9194e-06 -0.00989932 
18 1 0.00017 6.81697e-09 0.00317604 8.9999e-05 8.50504e-05 0.112141 -1.9194e-06 -0.00989932 
19 1 0.00017 6.81697e-09 0.00335575 8.99992e-05 8.50666e-05 0.111558 -1.58546e-06 -0.00986684 
20 1 0.00017 6.81697e-09 0.00353575 8.99992e-05 8.50666e-05 0.111558 -1.58546e-06 -0.00986684 
21 1 0.00017 6.81697e-09 0.00371575 8.99992e-05 8.50666e-05 0.111558 -1.58546e-06 -0.00986684 
22 1 0.00017 6.81697e-09 0.00388607 8.99994e-05 8.5076e-05 0.112204 -1.29767e-06 -0.00984793 
23 1 0.00017 6.81697e-09 0.00406607 8.99994e-05 8.5076e-05 0.112204 -1.29767e-06 -0.00984793 
24 1 0.00017 6.81697e-09 0.00424607 8.99994e-05 8.5076e-05 0.112204 -1.29767e-06 -0.00984793 
25 1 0.00017 6.81697e-09 0.00442607 8.99994e-05 8.5076e-05 0.112204 -1.29767e-06 -0.00984793 
26 1 0.00017 6.81697e-09 0.00460579 8.99995e-05 8.50818e-05 0.111635 -1.05179e-06 -0.00983638 
27 1 0.00017 6.81697e-09 0.00478579 8.99995e-05 8.50818e-05 0.111635 -1.05179e-06 -0.00983638 
28 1 0.00017 6.81697e-09 0.00495579 8.99995e-05 8.50818e-05 0.111635 -1.05179e-06 -0.00983638 
29 1 0.00017 6.81697e-09 0.00513609 8.99996e-05 8.50851e-05 0.112244 -8.81281e-07 -0.00982988 
30 1 0.00017 6.81697e-09 0.00531609 8.99996e-05 8.50851e-05 0.112244 -8.81281e-07 -0.00982988 
31 1 0.00017 6.81697e-09 0.00549609 8.99996e-05 8.50851e-05 0.112244 -8.81281e-07 -0.00982988 
32 1 0.00017 6.81697e-09 0.00567609 8.99996e-05 8.50851e-05 0.112244 -8.81281e-07 -0.00982988 
33 1 0.00017 6.81697e-09 0.00585547 8.99996e-05 8.5087e-05 0.110993 -7.46948e-07 -0.00982591 
34 1 0.00017 6.81697e-09 0.00603547 8.99996e-05 8.5087e-05 0.110993 -7.46948e-07 -0.00982591 
35 1 0.00017 6.81697e-09 0.00620547 8.99996e-05 8.5087e-05 0.110993 -7.46948e-07 -0.00982591 
36 1 0.00017 6.81697e-09 0.00638578 8.99997e-05 8.5088e-05 0.111606 -6.69274e-07 -0.00982396 
37 1 0.00017 6.81697e-09 0.00656578 8.99997e-05 8.5088e-05 0.111606 -6.69274e-07 -0.00982396 
38 1 0.00017 6.81697e-09 0.00674578 8.99997e-05 8.5088e-05 0.111606 -6.69274e-07 -0.00982396 
39 1 0.00017 6.81697e-09 0.00692578 8.99997e-05 8.5088e-05 0.111606 -6.69274e-07 -0.00982396 
40 1 0.00017 6.81697e-09 0.00710582 8.99997e-05 8.50885e-05 0.111695 -6.23059e-07 -0.00982298 
41 1 0.00017 6.81697e-09 0.00728582 8.99997e-05 8.50885e-05 0.111695 -6.23059e-07 -0.00982298 
42 1 0.00017 6.81697e-09 0.00745582 8.99997e-05 8.50885e-05 0.111695 -6.23059e-07 -0.00982298 
43 1 0.00017 6.81697e-09 0.00763614 8.99997e-05 8.50887e-05 0.112329 -6.11812e-07 -0.00982269 
44 1 0.00017 6.81697e-09 0.00781614 8.99997e-05 8.50887e-05 0.112329 -6.11812e-07 -0.00982269 
45 1 0.00017 6.81697e-09 0.00799614 8.99997e-05 8.50887e-05 0.112329 -6.11812e-07 -0.00982269 
46 1 0.00017 6.81697e-09 0.00817614 8.99997e-05 8.50887e-05 0.112329 -6.11812e-07 -0.00982269 
47 1 0.00017 6.81697e-09 0.00835584 8.99997e-05 8.50887e-05 0.111742 -6.22789e-07 -0.00982259 
48 1 0.00017 6.81697e-09 0.00852584 8.99997e-05 8.50887e-05 0.111742 -6.22789e-07 -0.00982259 
49 1 0.00017 6.81697e-09 0.00870584 8.99997e-05 8.50887e-05 0.111742 -6.22789e-07 -0.00982259 
50 1 0.00017 6.81697e-09 0.00888615 8.99997e-05 8.50886e-05 0.112359 -6.73269e-07 -0.00982288 
51 1 0.00017 6.81697e-09 0.00906615 8.99997e-05 8.50886e-05 0.112359 -6.73269e-07 -0.00982288 
52 1 0.00017 6.81697e-09 0.00924615 8.99997e-05 8.50886e-05 0.112359 -6.73269e-07 -0.00982288 
53 1 0.00017 6.81697e-09 0.00942615 8.99997e-05 8.50886e-05 0.112359 -6.73269e-07 -0.00982288 
54 1 0.00017 6.81697e-09 0.00960586 8.99996e-05 8.50884e-05 0.111772 -7.52727e-07 -0.00982313 
55 1 0.00017 6.81697e-09 0.00977586 8.99996e-05 8.50884e-05 0.111772 -7.52727e-07 -0.00982313 
56 1 0.00017 6.81697e-09 0.00995586 8.99996e-05 8.50884e-05 0.111772 -7.52727e-07 -0.00982313 
57 1 0.00017 6.81697e-09 0.0101362 8.99996e-05 8.50882e-05 0.112391 -8.88686e-07 -0.00982366 
58 1 0.00017 6.81697e-09 0.0103162 8.99996e-05 8.50882e-05 0.112391 -8.88686e-07 -0.00982366 
59 1 0.00017 6.81697e-09 0.0104962 8.99996e-05 8.50882e-05 0.112391 -8.88686e-07 -0.00982366 
60 1 0.00017 6.81697e-09 0.0106762 8.99996e-05 8.50882e-05 0.112391 -8.88686e-07 -0.00982366 
61 1 0.00017 6.81697e-09 0.0108559 8.99995e-05 8.5088e-05 0.111805 -1.07904e-06 -0.0098241 
62 1 0.00017 6.81697e-09 0.0110259 8.99995e-05 8.5088e-05 0.111805 -1.07904e-06 -0.0098241 
63 1 0.00017 6.81697e-09 0.0112059 8.99995e-05 8.5088e-05 0.111805 -1.07904e-06 -0.0098241 
64 1 0.00017 6.81697e-09 0.0113862 8.99993e-05 8.50876e-05 0.112407 -1.37575e-06 -0.00982483 
65 1 0.00017 6.81697e-09 0.0115662 8.99993e-05 8.50876e-05 0.112407 -1.37575e-06 -0.00982483 
66 1 0.00017 6.81697e-09 0.0117462 8.99993e-05 8.50876e-05 0.112407 -1.37575e-06 -0.00982483 
67 1 0.00017 6.81697e-09 0.0119259 8.99993e-05 8.50875e-05 0.11178 -1.43425e-06 -0.00982491 
68 1 0.00017 6.81697e-09 0.0120959 8.99991e-05 8.50873e-05 0.111781 -1.72744e-06 -0.00982534 
69 1 0.00017 6.81697e-09 0.0122755 8.99991e-05 8.50873e-05 0.111153 -1.78593e-06 -0.00982543 
70 1 0.00017 6.81697e-09 0.0124555 8.99991e-05 8.50873e-05 0.111153 -1.78593e-06 -0.00982543 
71 1 0.00017 6.81697e-09 0.0126359 8.99988e-05 8.50867e-05 0.111771 -2.45608e-06 -0.00982658 
72 1 0.00017 6.81697e-09 0.0128159 8.99988e-05 8.50867e-05 0.111771 -2.45608e-06 -0.00982658 
73 1 0.00017 6.81697e-09 0.0129959 8.99988e-05 8.50867e-05 0.111771 -2.45608e-06 -0.00982658 
74 1 0.00017 6.81697e-09 0.0131759 8.99988e-05 8.50867e-05 0.111771 -2.45608e-06 -0.00982658 
75 1 0.00017 6.81697e-09 0.0133459 8.99983e-05 8.5086e-05 0.111867 -3.47712e-06 -0.00982802 
76 1 0.00017 6.81697e-09 0.0135259 8.99983e-05 8.5086e-05 0.111867 -3.47712e-06 -0.00982802 
77 1 0.00017 6.81697e-09 0.0137059 8.99983e-05 8.5086e-05 0.111867 -3.47712e-06 -0.00982802 
78 1 0.00017 6.81697e-09 0.0138862 8.99974e-05 8.50849e-05 0.112513 -5.15165e-06 -0.00983022 
79 1 0.00017 6.81697e-09 0.0140662 8.99974e-05 8.50849e-05 0.112513 -5.15165e-06 -0.00983022 
80 1 0.00017 6.81697e-09 0.0142462 8.99974e-05 8.50849e-05 0.112513 -5.15165e-06 -0.00983022 
81 1 0.00017 6.81697e-09 0.0144261 8.99972e-05 8.50847e-05 0.112227 -5.53908e-06 -0.00983064 
82 1 0.00017 6.81697e-09 0.0145961 8.99963e-05 8.50836e-05 0.112228 -7.47775e-06 -0.00983277 
83 1 0.00017 6.81697e-09 0.0147759 8.99961e-05 8.50834e-05 0.111942 -7.86517e-06 -0.0098332 
84 1 0.00017 6.81697e-09 0.0149559 8.99961e-05 8.50834e-05 0.111942 -7.86517e-06 -0.0098332 
85 1 0.00017 6.81697e-09 0.0151363 8.99937e-05 8.50809e-05 0.112586 -1.26692e-05 -0.00983819 
86 1 0.00017 6.81697e-09 0.0153163 8.99937e-05 8.50809e-05 0.112586 -1.26692e-05 -0.00983819 
87 1 0.00017 6.81697e-09 0.0154963 8.99937e-05 8.50809e-05 0.112586 -1.26692e-05 -0.00983819 
88 1 0.00017 6.81697e-09 0.0156663 8.99937e-05 8.50809e-05 0.112586 -1.26692e-05 -0.00983819 
89 1 0.00017 6.81697e-09 0.015846 8.99895e-05 8.50771e-05 0.11204 -2.10949e-05 -0.00984581 
90 1 0.00017 6.81697e-09 0.016026 8.99895e-05 8.50771e-05 0.11204 -2.10949e-05 -0.00984581 
91 1 0.00017 6.81697e-09 0.016206 8.99895e-05 8.50771e-05 0.11204 -2.10949e-05 -0.00984581 
92 1 0.00017 6.81697e-09 0.0163863 8.99813e-05 8.50704e-05 0.11272 -3.73672e-05 -0.00985925 
93 1 0.00017 6.81697e-09 0.0165663 8.99813e-05 8.50704e-05 0.11272 -3.73672e-05 -0.00985925 
94 1 0.00017 6.81697e-09 0.0167463 8.99813e-05 8.50704e-05 0.11272 -3.73672e-05 -0.00985925 
95 1 0.00017 6.81697e-09 0.0169163 8.99813e-05 8.50704e-05 0.11272 -3.73672e-05 -0.00985925 
96 1 0.00017 6.81697e-09 0.017096 8.99671e-05 8.50599e-05 0.112096 -6.57721e-05 -0.00988021 
97 1 0.00017 6.81697e-09 0.017276 8.99671e-05 8.50599e-05 0.112096 -6.57721e-05 -0.00988021 
98 1 0.00017 6.81697e-09 0.017456 8.99671e-05 8.50599e-05 0.112096 -6.57721e-05 -0.00988021 
99 1 0.00017 6.81697e-09 0.0176356 8.99603e-05 8.5055e-05 0.111301 -7.94797e-05 -0.00989008 
100 1 0.00017 6.81697e-09 0.0178156 8.99603e-05 8.5055e-05 0.111301 -7.94797e-05 -0.00989008 
ITEM: TIMESTEP
2000
ITEM: NUMBER OF ATOMS
100
ITEM: BOX BOUNDS ff ff ff
0 0.05
0 0.02
0 0.01
ITEM: ATOMS id type diameter mass x y z vx vy vz 
1 1 0.00017 6.81697e-09 0.000303494 9.04405e-05 8.85871e-05 0.211659 0.00092045 0.00306182 
2 1 0.00017 6.81697e-09 0.000473494 9.04405e-05 8.85871e-05 0.211659 0.00092045 0.00306182 
3 1 0.00017 6.81697e-09 0.000653494 9.04405e-05 8.85871e-05 0.211659 0.00092045 0.00306182 
4 1 0.00017 6.81697e-09 0.000834784 9.05357e-05 8.88086e-05 0.214237 0.0011112 0.00353474 
5 1 0.00017 6.81697e-09 0.00101632 9.04734e-05 9.0712e-05 0.185334 0.00106682 0.00305442 
6 1 0.00017 6.81697e-09 0.00118643 9.04772e-05 8.75155e-05 0.195203 0.00108636 0.000489026 
7 1 0.00017 6.81697e-09 0.00136942 9.0446e-05 9.16804e-05 0.203301 0.0010103 0.00562331 
8 1 0.00017 6.81697e-09 0.00154028 9.03951e-05 9.04446e-05 0.205345 0.000799549 0.00116242 
9 1 0.00017 6.81697e-09 0.00171987 9.03527e-05 9.42469e-05 0.198786 0.000702484 0.00556831 
10 1 0.00017 6.81697e-09 0.00189804 9.03627e-05 9.07268e-05 0.232708 0.000733927 0.00500362 
11 1 0.00017 6.81697e-09 0.00207156 9.03464e-05 9.09399e-05 0.233505 0.000697205 0.00207849 
12 1 0.00017 6.81697e-09 0.00227655 9.03428e-05 9.06005e-05 0.233505 0.000690127 0.00246399 
13 1 0.00017 6.81697e-09 0.00244921 9.03165e-05 9.07196e-05 0.180595 0.000514687 0.00305322 
14 1 0.00017 6.81697e-09 0.00262208 9.05112e-05 9.12643e-05 0.203016 0.00112907 0.00116812 
15 1 0.00017 6.81697e-09 0.00279349 9.15426e-05 9.06358e-05 0.206287 0.00298497 0.00352973 
16 1 0.00017 6.81697e-09 0.00296636 9.17385e-05 9.11537e-05 0.228712 0.00360942 0.00149306 
17 1 0.00017 6.81697e-09 0.00313901 9.17115e-05 9.12862e-05 0.1758 0.00342895 0.00215808 
18 1 0.00017 6.81697e-09 0.00334165 9.00995e-05 9.04784e-05 0.2211 0.000202894 0.000513356 
19 1 0.00017 6.81697e-09 0.00352087 9.01e-05 8.96661e-05 0.220616 0.000203223 -0.000289748 
20 1 0.00017 6.81697e-09 0.00370087 9.01e-05 8.96661e-05 0.220616 0.000203223 -0.000289748 
21 1 0.00017 6.81697e-09 0.00387637 9.00941e-05 9.01194e-05 0.210773 0.000183435 0.000710152 
22 1 0.00017 6.81697e-09 0.00404656 8.99396e-05 8.93451e-05 0.211518 -0.000110226 -0.000879081 
23 1 0.00017 6.81697e-09 0.00422206 8.99337e-05 8.97983e-05 0.201675 -0.000130014 0.000120819 
24 1 0.00017 6.81697e-09 0.00440206 8.99337e-05 8.97983e-05 0.201675 -0.000130014 0.000120819 
25 1 0.00017 6.81697e-09 0.0045832 9.08635e-05 9.05709e-05 0.203945 0.00173079 0.00168034 
26 1 0.00017 6.81697e-09 0.00476235 9.08639e-05 9.05529e-05 0.203393 0.0017311 0.00166734 
27 1 0.00017 6.81697e-09 0.00494235 9.08639e-05 9.05529e-05 0.203393 0.0017311 0.00166734 
28 1 0.00017 6.81697e-09 0.00511235 9.08639e-05 9.05529e-05 0.203393 0.0017311 0.00166734 
29 1 0.00017 6.81697e-09 0.00529056 9.05524e-05 8.9241e-05 0.198557 0.00110726 -0.000711475 
30 1 0.00017 6.81697e-09 0.00547056 9.05524e-05 8.9241e-05 0.198557 0.00110726 -0.000711475 
31 1 0.00017 6.81697e-09 0.00565056 9.05524e-05 8.9241e-05 0.198557 0.00110726 -0.000711475 
32 1 0.00017 6.81697e-09 0.00583232 8.89712e-05 8.88418e-05 0.202074 -0.00205715 -0.0015166 
33 1 0.00017 6.81697e-09 0.00601038 8.89713e-05 8.95743e-05 0.200781 -0.00205722 -0.000773059 
34 1 0.00017 6.81697e-09 0.00619038 8.89713e-05 8.95743e-05 0.200781 -0.00205722 -0.000773059 
35 1 0.00017 6.81697e-09 0.00636038 8.89713e-05 8.95743e-05 0.200781 -0.00205722 -0.000773059 
36 1 0.00017 6.81697e-09 0.00654239 8.9064e-05 9.02434e-05 0.203606 -0.00187184 0.000216917 
37 1 0.00017 6.81697e-09 0.00672239 8.9064e-05 9.02434e-05 0.203606 -0.00187184 0.000216917 
38 1 0.00017 6.81697e-09 0.00690239 8.9064e-05 9.02434e-05 0.203606 -0.00187184 0.000216917 
39 1 0.00017 6.81697e-09 0.00708426 8.9514e-05 9.034e-05 0.207348 -0.000971399 0.000411615 
40 1 0.00017 6.81697e-09 0.00726437 8.9514e-05 9.05201e-05 0.207416 -0.000971344 0.00059452 
41 1 0.00017 6.81697e-09 0.00744437 8.9514e-05 9.05201e-05 0.207416 -0.000971344 0.00059452 
42 1 0.00017 6.81697e-09 0.00761437 8.9514e-05 9.05201e-05 0.207416 -0.000971344 0.00059452 
43 1 0.00017 6.81697e-09 0.00779583 8.98467e-05 9.06656e-05 0.209056 -0.000305544 0.000832978 
44 1 0.00017 6.81697e-09 0.00797583 8.98467e-05 9.06656e-05 0.209056 -0.000305544 0.000832978 
45 1 0.00017 6.81697e-09 0.00815583 8.98467e-05 9.06656e-05 0.209056 -0.000305544 0.000832978 
46 1 0.00017 6.81697e-09 0.0083364 8.99759e-05 9.07675e-05 0.210197 -4.70363e-05 0.0010387 
47 1 0.00017 6.81697e-09 0.00851552 8.99759e-05 9.07851e-05 0.209624 -4.70493e-05 0.00105648 
48 1 0.00017 6.81697e-09 0.00868552 8.99759e-05 9.07851e-05 0.209624 -4.70493e-05 0.00105648 
49 1 0.00017 6.81697e-09 0.00886552 8.99759e-05 9.07851e-05 0.209624 -4.70493e-05 0.00105648 
50 1 0.00017 6.81697e-09 0.00904626 9.00296e-05 9.07967e-05 0.209862 6.06036e-05 0.00113243 
51 1 0.00017 6.81697e-09 0.00922626 9.00296e-05 9.07967e-05 0.209862 6.06036e-05 0.00113243 
52 1 0.00017 6.81697e-09 0.00940626 9.00296e-05 9.07967e-05 0.209862 6.06036e-05 0.00113243 
53 1 0.00017 6.81697e-09 0.00958651 9.00745e-05 9.08562e-05 0.210369 0.000150522 0.00125236 
54 1 0.00017 6.81697e-09 0.00976565 9.00744e-05 9.08087e-05 0.209802 0.000150453 0.00120416 
55 1 0.00017 6.81697e-09 0.00993565 9.00744e-05 9.08087e-05 0.209802 0.000150453 0.00120416 
56 1 0.00017 6.81697e-09 0.0101156 9.00744e-05 9.08087e-05 0.209802 0.000150453 0.00120416 
57 1 0.00017 6.81697e-09 0.0102963 9.01432e-05 9.07947e-05 0.209863 0.000288266 0.00127243 
58 1 0.00017 6.81697e-09 0.0104763 9.01432e-05 9.07947e-05 0.209863 0.000288266 0.00127243 
59 1 0.00017 6.81697e-09 0.0106563 9.01432e-05 9.07947e-05 0.209863 0.000288266 0.00127243 
60 1 0.00017 6.81697e-09 0.0108363 9.02269e-05 9.08871e-05 0.209965 0.000455892 0.00145861 
61 1 0.00017 6.81697e-09 0.0110155 9.02266e-05 9.08054e-05 0.209402 0.000455732 0.00137577 
62 1 0.00017 6.81697e-09 0.0111855 9.02266e-05 9.08054e-05 0.209402 0.000455732 0.00137577 
63 1 0.00017 6.81697e-09 0.0113655 9.02266e-05 9.08054e-05 0.209402 0.000455732 0.00137577 
64 1 0.00017 6.81697e-09 0.0115461 9.03361e-05 9.0778e-05 0.209412 0.000675442 0.00145497 
65 1 0.00017 6.81697e-09 0.0117261 9.03361e-05 9.0778e-05 0.209412 0.000675442 0.00145497 
66 1 0.00017 6.81697e-09 0.0119061 9.03361e-05 9.0778e-05 0.209412 0.000675442 0.00145497 
67 1 0.00017 6.81697e-09 0.012084 9.02572e-05 9.06798e-05 0.20649 0.000517642 0.00127324 
68 1 0.00017 6.81697e-09 0.0122541 9.02568e-05 9.06021e-05 0.206539 0.000517359 0.00119437 
69 1 0.00017 6.81697e-09 0.0124331 9.02567e-05 9.05859e-05 0.205909 0.000517332 0.0011779 
70 1 0.00017 6.81697e-09 0.0126131 9.02567e-05 9.05859e-05 0.205909 0.000517332 0.0011779 
71 1 0.00017 6.81697e-09 0.0127936 9.01796e-05 9.03016e-05 0.205741 0.00036436 0.000816894 
72 1 0.00017 6.81697e-09 0.0129736 9.01796e-05 9.03016e-05 0.205741 0.00036436 0.000816894 
73 1 0.00017 6.81697e-09 0.0131536 9.01796e-05 9.03016e-05 0.205741 0.00036436 0.000816894 
74 1 0.00017 6.81697e-09 0.0133336 9.01661e-05 9.028e-05 0.205732 0.00033737 0.000773406 
75 1 0.00017 6.81697e-09 0.0135038 9.01646e-05 9.00133e-05 0.205853 0.000336382 0.000502608 
76 1 0.00017 6.81697e-09 0.0136838 9.01646e-05 9.00133e-05 0.205853 0.000336382 0.000502608 
77 1 0.00017 6.81697e-09 0.0138638 9.01646e-05 9.00133e-05 0.205853 0.000336382 0.000502608 
78 1 0.00017 6.81697e-09 0.0140445 9.01556e-05 8.96019e-05 0.205953 0.000321613 7.78184e-05 
79 1 0.00017 6.81697e-09 0.0142245 9.01556e-05 8.96019e-05 0.205953 0.000321613 7.78184e-05 
80 1 0.00017 6.81697e-09 0.0144045 9.01556e-05 8.96019e-05 0.205953 0.000321613 7.78184e-05 
81 1 0.00017 6.81697e-09 0.0145838 9.01882e-05 8.95233e-05 0.205173 0.00038761 6.68227e-07 
82 1 0.00017 6.81697e-09 0.014754 9.01853e-05 8.91362e-05 0.205412 0.000385735 -0.000392293 
83 1 0.00017 6.81697e-09 0.0149335 9.01848e-05 8.92645e-05 0.205024 0.000385372 -0.00026275 
84 1 0.00017 6.81697e-09 0.0151135 9.01848e-05 8.92645e-05 0.205024 0.000385372 -0.00026275 
85 1 0.00017 6.81697e-09 0.0152936 9.03878e-05 9.05219e-05 0.203989 0.000801213 0.00118809 
86 1 0.00017 6.81697e-09 0.0154736 9.03878e-05 9.05219e-05 0.203989 0.000801213 0.00118809 
87 1 0.00017 6.81697e-09 0.0156531 9.03871e-05 9.0572e-05 0.202986 0.000799809 0.00128864 
88 1 0.00017 6.81697e-09 0.0158231 9.02622e-05 9.03534e-05 0.202985 0.00054982 0.000842723 
89 1 0.00017 6.81697e-09 0.0160018 9.02491e-05 9.03936e-05 0.201449 0.000540316 0.000929943 
90 1 0.00017 6.81697e-09 0.0161818 9.02491e-05 9.03936e-05 0.201449 0.000540316 0.000929943 
91 1 0.00017 6.81697e-09 0.0163618 9.02491e-05 9.03936e-05 0.201449 0.000540316 0.000929943 
92 1 0.00017 6.81697e-09 0.0165433 8.92418e-05 8.97359e-05 0.203264 -0.00144321 -0.000795524 
93 1 0.00017 6.81697e-09 0.0167233 8.92418e-05 8.97359e-05 0.203264 -0.00144321 -0.000795524 
94 1 0.00017 6.81697e-09 0.0169033 8.92418e-05 8.97359e-05 0.203264 -0.00144321 -0.000795524 
95 1 0.00017 6.81697e-09 0.017075 8.9311e-05 8.97417e-05 0.206593 -0.00130483 -0.000783668 
96 1 0.00017 6.81697e-09 0.017254 8.92691e-05 9.00365e-05 0.205955 -0.00133231 -0.000496924 
97 1 0.00017 6.81697e-09 0.017434 8.92691e-05 9.00365e-05 0.205955 -0.00133231 -0.000496924 
98 1 0.00017 6.81697e-09 0.017614 8.92691e-05 9.00365e-05 0.205955 -0.00133231 -0.000496924 
99 1 0.00017 6.81697e-09 0.0177935 8.95292e-05 8.87221e-05 0.206365 -0.000784311 -0.0015491 
100 1 0.00017 6.81697e-09 0.0179735 8.95292e-05 8.87221e-05 0.206365 -0.000784311 -0.0015491 
ITEM: TIMESTEP
3000
ITEM: NUMBER OF ATOMS
100
ITEM: BOX BOUNDS ff ff ff
0 0.05
0 0.02
0 0.01
ITEM: ATOMS id type diameter mass x y z vx vy vz 
1 1 0.00017 6.81697e-09 0.000566405 9.18477e-05 8.76636e-05 0.314162 0.0018939 -0.00490905 
2 1 0.00017 6.81697e-09 0.000736405 9.18477e-05 8.76636e-05 0.314162 0.0018939 -0.00490905 
3 1 0.00017 6.81697e-09 0.000914662 9.20523e-05 8.79687e-05 0.291316 0.00232915 -0.00304996 
4 1 0.00017 6.81697e-09 0.00108649 9.23315e-05 8.90431e-05 0.313696 0.00245482 -0.00452223 
5 1 0.00017 6.81697e-09 0.00126355 9.22312e-05 8.93012e-05 0.299063 0.00245069 -0.00569226 
6 1 0.00017 6.81697e-09 0.00143893 9.22487e-05 8.56325e-05 0.313729 0.00244781 0.00531857 
7 1 0.00017 6.81697e-09 0.00162119 9.22269e-05 9.39271e-05 0.300215 0.0025518 -0.00112992 
8 1 0.00017 6.81697e-09 0.00179405 9.19668e-05 8.82696e-05 0.302198 0.00234429 -0.00551268 
9 1 0.00017 6.81697e-09 0.00196717 9.18286e-05 9.64402e-05 0.295811 0.00224978 -0.00118221 
10 1 0.00017 6.81697e-09 0.00216913 9.18738e-05 9.26273e-05 0.280828 0.0022975 -0.000971949 
11 1 0.00017 6.81697e-09 0.0023453 9.18157e-05 8.99604e-05 0.27104 0.00229237 -0.00294557 
12 1 0.00017 6.81697e-09 0.00252266 9.18735e-05 9.1691e-05 0.342928 0.00228372 -0.00533632 
13 1 0.00017 6.81697e-09 0.00269479 9.13561e-05 8.756e-05 0.332943 0.00172496 -0.00510471 
14 1 0.00017 6.81697e-09 0.00286776 9.2205e-05 9.27272e-05 0.287187 0.0023835 -0.000710632 
15 1 0.00017 6.81697e-09 0.00304098 9.54057e-05 8.68778e-05 0.288823 0.00462238 -0.00826626 
16 1 0.00017 6.81697e-09 0.00323419 9.62948e-05 9.25042e-05 0.318672 0.00532094 -0.00150315 
17 1 0.00017 6.81697e-09 0.00341705 9.55752e-05 8.8029e-05 0.334536 0.00434032 -0.00680752 
18 1 0.00017 6.81697e-09 0.00361281 9.08119e-05 8.7684e-05 0.282743 0.00126268 -0.00454648 
19 1 0.00017 6.81697e-09 0.00378618 9.07726e-05 8.65592e-05 0.331205 0.00105278 -0.00638597 
20 1 0.00017 6.81697e-09 0.00395739 9.09951e-05 8.59508e-05 0.294949 0.00161851 -0.00934273 
21 1 0.00017 6.81697e-09 0.00412744 9.16923e-05 8.58448e-05 0.292972 0.00295888 -0.00727821 
22 1 0.00017 6.81697e-09 0.00430409 9.16115e-05 8.57094e-05 0.320273 0.00351612 -0.00756377 
23 1 0.00017 6.81697e-09 0.00447713 9.13874e-05 8.55473e-05 0.30312 0.00303637 0.00885875 
24 1 0.00017 6.81697e-09 0.00465257 9.01406e-05 8.52513e-05 0.297376 0.00054046 0.0105961 
25 1 0.00017 6.81697e-09 0.004836 9.29157e-05 8.70459e-05 0.301672 0.00237299 -0.0087314 
26 1 0.00017 6.81697e-09 0.00501462 9.29164e-05 8.7015e-05 0.301135 0.00237333 -0.0087442 
27 1 0.00017 6.81697e-09 0.00518885 9.29072e-05 8.752e-05 0.278237 0.00233235 -0.00731693 
28 1 0.00017 6.81697e-09 0.00535989 9.26971e-05 8.69779e-05 0.289852 0.00199366 -0.00774048 
29 1 0.00017 6.81697e-09 0.0055301 9.17484e-05 8.5846e-05 0.292456 0.00124135 0.00502579 
30 1 0.00017 6.81697e-09 0.00570871 9.17523e-05 8.60036e-05 0.27648 0.00128595 0.00683621 
31 1 0.00017 6.81697e-09 0.00589296 9.44179e-05 8.54023e-05 0.286247 0.00662606 -0.00696405 
32 1 0.00017 6.81697e-09 0.00607804 8.96953e-05 8.56882e-05 0.288271 0.00349726 0.00631346 
36 1 0.00017 6.81697e-09 0.00678373 9.52443e-05 8.64153e-05 0.279061 0.0142413 -0.00787208 
35 1 0.00017 6.81697e-09 0.0066019 9.48739e-05 8.54469e-05 0.281784 0.0137377 0.00833955 
37 1 0.00017 6.81697e-09 0.00696373 9.52443e-05 8.64153e-05 0.279061 0.0142413 -0.00787208 
38 1 0.00017 6.81697e-09 0.00713866 8.63882e-05 8.50971e-05 0.268911 -0.00347967 -0.0105099 
39 1 0.00017 6.81697e-09 0.00732423 8.77325e-05 8.53871e-05 0.27257 -0.00259195 -0.0103176 
40 1 0.00017 6.81697e-09 0.00750441 8.77326e-05 8.57488e-05 0.272636 -0.00259188 -0.0101375 
41 1 0.00017 6.81697e-09 0.00768441 8.77326e-05 8.57488e-05 0.272636 -0.00259188 -0.0101375 
42 1 0.00017 6.81697e-09 0.00785558 8.54832e-05 8.68089e-05 0.274976 -0.00709298 -0.00801615 
43 1 0.00017 6.81697e-09 0.00803865 8.64773e-05 8.7191e-05 0.276579 -0.00643613 -0.0077815 
44 1 0.00017 6.81697e-09 0.00821865 8.64773e-05 8.7191e-05 0.276579 -0.00643613 -0.0077815 
45 1 0.00017 6.81697e-09 0.008401 8.80734e-05 8.65885e-05 0.281282 -0.00324243 -0.00898696 
46 1 0.00017 6.81697e-09 0.0085827 8.84593e-05 8.68947e-05 0.282397 -0.00298755 -0.00878441 
47 1 0.00017 6.81697e-09 0.00876126 8.84592e-05 8.69299e-05 0.281837 -0.00298775 -0.00876691 
48 1 0.00017 6.81697e-09 0.00893126 8.84592e-05 8.69299e-05 0.281837 -0.00298775 -0.00876691 
49 1 0.00017 6.81697e-09 0.00911256 8.9719e-05 8.69151e-05 0.284449 -0.000466977 -0.00879647 
50 1 0.00017 6.81697e-09 0.00929354 8.98795e-05 8.70022e-05 0.284681 -0.000360989 -0.00872168 
51 1 0.00017 6.81697e-09 0.00947354 8.98795e-05 8.70022e-05 0.284681 -0.000360989 -0.00872168 
52 1 0.00017 6.81697e-09 0.00965435 8.93324e-05 8.64072e-05 0.28631 -0.00145575 -0.00991214 
53 1 0.00017 6.81697e-09 0.00983511 8.94666e-05 8.65858e-05 0.286805 -0.00136717 -0.00979402 
54 1 0.00017 6.81697e-09 0.0100137 8.94664e-05 8.64904e-05 0.286252 -0.00136732 -0.00984151 
55 1 0.00017 6.81697e-09 0.0101837 8.94664e-05 8.64904e-05 0.286252 -0.00136732 -0.00984151 
56 1 0.00017 6.81697e-09 0.0103648 8.94717e-05 8.64715e-05 0.288426 -0.00135667 -0.00987944 
57 1 0.00017 6.81697e-09 0.0105455 8.96772e-05 8.65253e-05 0.288484 -0.00122103 -0.0098122 
58 1 0.00017 6.81697e-09 0.0107255 8.96772e-05 8.65253e-05 0.288484 -0.00122103 -0.0098122 
59 1 0.00017 6.81697e-09 0.0109064 8.9552e-05 8.64697e-05 0.290325 -0.00147158 -0.00992351 
60 1 0.00017 6.81697e-09 0.0110865 8.98021e-05 8.67467e-05 0.290425 -0.00130662 -0.0097403 
61 1 0.00017 6.81697e-09 0.0112651 8.98016e-05 8.65829e-05 0.289876 -0.00130687 -0.00982185 
62 1 0.00017 6.81697e-09 0.0114351 8.98016e-05 8.65829e-05 0.289876 -0.00130687 -0.00982185 