/*--------------------------------*- C++ -*----------------------------------*\
| =========                 |                                                 |
| \\      /  F ield         | OpenFOAM: The Open Source CFD Toolbox           |
|  \\    /   O peration     | Version:  2.4.0                                 |
|   \\  /    A nd           | Web:      www.OpenFOAM.org                      |
|    \\/     M anipulation  |                                                 |
\*---------------------------------------------------------------------------*/
FoamFile
{
    version     2.0;
    format      ascii;
    class       volVectorField;
    location    "0.04";
    object      gradp;
}
// * * * * * * * * * * * * * * * * * * * * * * * * * * * * * * * * * * * * * //

dimensions      [1 -2 -2 0 0 0 0];

internalField   nonuniform List<vector> 
200
(
(1.49227e+07 2.22476e+06 4.69361e+06)
(211942 -3.12923e+06 620374)
(-1.59851e+07 -7.54637e+06 -1.44578e+06)
(-4.75514e+06 962253 1.44251e+06)
(7.31492e+06 -1.08608e+06 -2.52942e+06)
(1.52685e+07 1.87325e+06 -769197)
(3.24618e+07 -2.41247e+06 -7.82565e+06)
(5.67977e+07 -1.4255e+06 -7.94426e+06)
(-8.73571e+06 -1.02707e+07 -1.97942e+07)
(-7.13343e+07 2.87863e+07 -1.00968e+06)
(-2.84282e+06 184109 271267)
(-1.93303e+07 -2.74541e+06 -103121)
(-7.80215e+06 -2.51361e+06 2.82233e+06)
(8.16543e+06 1.38706e+06 1.79461e+06)
(9.1369e+06 -487578 1.37381e+06)
(1.26157e+07 813045 -2.19976e+06)
(2.58643e+07 -4.02987e+06 -2.4144e+06)
(4.10813e+07 -1.04485e+07 -1.00695e+07)
(5.1688e+07 -2.63703e+07 -1.53227e+07)
(-1.08366e+08 -5.65327e+06 -2.50313e+07)
(-970183 -722439 953964)
(-5.18349e+06 2.68095e+06 -783781)
(-7.72018e+06 8.00145e+06 540076)
(-703080 4.26421e+06 1.77558e+06)
(6.16689e+06 1.78389e+06 1.41318e+06)
(8.18393e+06 220103 1.7978e+06)
(9.93867e+06 -3.0033e+06 -598648)
(1.21168e+07 -8.49522e+06 -238800)
(854790 -1.75425e+07 -2.83768e+06)
(-7.28712e+06 -2.71062e+07 -100399)
(1.02445e+06 7.42929e+06 871832)
(-1.88255e+06 8.03834e+06 1.9968e+06)
(-4.63562e+06 8.26128e+06 -146271)
(-4.26969e+06 9.21947e+06 2.19431e+06)
(1.04869e+06 5.44102e+06 1.8498e+06)
(3.04137e+06 2.30868e+06 749825)
(8.43367e+06 -374365 1.85003e+06)
(1.2003e+07 -1.89362e+06 -1.94927e+06)
(1.44661e+07 -1.52256e+06 -2.42927e+06)
(-1.90683e+07 -796893 -6.04835e+06)
(-1.82947e+07 -4.85098e+06 3.30567e+06)
(-1.94341e+07 -4.28682e+06 1.67893e+06)
(-1.33543e+07 -717396 2.10816e+06)
(-8.22279e+06 1.52561e+06 4.96895e+06)
(237468 5.15907e+06 2.51942e+06)
(-1.67943e+06 -415647 2.84677e+06)
(9.5016e+06 6.24553e+06 -190902)
(1.84983e+07 -4.82581e+06 -5.58797e+06)
(1.34549e+07 -3.11622e+06 -1.721e+07)
(-4.76184e+06 -9.64829e+06 -3.47595e+06)
(-1.36876e+07 -5.79932e+06 1.23329e+06)
(-1.11669e+07 -4.99206e+06 2.92594e+06)
(-1.72943e+06 663757 7.12467e+06)
(3.53015e+06 1.91998e+06 5.6642e+06)
(-3.64506e+06 5.82057e+06 4.57086e+06)
(493482 4.92024e+06 3.45661e+06)
(681264 7.53333e+06 1.17422e+06)
(-225186 1.88022e+06 -3.57193e+06)
(3.81e+06 760133 -1.12559e+07)
(2.07672e+07 -4.19842e+06 -2.06351e+07)
(-1.22449e+07 238464 2.22804e+06)
(-6.50794e+06 6.04082e+06 4.06978e+06)
(469772 3.25169e+06 3.90459e+06)
(2.09084e+06 4.90374e+06 6.16087e+06)
(6.23799e+06 2.54548e+06 4.94912e+06)
(1.74609e+06 4.93943e+06 4.77371e+06)
(3.42156e+06 3.81979e+06 2.81693e+06)
(4.95192e+06 4.49709e+06 1.15002e+06)
(1.29767e+06 3.08699e+06 -1.66818e+06)
(2.11473e+06 3.26659e+06 -6325.99)
(353159 8.8744e+06 4.92615e+06)
(-5.14048e+06 1.06743e+07 3.57339e+06)
(-4.0036e+06 8.73169e+06 3.96159e+06)
(2.11774e+06 8.14838e+06 5.28886e+06)
(-3.57367e+06 3.26049e+06 4.84619e+06)
(3.0421e+06 589508 3.58979e+06)
(-203424 85628.3 3.28169e+06)
(-1.6908e+06 -1.06804e+06 298938)
(1.34901e+06 39253.7 -853902)
(8.06003e+06 333196 -4.55209e+06)
(-3.9711e+06 -1.09105e+06 -209325)
(-3.62011e+06 -1.13403e+06 2.06163e+06)
(-5.45706e+06 480045 4.68652e+06)
(-3.43909e+06 2.07464e+06 5.14421e+06)
(523922 2.19621e+06 6.27334e+06)
(6.59547e+06 2.84899e+06 3.9271e+06)
(5.47064e+06 -228280 6.65907e+06)
(2.33672e+06 1.80017e+06 1.55473e+06)
(-1.97725e+06 -744255 877370)
(-5.13936e+06 1.33178e+06 -2.97856e+06)
(-3.47993e+06 -1.5401e+06 2.82833e+06)
(-477916 1.07995e+06 4.92984e+06)
(960279 360683 5.34488e+06)
(-6758.67 3.29413e+06 4.40723e+06)
(2.07262e+06 3.39994e+06 3.1744e+06)
(1.74649e+06 3.89616e+06 5.18578e+06)
(3.37301e+06 782662 2.47019e+06)
(1.30477e+06 332269 5.09686e+06)
(-2.91403e+06 -1.50346e+06 3.04362e+06)
(-6.31442e+06 -101868 3.71834e+06)
(1.8356e+06 5.18614e+06 4.58816e+06)
(181464 3.71687e+06 5.44616e+06)
(-1.0287e+06 2.94052e+06 4.65673e+06)
(2.63942e+06 3.66367e+06 4.20205e+06)
(1.72798e+06 2.22443e+06 2.94642e+06)
(1.36092e+06 433197 743416)
(-1.65713e+06 368658 1.82212e+06)
(-2.23552e+06 -2.30184e+06 36006.2)
(-2.84553e+06 -899190 48196.3)
(-1.9287e+06 -1.37343e+06 -1.84309e+06)
(-3.41005e+06 9.26085e+06 4.10453e+06)
(-4.96915e+06 2.66264e+06 1.84663e+06)
(853870 4.98995e+06 3.93264e+06)
(-1.43895e+06 2.20874e+06 1.85278e+06)
(-4.38832e+06 2.76297e+06 1.73617e+06)
(-1.96505e+06 579545 1.51895e+06)
(-2.09706e+06 78693.4 -566007)
(-1.23093e+06 56093.6 972895)
(-1.05721e+06 -1.34356e+06 -301760)
(-1.76918e+06 -608464 1.47565e+06)
(-3.31381e+06 9270.51 1.33117e+06)
(-3.76741e+06 302317 1.46282e+06)
(-3.49004e+06 335984 1.77961e+06)
(-3.14495e+06 346443 2.52983e+06)
(-3.65727e+06 200772 2.21689e+06)
(-445080 1.59823e+06 1.93245e+06)
(1.91e+06 -456681 -416802)
(-3125.67 841592 739258)
(-1.05157e+06 349769 -742566)
(1.96196e+06 1.06675e+06 341951)
(-2.92897e+06 1.87666e+06 2.03582e+06)
(-3.11398e+06 423190 2.14777e+06)
(-3.40178e+06 616097 1.58338e+06)
(-3.41538e+06 412531 1.30645e+06)
(-1.15369e+06 497504 1.10714e+06)
(-1.75999e+06 -173659 178551)
(396718 -205785 895595)
(1.60977e+06 -549737 -816007)
(-601243 -566545 262624)
(-871083 -2.38167e+06 -2.19914e+06)
(-8.81217e+06 2.28038e+06 1.72858e+06)
(-6.28853e+06 1.10769e+06 659735)
(-3.51136e+06 992111 1.71598e+06)
(-3.38214e+06 816628 725731)
(-4.82965e+06 244312 430929)
(-1.85166e+06 -927498 75509.4)
(1.15784e+06 -1.03812e+06 -273205)
(-724645 -2.10125e+06 1.30862e+06)
(-4.71542e+06 -2.26561e+06 -1.02715e+06)
(7.85838e+06 -321719 1.38969e+06)
(-7.75254e+06 -1.13397e+06 -94095.9)
(-5.69051e+06 -1.01088e+06 938044)
(-3.98391e+06 -764495 623223)
(-4.91098e+06 484650 -65520.7)
(-4.64194e+06 -189478 -5239.06)
(-4.32486e+06 691032 -65237.4)
(-1.95079e+06 -904211 -12028.4)
(-845209 -1.77478e+06 -1.33016e+06)
(2.95782e+06 1.02793e+06 -330760)
(4.30359e+06 5.03953e+06 -447937)
(-2.68801e+06 36388.2 152560)
(-2.18511e+06 -38105.9 459750)
(-2.0426e+06 166073 647028)
(-2.03978e+06 117235 912074)
(-1.3877e+06 420613 992395)
(-1.83235e+06 42747.6 1.62131e+06)
(1.65242e+06 1.87156e+06 558873)
(1.29427e+06 -688250 1.54082e+06)
(-3.24863e+06 864050 964310)
(-3.85739e+06 -2.73396e+06 854237)
(-555170 -904247 169509)
(-1.92574e+06 -204981 246986)
(-1.73192e+06 258881 540834)
(-1.5307e+06 407561 768819)
(-1.53668e+06 542396 1.1298e+06)
(1.06953e+06 925047 649136)
(190424 1.01242e+06 2.01402e+06)
(-720738 1.24324e+06 584670)
(-7.34005e+06 -1.95879e+06 1.28574e+06)
(-117567 1.57451e+06 -1.52121e+06)
(1.53514e+06 1.77827e+06 -1.58551e+06)
(141146 1.78132e+06 67143)
(-817515 1.40428e+06 423768)
(-1.47275e+06 1.46851e+06 908968)
(-352729 444615 1.02045e+06)
(-892310 43136 2.30801e+06)
(2.28881e+06 -1.08354e+06 1.32025e+06)
(-4.64814e+06 -3.12449e+06 2.66143e+06)
(-2.58609e+06 -1.8486e+06 94155.5)
(-3.08883e+06 1.4285e+06 3.32685e+06)
(-2.95292e+06 1.36104e+06 -144306)
(-2.67373e+06 1.32924e+06 668001)
(-2.35754e+06 2.272e+06 798438)
(-3.45003e+06 571200 1.17624e+06)
(-4.38741e+06 882545 1.25498e+06)
(-1.98678e+06 307817 1.25578e+06)
(-6.14483e+06 -725347 1.98564e+06)
(-2.25087e+06 -2.26768e+06 -54855.8)
(1.76592e+06 2.75023e+06 1.54637e+06)
(722650 -962369 -427325)
)
;

boundaryField
{
    inlet
    {
        type            zeroGradient;
    }
    outlet
    {
        type            zeroGradient;
    }
    bottom
    {
        type            zeroGradient;
    }
    top
    {
        type            symmetryPlane;
    }
    side1
    {
        type            symmetryPlane;
    }
    side2
    {
        type            symmetryPlane;
    }
    procBoundary7to6
    {
        type            processor;
        value           nonuniform List<vector> 
20
(
(2.74533e+07 5.75352e+06 1.10008e+07)
(1.63867e+07 5.20102e+06 3.28588e+06)
(8.37189e+06 747314 2.73957e+06)
(6.00891e+06 9.69135e+06 2.20658e+06)
(2.46027e+06 -6.59036e+06 7.58324e+06)
(-1.16624e+07 -8.01695e+06 3.12504e+06)
(-1.88918e+06 -979559 3.19297e+06)
(-1.60961e+06 9.64958e+06 4.95917e+06)
(-7.04775e+06 -1.37961e+06 -2.6199e+06)
(-3.0833e+06 -1.8234e+06 1.56776e+06)
(-1.27441e+06 3.68193e+06 4.37343e+06)
(1.82385e+06 9.92069e+06 4.37966e+06)
(-3.15297e+06 109895 1.06185e+06)
(-2.82503e+06 3.17237e+06 1.23378e+06)
(-1.25372e+07 3.51948e+06 753629)
(-4.55675e+06 -870793 795191)
(-2.74224e+06 -1.10453e+06 264187)
(-191756 -2.31656e+06 -494826)
(1.324e+06 2.98019e+06 -3.16639e+06)
(-2.7219e+06 2.265e+06 -831879)
)
;
    }
    procBoundary7to15
    {
        type            processor;
        value           nonuniform List<vector> 
50
(
(-4.2762e+06 8.94742e+06 1.85716e+06)
(-3.51952e+06 8.19463e+06 863687)
(-5.35793e+06 7.27491e+06 834086)
(-6.3436e+06 7.72141e+06 1.10615e+06)
(-7.65468e+06 6.86719e+06 50343.7)
(-3.44683e+06 5.32957e+06 723315)
(1.53408e+06 4.10218e+06 -311152)
(9.82043e+06 866916 277185)
(3.04824e+06 -2.06353e+06 -1.86155e+06)
(-2.64821e+06 -5.07298e+06 605906)
(-1.01955e+07 7.87598e+06 3.37276e+06)
(-6.79335e+06 2.04324e+06 709972)
(-4.58205e+06 4.60734e+06 1.86001e+06)
(-8.85158e+06 1.03274e+06 1.77916e+06)
(-8.87975e+06 3.34913e+06 3.27534e+06)
(-4.60362e+06 2.58555e+06 3.693e+06)
(106460 -621260 3.10009e+06)
(4.85917e+06 1.55606e+06 2.36859e+06)
(4.10015e+06 854736 -1.5563e+06)
(1.36984e+06 -131636 111442)
(-1.26805e+07 -185037 -1.66707e+06)
(-8.36033e+06 1.26375e+06 -1.85708e+06)
(-1.93652e+06 -62659.3 -1.27839e+06)
(-1.81454e+06 -201234 -587777)
(-1.5304e+06 -79474.6 790194)
(-4.00763e+06 -103747 806869)
(-2.70403e+06 -472289 1.20347e+06)
(-5.08002e+06 -471835 -405709)
(-4.17464e+06 -998176 666121)
(1.97533e+06 -573405 1.09837e+06)
(-9.09234e+06 -2.64489e+06 -3.2088e+06)
(-5.54958e+06 -1.48401e+06 -173640)
(-520295 -45916 17260.5)
(-2.23211e+06 -199531 -297729)
(-4.41688e+06 641992 -744336)
(-3.28113e+06 787675 -94321)
(-3.77379e+06 1.61628e+06 -775731)
(3.13964e+06 1.95364e+06 -143744)
(8.91321e+06 2.90323e+06 1.53146e+06)
(-4.27654e+06 -241403 1.1685e+06)
(-336374 -1.4361e+06 -26125.7)
(1.96306e+06 304363 1.52972e+06)
(-2.3336e+06 711669 2.32158e+06)
(-4.25165e+06 -1.37512e+06 963062)
(-879496 -229196 1.69047e+06)
(-4.10809e+06 352909 2.0685e+06)
(-2.86219e+06 1.06852e+06 1.43204e+06)
(2.30301e+06 4.54889e+06 2.35337e+06)
(24532.5 1.34689e+06 1.17059e+06)
(-6.66455e+06 2.89015e+06 -424339)
)
;
    }
}


// ************************************************************************* //
