/*--------------------------------*- C++ -*----------------------------------*\
| =========                 |                                                 |
| \\      /  F ield         | OpenFOAM: The Open Source CFD Toolbox           |
|  \\    /   O peration     | Version:  2.4.0                                 |
|   \\  /    A nd           | Web:      www.OpenFOAM.org                      |
|    \\/     M anipulation  |                                                 |
\*---------------------------------------------------------------------------*/
FoamFile
{
    version     2.0;
    format      ascii;
    class       volSymmTensorField;
    location    "0.08";
    object      B;
}
// * * * * * * * * * * * * * * * * * * * * * * * * * * * * * * * * * * * * * //

dimensions      [0 2 -2 0 0 0 0];

internalField   nonuniform List<symmTensor> 
200
(
(4.99778e+09 5.30921e+08 -1.64646e+09 6.15909e+09 3.93426e+07 5.16689e+09)
(3.06578e+09 1.60675e+08 -1.0604e+09 3.32484e+09 -3.03726e+08 2.99053e+09)
(6.20929e+09 9.08029e+08 -1.78876e+09 6.94201e+09 2.4923e+08 5.70381e+09)
(2.29966e+09 4.73413e+08 -1.16841e+09 2.5316e+09 4.7746e+07 1.86809e+09)
(6.18163e+09 7.87488e+08 -1.64624e+09 6.71494e+09 4.49664e+08 5.76676e+09)
(4.16413e+09 6.38104e+08 -2.08826e+09 4.9057e+09 1.08841e+09 3.79903e+09)
(6.2742e+09 5.67711e+08 -2.11169e+09 6.18446e+09 7.14339e+08 4.95519e+09)
(8.03587e+09 -4.28013e+07 -2.58415e+09 8.79823e+09 1.08358e+09 7.77278e+09)
(1.93227e+10 6.0519e+09 -2.41216e+09 1.5157e+10 1.52947e+09 1.02337e+10)
(3.85562e+09 2.19061e+08 -1.31204e+09 3.11534e+09 1.02441e+09 2.68117e+09)
(2.36648e+09 1.54502e+08 -8.43134e+08 2.63053e+09 -1.55151e+08 2.40793e+09)
(4.71405e+09 5.20073e+08 -1.53294e+09 5.15186e+09 9.93282e+07 4.68231e+09)
(1.96035e+09 2.20486e+08 -6.00448e+08 2.08696e+09 5.13364e+07 1.86489e+09)
(4.99637e+09 6.55425e+08 -1.61541e+09 5.07867e+09 3.07954e+08 4.78465e+09)
(1.93688e+09 6.14591e+08 -8.98896e+08 1.54411e+09 5.45851e+08 1.51098e+09)
(4.98905e+09 4.2734e+08 -1.67423e+09 5.03195e+09 6.22367e+08 5.14251e+09)
(5.73786e+09 6.31443e+08 -3.04039e+09 5.85847e+09 1.70207e+09 5.64515e+09)
(4.27748e+09 9.41759e+08 -3.2077e+09 3.44433e+09 1.47053e+09 3.10242e+09)
(1.91478e+10 -1.25e+08 -1.93794e+09 2.02704e+10 1.56381e+09 1.93488e+10)
(1.61167e+10 1.09192e+10 -7.03474e+08 2.43508e+09 1.0328e+08 4.56657e+09)
(3.5633e+09 3.89544e+08 -1.30998e+09 4.02177e+09 1.16973e+08 3.77559e+09)
(1.66301e+09 1.38754e+08 -4.01984e+08 1.75804e+09 4.05822e+07 1.7368e+09)
(4.22616e+09 5.0071e+08 -1.50697e+09 4.18565e+09 2.28572e+08 4.27392e+09)
(9.29789e+08 1.47779e+08 -5.18433e+08 8.07945e+08 1.31684e+08 1.01975e+09)
(4.1957e+09 5.23575e+08 -1.65352e+09 4.25747e+09 5.15547e+08 4.52083e+09)
(2.3024e+09 5.96152e+08 -1.0423e+09 1.69762e+09 3.75543e+08 2.36488e+09)
(5.38367e+09 2.16803e+08 -1.64171e+09 5.54299e+09 8.54612e+08 6.02075e+09)
(2.71848e+09 1.97461e+09 -1.14262e+09 2.41612e+09 1.89028e+09 2.79808e+09)
(5.79381e+09 5.41726e+08 -3.1653e+09 4.84887e+09 1.64103e+09 7.02507e+09)
(3.31493e+10 -2.68765e+08 -7.72006e+09 3.41528e+10 3.54512e+09 3.34008e+10)
(1.14867e+09 2.67934e+08 -5.30455e+08 1.2519e+09 -3.90612e+06 1.54529e+09)
(3.62433e+09 3.50333e+08 -1.58027e+09 4.06731e+09 2.07936e+08 4.5495e+09)
(1.98519e+09 9.21065e+07 -5.50334e+08 2.09455e+09 2.47668e+07 2.54967e+09)
(6.15543e+09 5.3297e+08 -1.50723e+09 5.92531e+09 1.65541e+08 6.79796e+09)
(1.47004e+09 2.33489e+08 -6.69458e+08 9.36936e+08 5.55138e+07 1.28403e+09)
(3.83694e+09 4.74823e+08 -1.54952e+09 3.4092e+09 6.95749e+08 3.75861e+09)
(2.68375e+09 5.4576e+08 -8.92568e+08 2.05362e+09 8.57739e+07 2.55502e+09)
(6.17208e+09 2.88135e+08 -1.89163e+09 6.59914e+09 1.04836e+09 7.07488e+09)
(4.48542e+09 1.21236e+09 -2.99346e+09 1.24906e+09 -2.05976e+08 2.94232e+09)
(1.17287e+10 3.52729e+09 -4.27742e+09 6.60683e+09 2.45111e+09 8.69698e+09)
(2.54692e+08 6.75642e+07 -5.58531e+07 4.8545e+08 -8.47381e+07 3.99893e+08)
(8.39915e+08 2.02788e+08 -1.41343e+08 1.17193e+09 1.87899e+08 8.46995e+08)
(2.31607e+08 8.89289e+07 -1.04057e+08 4.2404e+08 -5.46451e+07 3.80781e+08)
(8.61599e+08 2.64723e+08 -1.62085e+08 1.04834e+09 1.57034e+08 7.49223e+08)
(3.13388e+08 2.40092e+08 4.22746e+07 4.59107e+08 4.43152e+07 3.01677e+08)
(8.25982e+08 1.70584e+08 -1.58054e+08 9.41181e+08 6.58439e+07 7.39003e+08)
(5.7956e+08 5.0999e+08 -2.39452e+08 1.13027e+09 3.71737e+08 6.91843e+08)
(5.02032e+08 5.26719e+07 -1.7885e+08 6.62396e+08 4.5446e+07 4.81582e+08)
(4.06971e+09 5.71514e+06 -6.78188e+08 4.94482e+09 3.51607e+08 4.77405e+09)
(9.25811e+08 5.80539e+08 -2.56773e+08 9.58008e+08 -3.46778e+08 2.85716e+08)
(6.83016e+08 9.9454e+07 -1.21101e+08 1.05876e+09 8.76116e+07 7.50686e+08)
(1.61981e+08 9.57977e+07 -2.64233e+07 3.57292e+08 3.72479e+07 2.99404e+08)
(7.34887e+08 2.12683e+08 -1.87418e+08 8.63796e+08 1.40607e+08 5.93156e+08)
(2.96402e+08 1.58683e+08 9.50109e+07 4.49625e+08 1.28257e+08 4.124e+08)
(1.16489e+09 2.94974e+08 -1.92291e+08 1.4154e+09 1.09326e+08 1.14575e+09)
(5.84093e+08 2.43572e+08 8.34364e+07 5.52182e+08 9.52918e+07 4.69202e+08)
(8.23897e+08 1.80327e+08 -2.7505e+08 1.09306e+09 1.50494e+08 9.14519e+08)
(5.84981e+08 8.46988e+08 -6.18105e+08 1.02156e+09 4.83128e+08 8.99326e+08)
(1.07829e+08 -1.14093e+07 -2.55956e+08 5.02652e+08 6.61565e+07 3.1392e+08)
(9.83167e+09 1.34806e+08 -1.26261e+09 1.19622e+10 9.12531e+08 1.14017e+10)
(3.65453e+08 2.3987e+08 1.96085e+07 3.88198e+08 1.54088e+08 5.8516e+08)
(3.95922e+08 5.04685e+07 -1.14173e+08 7.4454e+08 2.0903e+08 4.21841e+08)
(7.41199e+08 8.27228e+07 5.95068e+07 7.64179e+08 1.31825e+08 8.83147e+08)
(1.65214e+09 3.03293e+08 -2.36617e+08 1.3788e+09 4.29289e+08 1.43041e+09)
(5.14769e+07 8.57212e+07 5.23157e+07 4.52055e+07 1.46197e+07 9.10749e+07)
(1.19057e+09 3.30832e+08 -1.2934e+08 1.80485e+09 1.46725e+08 1.26688e+09)
(3.34848e+08 2.12164e+08 -5.42633e+07 1.97626e+08 -4.52717e+07 2.65764e+08)
(1.91459e+09 1.22158e+08 -2.6244e+08 2.28953e+09 1.83767e+08 2.14847e+09)
(3.78841e+09 2.35992e+09 4.00309e+08 2.47377e+09 -2.50998e+08 1.12461e+09)
(-9.22447e+08 -3.0295e+08 9.32582e+08 1.3263e+09 4.86067e+08 9.70041e+08)
(1.33758e+09 4.6248e+06 -4.69762e+07 2.95424e+09 3.85814e+08 2.29773e+09)
(1.07841e+09 1.15251e+08 2.51218e+08 1.1715e+09 1.30327e+08 1.28135e+09)
(6.51857e+08 2.21316e+07 1.16402e+08 1.97374e+09 5.75911e+08 1.87054e+09)
(5.13413e+08 8.40874e+07 -2.48287e+08 8.32519e+08 1.5273e+07 8.7828e+08)
(1.08074e+10 9.73761e+08 -8.62255e+08 9.87129e+09 4.3839e+08 1.00912e+10)
(3.98817e+08 1.42758e+08 6.07212e+07 6.79724e+07 -1.45845e+08 1.37667e+08)
(1.68487e+09 4.26902e+08 2.12697e+08 2.54009e+09 2.9832e+08 1.35328e+09)
(1.77336e+09 3.83704e+08 -3.37729e+07 7.16172e+08 -3.34953e+08 1.2246e+09)
(4.0232e+09 1.66861e+08 -5.30884e+08 4.80144e+09 3.71612e+08 4.47125e+09)
(1.33327e+09 1.027e+09 -3.09031e+08 -5.47099e+08 -1.1054e+09 4.00238e+08)
(8.04481e+07 1.30334e+08 -3.6084e+07 3.87434e+08 3.31632e+07 1.57522e+07)
(3.02831e+09 2.60779e+08 3.35661e+07 3.88507e+09 -5.5728e+08 4.33317e+09)
(6.67884e+07 1.39612e+08 -3.56313e+07 2.15047e+08 2.13464e+07 -2.81767e+06)
(2.27871e+09 2.59142e+08 -4.87511e+07 2.83187e+09 -2.91084e+08 3.38071e+09)
(1.15535e+08 1.30919e+08 -4.37292e+07 2.52266e+08 5.62668e+07 5.31091e+07)
(1.08669e+09 2.79543e+08 -1.86232e+07 1.40429e+09 -8.40289e+07 1.74926e+09)
(2.26126e+08 1.06143e+08 -9.46192e+06 2.38118e+08 4.76432e+07 1.52852e+08)
(1.10417e+09 3.89868e+08 -2.16866e+08 1.21538e+09 2.57712e+08 1.62355e+09)
(2.56979e+08 3.77757e+07 -1.51486e+07 2.71121e+08 8.96914e+07 2.35094e+08)
(1.88605e+09 4.93892e+07 -1.66961e+08 2.26669e+09 3.50964e+08 3.0237e+09)
(2.03044e+09 2.17714e+08 1.97671e+08 2.68542e+09 -4.90022e+07 3.02795e+09)
(3.14237e+08 1.67974e+08 -1.3133e+08 6.68484e+08 -1.69787e+06 5.12454e+07)
(1.80255e+09 2.6274e+08 2.04725e+08 2.26867e+09 1.14578e+08 2.66136e+09)
(1.00435e+09 3.70702e+08 -4.57058e+07 1.45652e+09 6.9401e+07 7.06921e+08)
(1.1753e+09 2.35926e+08 1.32554e+08 1.60474e+09 1.06252e+08 1.70225e+09)
(9.65966e+08 1.84413e+08 -7.94863e+07 1.39579e+09 2.39546e+07 8.45119e+08)
(6.04437e+08 1.62282e+08 3.63726e+07 7.53174e+08 8.84647e+07 7.23489e+08)
(5.43761e+08 1.19491e+08 -6.08729e+07 6.50573e+08 6.08517e+07 3.67223e+08)
(5.63134e+08 1.95207e+08 -3.99815e+08 7.89262e+08 2.07672e+08 7.05974e+08)
(3.07084e+08 8.20318e+07 -5.6481e+07 4.69165e+08 7.59882e+07 3.10051e+08)
(6.89653e+08 1.53582e+07 -1.39092e+08 1.25532e+09 3.09704e+07 4.84146e+08)
(1.67025e+09 1.84511e+08 2.52553e+08 1.81016e+09 1.46791e+08 2.26434e+09)
(1.87026e+09 6.09058e+08 -1.73867e+07 1.96527e+09 4.16308e+08 8.80932e+08)
(5.50422e+08 1.85112e+08 2.4204e+07 8.00073e+08 4.00778e+07 1.02718e+09)
(2.88985e+09 7.77822e+08 -4.01052e+08 4.16657e+09 7.18278e+07 2.49436e+09)
(3.46459e+08 8.76198e+07 4.91448e+07 4.57246e+08 -4.44222e+07 5.41445e+08)
(2.45445e+09 1.68499e+08 -6.58261e+06 3.36398e+09 -9.56444e+07 2.41477e+09)
(2.99085e+08 1.59447e+08 -9.40215e+07 2.69813e+08 -5.62356e+07 4.09107e+08)
(1.0295e+09 1.67829e+08 -2.01924e+08 1.33079e+09 1.62822e+08 9.59453e+08)
(9.54372e+08 8.90817e+07 -7.35249e+08 1.01321e+09 -1.7817e+08 7.44146e+08)
(3.27317e+09 2.25679e+08 4.63843e+08 2.8766e+09 -2.91577e+08 3.45903e+09)
(1.63724e+09 2.46463e+08 3.06738e+08 3.47276e+09 4.28951e+08 9.8524e+08)
(1.09815e+08 1.34812e+08 -9.89958e+07 6.72351e+08 -2.75257e+07 5.16992e+08)
(7.93789e+09 1.74673e+09 -1.00425e+09 7.92311e+09 6.94336e+08 6.21643e+09)
(2.48991e+08 1.15096e+08 -1.25468e+08 1.12264e+08 -1.78142e+08 3.63443e+08)
(4.16774e+09 1.35689e+09 -1.02864e+09 6.06265e+09 2.14579e+08 3.95321e+09)
(7.01078e+08 1.84868e+08 1.41038e+08 4.63376e+08 -1.69901e+08 1.01009e+09)
(3.59689e+09 -1.12877e+08 2.84149e+08 5.78556e+09 -2.96636e+08 4.04937e+09)
(1.01084e+09 2.18716e+08 -1.15555e+08 7.12107e+08 -1.77451e+08 1.00237e+09)
(3.88888e+09 4.85114e+08 -1.32415e+09 4.69631e+09 2.58979e+08 4.26823e+09)
(6.54375e+09 4.11952e+08 9.07131e+06 8.91507e+09 -8.57476e+08 8.94222e+09)
(-3.74902e+07 2.03871e+07 1.47097e+07 -9.72402e+07 -7.16325e+07 -6.06007e+07)
(6.40752e+09 5.35394e+08 -7.14928e+07 8.41265e+09 -8.63227e+08 8.73675e+09)
(3.6161e+07 4.87955e+06 2.13339e+07 -3.02532e+07 -5.28542e+07 5.78093e+07)
(6.40973e+09 1.04025e+09 -3.44928e+08 8.21048e+09 -9.2182e+08 9.16288e+09)
(3.97815e+08 1.43405e+07 3.53518e+07 3.42915e+08 -1.60374e+08 5.72483e+08)
(5.94152e+09 2.02638e+09 -6.502e+08 6.38317e+09 -9.71274e+08 9.23046e+09)
(2.84947e+09 8.17907e+08 -1.24132e+08 2.10388e+09 -8.10976e+08 3.63309e+09)
(6.96864e+09 9.26498e+08 -4.45224e+08 5.01394e+09 -5.80452e+08 8.61661e+09)
(2.56974e+09 -7.49935e+08 6.64211e+08 8.64471e+08 -9.56005e+08 4.46406e+09)
(1.22399e+08 1.51065e+08 -1.13933e+07 3.79319e+08 -1.89497e+08 -2.5328e+08)
(4.17664e+09 2.49534e+08 5.65299e+07 5.41803e+09 -1.50505e+08 5.78558e+09)
(6.59691e+06 1.23957e+08 -8.30684e+07 1.86315e+08 -1.39894e+08 -2.14086e+08)
(3.3646e+09 3.44161e+08 -1.39346e+06 4.49667e+09 -1.01797e+08 4.7118e+09)
(6.7538e+07 9.98867e+07 -2.70863e+07 2.37765e+08 -8.37556e+07 -3.88399e+07)
(2.44365e+09 4.00426e+08 -9.11352e+07 3.31091e+09 -3.70937e+06 3.49629e+09)
(6.91064e+06 6.01731e+07 -5.44531e+07 3.25111e+07 -5.88332e+07 -1.13901e+08)
(1.69218e+09 4.8948e+08 -2.75952e+08 1.90157e+09 5.87316e+07 2.34152e+09)
(1.06031e+08 1.50235e+08 3.90281e+07 -1.09857e+07 2.66283e+07 -5.6856e+07)
(1.21496e+09 2.48582e+08 -3.83638e+08 1.27009e+09 1.87875e+08 2.07587e+09)
(2.44012e+09 1.2168e+08 4.66981e+07 2.82083e+09 3.42201e+07 3.38422e+09)
(5.32326e+08 2.97095e+08 -1.42063e+08 1.0795e+09 -1.16475e+08 -4.55353e+08)
(1.22583e+09 2.16908e+08 6.59829e+06 1.67282e+09 -4.35147e+07 2.0425e+09)
(1.81523e+09 9.25801e+08 -2.1645e+08 3.25479e+09 4.20231e+06 5.75367e+08)
(1.08624e+09 2.32969e+08 4.23113e+07 1.78829e+09 -3.11874e+08 2.13453e+09)
(2.39211e+09 2.54331e+08 -1.40374e+08 3.83562e+09 -1.75809e+08 2.15995e+09)
(1.23368e+09 1.63837e+08 -1.10149e+08 2.03429e+09 7.8213e+07 1.91427e+09)
(1.22675e+09 3.84392e+08 1.87397e+07 1.61483e+09 1.0958e+08 3.79418e+08)
(6.86917e+08 1.71217e+08 -2.23714e+08 8.57571e+08 5.8726e+06 1.05314e+09)
(1.17593e+09 2.8826e+08 -1.96313e+07 1.45634e+09 1.10931e+08 7.02912e+08)
(3.01668e+09 3.8955e+08 -2.35879e+08 4.94729e+09 6.26837e+08 6.08609e+08)
(3.31678e+09 8.23337e+07 -2.08201e+08 3.45725e+09 -6.59504e+08 4.50516e+09)
(5.9865e+09 1.55071e+09 5.78566e+06 7.19028e+09 9.5066e+08 2.12417e+09)
(8.88248e+08 4.38861e+08 -6.01133e+08 1.88545e+09 -4.78221e+08 2.69742e+09)
(7.00815e+09 1.79083e+09 -1.20541e+09 9.55654e+09 1.66716e+08 5.46552e+09)
(3.36434e+09 4.2909e+08 5.29314e+08 3.23028e+09 -3.81809e+08 4.20028e+09)
(3.12112e+09 -1.14371e+08 3.04882e+07 5.86181e+09 -3.5837e+08 3.46705e+09)
(7.86967e+08 1.60946e+07 -2.27898e+08 9.45975e+08 -4.57682e+06 1.21762e+09)
(2.42008e+09 4.55945e+08 -8.68185e+07 2.83968e+09 4.53339e+07 1.30793e+09)
(8.83674e+08 1.79674e+08 -2.15076e+08 5.41015e+08 -1.74669e+08 1.14625e+09)
(6.11432e+08 -6.00999e+07 1.66942e+08 1.63061e+08 -2.89425e+08 4.63218e+08)
(6.00448e+09 2.08471e+08 -5.23802e+07 9.04531e+09 -5.58839e+08 7.13751e+09)
(1.37217e+09 -3.29409e+08 1.97924e+08 7.58031e+08 -5.21075e+08 1.13787e+09)
(6.19867e+09 6.07668e+08 2.59434e+08 1.03189e+10 -1.11766e+09 7.88602e+09)
(7.29784e+09 -9.839e+08 4.728e+08 8.04807e+09 -1.3229e+09 7.2487e+09)
(8.33393e+08 7.62796e+08 6.85726e+08 3.84117e+09 -1.87237e+09 2.36329e+09)
(2.49142e+10 2.19291e+09 1.26384e+09 3.64703e+10 -7.12896e+09 2.80067e+10)
(2.59629e+10 -6.65282e+08 -6.69885e+07 2.65045e+10 -1.49246e+09 2.46236e+10)
(1.14995e+10 -6.57343e+09 1.89985e+09 -3.43008e+09 1.07242e+10 6.96672e+09)
(1.74653e+10 -6.76694e+09 -1.21123e+09 1.55569e+10 -3.53068e+09 1.1933e+10)
(3.79707e+09 1.98074e+08 -3.59959e+08 5.16963e+09 -4.68852e+08 5.2946e+09)
(4.77113e+07 5.39014e+07 7.191e+07 -2.79889e+07 -5.65187e+07 5.27468e+07)
(3.30442e+09 2.93477e+08 -3.04881e+08 4.60476e+09 -3.99495e+08 4.6395e+09)
(5.78377e+07 1.18238e+07 4.83776e+07 -2.41499e+06 -6.39883e+07 9.80214e+07)
(3.28732e+09 5.50422e+08 -2.62306e+08 4.90375e+09 -4.49923e+08 4.79634e+09)
(3.61611e+08 -1.82485e+07 7.45044e+07 3.55529e+08 -1.7352e+08 4.40814e+08)
(2.70119e+09 9.7303e+08 -3.54848e+08 3.99857e+09 -7.21067e+08 4.29545e+09)
(8.96774e+08 3.56124e+08 1.08091e+08 6.36987e+08 -5.40491e+08 1.17731e+09)
(2.39159e+09 4.41056e+08 -3.433e+08 2.12711e+09 -5.51287e+08 3.04927e+09)
(1.76965e+09 -1.40073e+08 3.52406e+08 9.70231e+08 -1.61201e+09 1.92427e+09)
(-4.60822e+07 2.04751e+08 1.80094e+08 6.57784e+07 -803320 -9.40245e+07)
(1.90876e+09 8.18184e+07 -3.23036e+08 2.53299e+09 -1.21517e+08 3.13161e+09)
(1.93011e+08 1.96771e+08 1.41908e+08 4.69142e+08 9.2492e+07 2.71505e+08)
(2.30143e+09 3.40363e+08 -3.28035e+08 3.00579e+09 -3.77447e+08 3.45607e+09)
(-1.22838e+07 1.32395e+08 6.44695e+07 1.72478e+08 7.15812e+06 7.85977e+07)
(1.69e+09 2.37969e+08 -3.63017e+08 2.37675e+09 -2.91816e+08 2.79571e+09)
(1.14113e+08 5.62614e+07 6.0858e+07 1.5667e+08 7.06627e+06 1.54199e+08)
(1.63441e+09 3.50636e+08 -3.73314e+08 1.86655e+09 -3.06307e+08 2.52683e+09)
(1.83534e+08 1.33069e+08 4.66718e+07 -3.47388e+07 -6.81669e+07 1.49958e+08)
(1.65632e+09 2.02369e+08 -4.46078e+08 1.49024e+09 -2.94627e+08 2.56997e+09)
(5.68223e+09 1.03218e+07 -4.33592e+07 6.67788e+09 -4.37474e+09 9.75681e+09)
(9.64098e+09 1.02672e+09 1.03736e+09 1.16157e+10 1.7828e+09 8.58798e+09)
(1.45516e+10 3.77622e+08 -1.11257e+09 1.36144e+10 -2.80894e+09 1.52508e+10)
(1.8546e+09 2.19815e+08 1.51134e+07 2.94995e+09 7.54897e+08 1.28074e+09)
(2.07199e+09 1.09593e+08 -9.05273e+07 2.58724e+09 -4.90472e+08 3.5408e+09)
(1.54168e+09 1.85933e+08 7.50788e+07 2.45718e+09 2.86838e+08 1.69173e+09)
(9.75041e+08 9.75106e+07 -3.86724e+08 1.31411e+09 -4.05034e+08 1.69728e+09)
(4.1695e+08 2.0135e+08 -8.18786e+07 7.43968e+08 2.77059e+08 9.00061e+07)
(1.52266e+09 2.00993e+07 -2.79532e+08 1.41816e+09 -2.36221e+08 2.26545e+09)
(1.15786e+09 1.16881e+08 1.11767e+08 1.14332e+09 8.83614e+07 1.04643e+09)
)
;

boundaryField
{
    inlet
    {
        type            calculated;
        value           nonuniform 0();
    }
    outlet
    {
        type            calculated;
        value           nonuniform 0();
    }
    bottom
    {
        type            calculated;
        value           nonuniform List<symmTensor> 
40
(
(-503.884 960.658 -4764 1597.41 113.635 -532.88)
(-482.185 504.091 -5499.09 379.296 -1930.16 701.818)
(-392.331 859.423 -4924.88 619.171 250.492 -1135.74)
(-624.21 876.376 -3934.81 -286.556 -736.634 1924.6)
(-426.759 478.616 -6196.41 344.91 -2488.41 -867.918)
(-87.8954 1055.77 -5156.52 800.872 455.28 -1171.68)
(-397.491 755.865 -4710.44 120.183 -769.837 927.64)
(-636.131 626.808 -4830.5 156.441 463.753 354.569)
(183.194 1544.59 -4932.64 1429.58 903.287 -1242.36)
(-172.22 869.053 -5044.73 326.795 -677.145 -166.048)
(114.4 1003.85 -5156.66 33.1767 1074 -154.495)
(-983.269 376.974 -4685.46 -535.65 -609.618 1160.96)
(-37.3374 1021.73 -5365.01 463.246 -582.449 -1334.43)
(212.953 1285.68 -5292.36 374.395 1509.02 -67.2225)
(-57.3243 461.909 -3985.14 -438.168 -2.6104 99.6684)
(-50.7218 1189.06 -5630.79 -564.135 981.48 689.138)
(147.839 1525.76 -5065.39 1181.13 2181.37 -159.574)
(440.19 1123.65 -4149.85 -277.902 853.206 -1104.4)
(-85.0321 924.205 -5169.08 24.0124 1704.75 2461.25)
(507.385 661.417 -3965.58 -1002.77 144.761 -67.0434)
(-261.753 920.201 -5753.46 807.66 1576.47 -2074.49)
(-62.1123 845.405 -5177.1 22.7571 2953.66 2941.68)
(319.107 1126.52 -4326.61 -823.721 742.358 -669.805)
(428.813 776.022 -4902.36 -270.262 1634.28 2902.66)
(919.589 849.605 -5129.25 785.291 2882.49 -278.913)
(-9.83739 714.043 -5996.15 126.554 2002.25 -2442.41)
(-389.993 427.36 -5231.88 -75.946 3430.85 4356.19)
(608.335 1276.48 -4048.69 -865.465 391.762 -266.766)
(-454.052 -75.926 -6828.34 898.319 2069.21 -2565.2)
(480.176 882.928 -4775.71 -300.927 3523.78 1431.89)
(116.671 1731.85 -3563.31 -148.515 1441.03 -2094.88)
(-570.226 506.22 -5395.98 180.074 3514.56 4238.38)
(3456.26 3983.08 -3688.48 714.6 2462.73 -4522.3)
(-885.841 -335.643 -7493.2 2128.51 4935.77 -2761.58)
(-139.868 592.923 -5206.35 -1174.12 5079.76 8768.75)
(1243.74 1034.39 -5004.83 -1517.51 -508.081 -2651.04)
(943.433 439.401 -2921.65 -541.448 5839.18 1255.49)
(3210.73 5375.88 -2342.79 -3525.18 1717.47 -4570.8)
(119.104 -274.404 -10706.1 1143.69 3273.62 -3638.43)
(2110.49 2347.25 -4201.53 -1297.87 4161.57 4074.74)
)
;
    }
    top
    {
        type            symmetryPlane;
    }
    side1
    {
        type            symmetryPlane;
    }
    side2
    {
        type            symmetryPlane;
    }
    procBoundary18to10
    {
        type            processor;
        value           nonuniform List<symmTensor> 
50
(
(-3.42059e+08 1.70514e+08 -1.35366e+09 3.61811e+08 -9.20452e+08 -1.90705e+08)
(-2.61375e+08 7.15073e+08 -1.87282e+09 1.01265e+09 2.11199e+07 -3.50968e+08)
(-2.37419e+08 3.12243e+08 -1.63439e+09 4.35449e+08 -7.19022e+08 -4.1047e+08)
(-4.41055e+07 1.08527e+09 -2.00521e+09 1.27813e+09 4.0269e+08 -7.16676e+08)
(-3.06828e+08 3.98234e+08 -1.80554e+09 7.06054e+08 -2.58148e+08 -6.54807e+08)
(3.604e+07 1.0308e+09 -2.08399e+09 1.52442e+09 7.32254e+08 -9.99644e+08)
(-3.14147e+08 2.50973e+08 -1.91617e+09 7.74565e+08 1.7144e+08 -7.25551e+08)
(9.28587e+08 1.31428e+09 -2.50464e+09 1.34641e+09 9.13156e+08 -1.44455e+09)
(-1.09464e+08 4.46226e+08 -2.07473e+09 2.84382e+08 8.98229e+07 -1.15335e+09)
(1.46063e+09 6.37413e+09 -1.97885e+09 5.47887e+09 2.75989e+09 -2.93931e+09)
(-2.55984e+08 3.18715e+08 -1.2936e+08 3.02676e+08 3.7087e+08 -1.52295e+08)
(-2.08955e+08 1.18718e+08 -1.9597e+08 1.27242e+08 -2.54996e+08 1.26114e+08)
(-1.27203e+08 3.34868e+08 -1.38897e+08 1.93943e+08 3.58469e+08 -1.48874e+08)
(-1.59238e+08 1.02986e+08 -2.41637e+08 8.26093e+07 -1.97055e+08 1.08054e+08)
(-3.90284e+07 2.87367e+08 -1.00759e+08 1.69123e+08 2.83712e+08 -1.77669e+08)
(-2.08302e+08 1.67629e+08 -1.80184e+08 1.72055e+08 -1.02243e+07 7.57776e+07)
(-5.84803e+07 1.22752e+08 -9.73574e+07 1.46901e+08 1.67542e+08 -1.54342e+08)
(-2.36175e+08 -1.30669e+07 -2.77339e+08 2.39063e+08 1.2079e+08 2.92557e+06)
(-2.24246e+07 7.46887e+07 -1.05394e+08 1.11268e+08 1.17547e+08 -1.98955e+08)
(-8.96113e+07 -4.32839e+07 -7.82164e+07 1.1803e+08 -9.14406e+07 7.57913e+06)
(-8.52162e+08 4.59042e+08 -8.1463e+07 9.09508e+08 -1.6195e+09 1.39095e+09)
(-4.07024e+07 3.07493e+07 2.07401e+07 -6.11586e+07 1.63468e+07 -7.64063e+06)
(-6.49971e+08 6.25109e+08 -4.02287e+08 5.55823e+08 -1.47483e+09 1.51035e+09)
(-4.04715e+07 2.66783e+07 1.21293e+07 -8.58625e+07 2.25151e+07 4.47007e+06)
(-5.47319e+08 7.21886e+08 -6.69645e+08 8.37495e+07 -1.21697e+09 1.72197e+09)
(-2.68636e+07 3.68224e+07 1.08586e+07 -1.22805e+08 2.2452e+07 3.92162e+07)
(-4.05153e+08 9.4995e+08 -1.11946e+09 -5.41843e+08 -2.16969e+08 1.83804e+09)
(-5.10114e+06 1.42161e+08 -1.65117e+08 -2.77928e+08 2.74659e+08 2.58502e+08)
(-2.19996e+07 1.21165e+08 -2.59405e+08 -3.92955e+08 4.40092e+08 1.69558e+09)
(-1.95122e+06 -2.92989e+08 4.34177e+08 -2.96092e+08 8.36907e+08 3.69337e+08)
(-7.28038e+07 254856 2.33493e+08 -6.06353e+08 -2.28542e+08 1.01307e+08)
(-1.16071e+09 8.65963e+08 -3.18193e+07 1.73606e+09 -1.8215e+09 1.59326e+09)
(-1.41283e+08 -1.44504e+08 4.55275e+08 -9.69908e+08 -4.07196e+08 3.30014e+08)
(-2.29432e+09 1.76182e+09 -1.5775e+08 8.87952e+08 -2.6385e+09 2.93245e+09)
(-6.62615e+08 -4.94573e+08 9.59173e+08 -6.2173e+08 -1.39222e+09 1.26358e+09)
(-3.38162e+09 4.20279e+09 2.20543e+08 -2.96567e+09 -3.2111e+09 4.61103e+09)
(-6.73037e+09 4.04542e+09 1.41908e+09 -2.82194e+08 -9.4836e+09 9.22943e+09)
(3.67155e+09 6.9093e+08 1.4987e+09 -1.808e+09 -4.1604e+09 6.20455e+09)
(9.75562e+09 -4.66728e+09 1.61345e+09 -1.69473e+10 1.43752e+10 -1.36613e+10)
(4.33519e+09 -5.7788e+09 3.8382e+09 -3.73021e+09 -5.01964e+09 9.4663e+09)
(-1.29899e+09 -3.36312e+08 8.25604e+08 4.05648e+09 -7.19465e+08 -1.31967e+09)
(1.12482e+09 -1.63134e+09 3.27568e+08 -5.61773e+08 -1.79535e+09 -9.89714e+08)
(-2.32759e+09 -2.1316e+08 2.62559e+09 3.77031e+09 -2.3244e+09 -1.82132e+09)
(-1.55827e+08 -5.66673e+09 1.70083e+09 3.89652e+09 -4.28219e+09 -2.51968e+09)
(1.69858e+09 -7.11823e+08 2.48009e+09 -4.31388e+08 -3.43794e+09 -3.71254e+09)
(-2.63151e+10 -1.07889e+10 1.29309e+10 3.45292e+10 -2.17047e+10 -8.58275e+09)
(1.47991e+10 -1.1822e+10 3.47778e+09 6.65775e+09 -8.66347e+09 -8.94189e+09)
(4.496e+10 1.54248e+09 -5.94106e+10 -8.32317e+10 9.07636e+10 -1.9649e+10)
(8.71088e+09 -5.93985e+09 -8.59603e+09 1.04926e+10 -7.47681e+09 2.42692e+10)
(2.90265e+09 -7.09034e+10 8.35168e+10 -5.68606e+10 6.39801e+10 -1.84513e+10)
)
;
    }
    procBoundary18to17
    {
        type            processor;
        value           nonuniform List<symmTensor> 
20
(
(-2.583e+08 8.23848e+07 -1.00844e+09 1.39359e+08 -5.05731e+08 -1.36971e+08)
(-3.11641e+08 3.3079e+08 -1.41498e+09 4.82514e+08 -1.29943e+07 9.29122e+07)
(-1.23711e+08 2.01912e+08 -6.45496e+08 1.83298e+06 -1.13188e+08 2.72132e+07)
(-3.26983e+08 3.3133e+08 -1.02909e+09 3.16202e+08 1.59984e+08 2.86526e+08)
(-2.53029e+08 2.01866e+08 -1.05643e+08 3.53539e+08 2.18078e+08 -1.15094e+08)
(-9.05713e+07 8.79047e+07 -1.07367e+07 5.40048e+07 1.32621e+07 -6.33633e+06)
(-3.53304e+08 1.28399e+08 -1.63963e+08 4.87216e+08 1.76813e+08 -7.68374e+07)
(2.92693e+08 2.84064e+08 2.79623e+08 -4.02176e+08 -2.24708e+08 -3.8815e+07)
(-5.80122e+08 1.71435e+08 1.49768e+08 5.69894e+08 -6.90394e+08 9.31335e+08)
(-2.10589e+08 8.63737e+07 -9.12886e+07 3.65636e+08 -2.77662e+07 -3.81757e+08)
(-7.2721e+06 2.76409e+08 3.0939e+08 -2.86962e+08 -4.64627e+07 6.90406e+08)
(-4.49791e+08 2.33579e+08 -2.90563e+08 8.21785e+08 -1.67253e+07 -5.36657e+08)
(-1.11022e+08 7.09883e+07 3.27596e+07 -1.23184e+08 -1.51961e+08 -2.42495e+08)
(-6.83462e+08 7.97288e+07 1.356e+08 8.92352e+08 -1.98836e+08 1.32455e+09)
(-2.39623e+08 7.59559e+07 -1.63967e+08 3.88947e+08 -1.81636e+08 -1.01701e+09)
(-2.50684e+08 -3.94142e+08 -4.15583e+08 -9.13096e+08 -1.31053e+09 1.91126e+09)
(-8.31417e+08 4.91506e+07 -3.43738e+08 2.0609e+09 -6.30253e+08 4.63227e+08)
(-1.27805e+08 1.29874e+08 1.69726e+08 -8.7274e+07 -2.83772e+07 -7.4067e+07)
(-4.12556e+08 1.30136e+08 -3.11368e+08 2.18589e+08 -3.79306e+08 9.35216e+08)
(-1.03289e+09 7.65654e+08 5.60865e+08 2.90803e+09 2.63984e+09 -1.98588e+09)
)
;
    }
    procBoundary18to19
    {
        type            processor;
        value           nonuniform List<symmTensor> 
20
(
(6.22722e+09 2.47552e+10 8.47231e+09 8.25179e+09 5.29149e+09 -5.26422e+09)
(4.32377e+09 2.73276e+09 -3.50888e+09 1.33391e+09 4.83747e+09 -6.84149e+08)
(7.82525e+09 9.75031e+09 -1.09384e+09 -8.79189e+09 -8.36563e+08 -1.62073e+09)
(3.08763e+09 1.92324e+09 -9.30965e+09 -8.50644e+08 2.71127e+09 -4.09733e+08)
(6.8026e+07 1.71999e+08 -1.45655e+08 1.17943e+08 -4.68267e+07 8.46511e+07)
(1.78799e+09 2.63145e+09 -6.15492e+08 -1.79555e+09 -8.08438e+08 -1.87473e+09)
(-2.25367e+09 -4.84218e+08 -3.45502e+09 1.29052e+09 1.29854e+09 7.65728e+08)
(4.24173e+08 3.28727e+09 -1.32932e+09 1.43664e+09 -9.4941e+08 -1.85384e+08)
(-7.03782e+07 6.20416e+06 2.43863e+07 5.37727e+07 1.65863e+07 -5.79761e+07)
(-4.4861e+08 2.86392e+08 -3.26039e+08 9.15755e+07 1.78883e+08 6.00223e+08)
(7.9375e+07 3.05618e+08 -5.1422e+08 2.20227e+08 1.75209e+08 -3.59786e+08)
(7.93205e+07 2.93856e+08 -6.03934e+08 -3.63888e+08 -2.63701e+08 -7.44361e+07)
(-2.08086e+08 -2.33419e+08 2.66063e+08 -1.00654e+09 -4.34445e+08 2.12555e+09)
(-3.94848e+07 9.13387e+06 4.92636e+06 2.27148e+07 3.19188e+06 -2.45367e+07)
(-1.92799e+08 1.49561e+08 -5.54817e+08 6.30485e+07 1.12629e+08 4.80311e+08)
(9.63852e+06 2.25422e+08 -1.08103e+09 3.62103e+08 -6.20924e+07 -3.20549e+08)
(1.19687e+09 -4.90409e+09 9.58647e+08 -2.47914e+09 6.65394e+08 -7.48286e+08)
(-1.89794e+08 -2.52577e+08 -2.31553e+08 -2.42612e+08 -4.37122e+08 5.61672e+08)
(-7.86763e+07 8.60212e+07 1.13822e+08 -7.8421e+07 -3.94328e+07 2.9562e+07)
(-1.71098e+08 5.37549e+07 -4.04967e+08 -2.96098e+08 -2.12132e+08 4.96501e+08)
)
;
    }
    procBoundary18to26
    {
        type            processor;
        value           nonuniform List<symmTensor> 
50
(
(-3.50314e+08 2.05618e+08 -8.82487e+08 1.29453e+08 2.36009e+08 5.29601e+08)
(-4.05206e+08 1.90549e+08 -6.68537e+08 -1.50466e+08 -2.00783e+07 3.84786e+08)
(-5.84267e+08 3.86223e+08 -1.5027e+09 1.19093e+08 3.07145e+08 8.13124e+08)
(-2.42157e+08 1.29617e+08 -9.05069e+08 -1.51914e+08 6.63766e+07 2.27734e+08)
(5.9647e+07 5.4208e+08 -1.32605e+09 -2.13328e+08 1.02076e+08 3.37643e+08)
(2.51679e+08 4.44499e+08 -8.75825e+08 -2.29406e+08 -7.29324e+06 -1.68218e+08)
(6.45665e+08 6.29759e+08 -1.32715e+09 -2.58503e+08 7.77227e+08 -2.33447e+08)
(1.1614e+09 9.24234e+08 -1.59782e+09 -6.5015e+08 -3.68287e+08 -5.21974e+08)
(1.97907e+07 6.60177e+07 -1.97154e+09 -4.68098e+08 1.30538e+09 1.84028e+08)
(1.58357e+09 2.40056e+08 -3.89827e+09 -2.54397e+08 -1.42798e+08 -9.09568e+08)
(2.63376e+08 3.65592e+08 5.13032e+08 -1.51226e+08 -2.38607e+08 -2.4664e+08)
(-6.45924e+08 8.87518e+06 -6.45449e+07 6.88411e+08 2.94521e+08 2.43483e+08)
(-2.7057e+08 -735191 -1.24578e+08 5.33808e+07 -8.22266e+07 4.21784e+07)
(-6.67968e+08 5.03071e+08 -6.2755e+08 1.39487e+09 3.45919e+08 3.28962e+08)
(-1.29086e+08 3.40877e+07 -1.98517e+08 1.91497e+07 2.76439e+07 -1.15632e+08)
(5.90062e+08 1.59102e+09 -9.35003e+08 -2.96706e+08 7.5061e+08 -7.26724e+07)
(5.65967e+08 3.78196e+07 -1.81819e+08 -6.88669e+08 -5.57928e+08 -3.57121e+08)
(2.28448e+08 6.86964e+08 4.66136e+08 1.12511e+09 6.7134e+08 -5.06594e+08)
(8.56841e+08 9.71726e+08 -7.0535e+06 -1.34786e+09 -6.3111e+08 -2.66727e+08)
(-7.75763e+08 -1.48629e+08 -1.62675e+09 8.97593e+08 7.94243e+08 3.23145e+08)
(-5.0378e+08 3.47593e+08 -4.9375e+08 1.13522e+09 -9.92366e+07 3.98675e+08)
(1.46535e+08 5.17804e+08 7.15013e+08 1.00292e+07 -3.01362e+08 -3.71625e+08)
(-3.13916e+08 5.90875e+08 -5.49462e+08 1.43619e+09 -2.5998e+07 -6.13845e+07)
(-1.94307e+08 -1.192e+08 -1.82505e+08 -3.50224e+07 -3.40773e+07 2.876e+07)
(4.42257e+08 1.58799e+09 -1.26042e+09 3.10266e+08 8.76346e+08 -8.03017e+07)
(3.83767e+08 4.23468e+07 -886786 -7.1768e+08 -1.86793e+08 4.88069e+07)
(-1.78467e+08 1.17798e+09 -7.94956e+08 9.71193e+08 4.70334e+08 6.72631e+06)
(-2.23854e+07 5.32004e+08 3.37347e+07 -9.168e+08 -1.88392e+08 5.11362e+08)
(-9.13245e+08 -5.99604e+08 -2.44771e+07 1.71598e+09 -3.62299e+08 2.26114e+08)
(4.34451e+07 3.63762e+08 -1.61965e+08 -5.19017e+08 -3.81828e+08 1.35618e+08)
(5.29189e+08 1.66424e+08 7.7034e+08 -1.19572e+09 -3.19454e+09 3.15282e+07)
(2.52326e+08 3.64059e+08 -1.56082e+09 2.13121e+09 7.45812e+08 -5.37882e+08)
(1.56828e+08 4.30897e+08 6.82008e+08 3.87665e+08 -3.27003e+08 -1.61326e+09)
(1.42445e+09 1.88871e+09 -1.39195e+09 1.53385e+09 3.45878e+08 -1.42976e+09)
(-9.98509e+08 -5.26044e+08 -6.46885e+08 -1.04243e+09 -2.44215e+08 9.82977e+08)
(-5.31617e+08 9.24429e+08 -1.95391e+09 1.5273e+09 1.93002e+07 -3.74813e+08)
(-8.25089e+07 8.14373e+08 6.28687e+08 -9.97082e+08 -2.86724e+08 6.74887e+08)
(-9.19989e+08 -4.92261e+07 1.75969e+08 1.59544e+09 -5.63978e+08 -3.68921e+08)
(-1.48384e+08 1.27722e+08 -4.67418e+08 -4.66138e+08 -1.5582e+08 4.18769e+08)
(1.73599e+08 8.30525e+08 -1.62346e+09 1.2842e+09 -6.45336e+08 -5.92699e+08)
(-4.76629e+08 1.89451e+09 1.89643e+09 5.0822e+09 4.84738e+09 -7.28869e+08)
(1.77196e+09 -1.96484e+09 -7.02515e+09 -6.41572e+09 -1.48775e+10 3.51284e+08)
(-2.49652e+09 -1.25168e+09 -1.71342e+09 1.50386e+09 1.83561e+09 2.92701e+09)
(-9.69534e+08 4.62501e+08 2.61649e+09 9.52793e+06 -2.44259e+08 2.07445e+08)
(1.11473e+09 9.55595e+08 -9.52988e+07 1.89793e+09 1.62628e+09 -1.23224e+09)
(-1.95243e+08 7.0822e+07 8.2065e+07 -6.57266e+08 -5.39004e+08 2.83493e+08)
(-5.39234e+08 1.08389e+08 -1.13137e+09 2.35336e+09 1.03116e+09 -6.14169e+08)
(-2.35566e+08 -1.05546e+08 -1.80653e+08 -1.66716e+08 -3.35584e+08 1.05221e+08)
(-2.09523e+08 2.24872e+08 2.30575e+08 1.0291e+09 3.79291e+08 -5.10093e+08)
(-6.31304e+07 5.96218e+07 -2.27582e+08 -1.8416e+08 -1.43763e+08 1.21226e+08)
)
;
    }
}


// ************************************************************************* //
