/*--------------------------------*- C++ -*----------------------------------*\
| =========                 |                                                 |
| \\      /  F ield         | OpenFOAM: The Open Source CFD Toolbox           |
|  \\    /   O peration     | Version:  2.4.0                                 |
|   \\  /    A nd           | Web:      www.OpenFOAM.org                      |
|    \\/     M anipulation  |                                                 |
\*---------------------------------------------------------------------------*/
FoamFile
{
    version     2.0;
    format      ascii;
    class       volVectorField;
    location    "0.07";
    object      A_Source;
}
// * * * * * * * * * * * * * * * * * * * * * * * * * * * * * * * * * * * * * //

dimensions      [1 -2 -2 0 0 0 0];

internalField   nonuniform List<vector> 
200
(
(2.22995e-151 -1.2213e-150 2.42677e-151)
(1.11341e-153 -6.09692e-153 1.21168e-153)
(5.61808e-156 -3.07586e-155 6.11394e-156)
(2.85789e-158 -1.56439e-157 3.11014e-158)
(1.46236e-160 -8.00335e-160 1.59143e-160)
(7.51196e-163 -4.11044e-162 8.17498e-163)
(3.86739e-165 -2.11578e-164 4.20873e-165)
(1.99277e-167 -1.09e-166 2.16866e-167)
(1.02661e-169 -5.61427e-169 1.11722e-169)
(5.28309e-172 -2.88867e-171 5.74939e-172)
(1.48674e-153 -8.14784e-153 1.61797e-153)
(7.46011e-156 -4.08787e-155 8.11855e-156)
(3.7467e-158 -2.05278e-157 4.07739e-158)
(1.88558e-160 -1.03294e-159 2.052e-160)
(9.51499e-163 -5.21161e-162 1.03548e-162)
(4.81546e-165 -2.63713e-164 5.24048e-165)
(2.44399e-167 -1.33819e-166 2.6597e-167)
(1.24354e-169 -6.80775e-169 1.3533e-169)
(6.34057e-172 -3.47052e-171 6.9002e-172)
(3.23792e-174 -1.77196e-173 3.52371e-174)
(8.7618e-156 -4.80435e-155 9.53513e-156)
(4.49096e-158 -2.46224e-157 4.88734e-158)
(2.2938e-160 -1.25746e-159 2.49625e-160)
(1.16863e-162 -6.40567e-162 1.27178e-162)
(5.9443e-165 -3.25787e-164 6.46895e-165)
(3.02106e-167 -1.65552e-166 3.28771e-167)
(1.53505e-169 -8.41082e-169 1.67054e-169)
(7.80169e-172 -4.27408e-171 8.49028e-172)
(3.96727e-174 -2.1731e-173 4.31743e-174)
(2.01881e-176 -1.10565e-175 2.197e-176)
(4.74748e-158 -2.57828e-157 5.16651e-158)
(2.48331e-160 -1.34826e-159 2.70249e-160)
(1.29313e-162 -7.0187e-162 1.40726e-162)
(6.70646e-165 -3.63899e-164 7.29838e-165)
(3.46584e-167 -1.88006e-166 3.77174e-167)
(1.78575e-169 -9.6841e-169 1.94337e-169)
(9.17832e-172 -4.97599e-171 9.98842e-172)
(4.70816e-174 -2.55181e-173 5.12371e-174)
(2.41147e-176 -1.30666e-175 2.62431e-176)
(1.23372e-178 -6.68325e-178 1.34261e-178)
(6.7753e-153 -3.7101e-152 7.3733e-153)
(3.42723e-155 -1.87641e-154 3.72972e-155)
(1.75172e-157 -9.58902e-157 1.90633e-157)
(9.02498e-160 -4.93942e-159 9.82154e-160)
(4.6764e-162 -2.55894e-161 5.08915e-162)
(2.43222e-164 -1.33066e-163 2.64689e-164)
(1.26763e-166 -6.93387e-166 1.37952e-166)
(6.61142e-169 -3.61572e-168 7.19496e-169)
(3.44699e-171 -1.88477e-170 3.75122e-171)
(1.79497e-173 -9.81288e-173 1.9534e-173)
(4.5773e-155 -2.50813e-154 4.9813e-155)
(2.32645e-157 -1.27462e-156 2.53178e-157)
(1.18332e-159 -6.48229e-159 1.28776e-159)
(6.03021e-162 -3.30291e-161 6.56244e-162)
(3.08081e-164 -1.68719e-163 3.35273e-164)
(1.57834e-166 -8.64227e-166 1.71764e-166)
(8.1078e-169 -4.43872e-168 8.82341e-169)
(4.17489e-171 -2.2852e-170 4.54338e-171)
(2.15395e-173 -1.17879e-172 2.34406e-173)
(1.11284e-175 -6.08915e-175 1.21107e-175)
(2.73267e-157 -1.49819e-156 2.97386e-157)
(1.41853e-159 -7.77624e-159 1.54374e-159)
(7.33653e-162 -4.02133e-161 7.98406e-162)
(3.78424e-164 -2.07398e-163 4.11824e-164)
(1.9485e-166 -1.06776e-165 2.12048e-166)
(1.00229e-168 -5.49172e-168 1.09075e-168)
(5.15379e-171 -2.82346e-170 5.60867e-171)
(2.65034e-173 -1.45176e-172 2.88427e-173)
(1.3635e-175 -7.46763e-175 1.48384e-175)
(7.0186e-178 -3.84336e-177 7.63808e-178)
(1.49972e-159 -8.14262e-159 1.63209e-159)
(7.94362e-162 -4.31168e-161 8.64474e-162)
(4.18793e-164 -2.27248e-163 4.55756e-164)
(2.19863e-166 -1.19269e-165 2.39268e-166)
(1.15001e-168 -6.23663e-168 1.25151e-168)
(5.99631e-171 -3.25094e-170 6.52556e-171)
(3.11841e-173 -1.69019e-172 3.39364e-173)
(1.61833e-175 -8.769e-175 1.76116e-175)
(8.38462e-178 -4.54205e-177 9.12467e-178)
(4.33857e-180 -2.34966e-179 4.7215e-180)
(1.05364e-154 -5.76873e-154 1.14664e-154)
(5.39941e-157 -2.95571e-156 5.87597e-157)
(2.79539e-159 -1.52997e-158 3.04212e-159)
(1.45859e-161 -7.98166e-161 1.58733e-161)
(7.65326e-164 -4.1872e-163 8.32875e-164)
(4.03013e-166 -2.20452e-165 4.38584e-166)
(2.12632e-168 -1.16289e-167 2.314e-168)
(1.1225e-170 -6.13783e-170 1.22157e-170)
(5.92276e-173 -3.23796e-172 6.44551e-173)
(3.12085e-175 -1.70585e-174 3.39631e-175)
(7.21268e-157 -3.9516e-156 7.84929e-157)
(3.71314e-159 -2.03405e-158 4.04087e-159)
(1.91267e-161 -1.04762e-160 2.08148e-161)
(9.86951e-164 -5.405e-163 1.07406e-163)
(5.10492e-166 -2.79526e-165 5.55549e-166)
(2.64741e-168 -1.44938e-167 2.88107e-168)
(1.37645e-170 -7.53442e-170 1.49794e-170)
(7.17266e-173 -3.92548e-172 7.80573e-173)
(3.74444e-175 -2.04891e-174 4.07494e-175)
(1.95725e-177 -1.07079e-176 2.13e-177)
(4.36193e-159 -2.3911e-158 4.74692e-159)
(2.29312e-161 -1.25688e-160 2.49551e-161)
(1.20089e-163 -6.58141e-163 1.30688e-163)
(6.27114e-166 -3.43646e-165 6.82464e-166)
(3.26858e-168 -1.7909e-167 3.55708e-168)
(1.70169e-170 -9.32253e-170 1.85188e-170)
(8.85482e-173 -4.85036e-172 9.63636e-173)
(4.60746e-175 -2.52344e-174 5.01412e-175)
(2.39808e-177 -1.3132e-176 2.60973e-177)
(1.24868e-179 -6.83673e-179 1.35889e-179)
(2.42462e-161 -1.31608e-160 2.63862e-161)
(1.30041e-163 -7.05659e-163 1.41519e-163)
(6.941e-166 -3.76538e-165 7.55363e-166)
(3.68866e-168 -2.00045e-167 4.01422e-168)
(1.95275e-170 -1.05872e-169 2.1251e-170)
(1.03038e-172 -5.58476e-172 1.12132e-172)
(5.42187e-175 -2.93789e-174 5.90041e-175)
(2.8466e-177 -1.54204e-176 3.09785e-177)
(1.49187e-179 -8.07949e-179 1.62354e-179)
(7.80772e-182 -4.22734e-181 8.49684e-182)
(1.10961e-156 -6.07414e-156 1.20754e-156)
(5.75972e-159 -3.15243e-158 6.26808e-159)
(3.02005e-161 -1.65266e-160 3.28661e-161)
(1.59574e-163 -8.73072e-163 1.73658e-163)
(8.47748e-166 -4.63738e-165 9.22572e-166)
(4.5193e-168 -2.47169e-167 4.91818e-168)
(2.41351e-170 -1.31974e-169 2.62653e-170)
(1.28948e-172 -7.04969e-172 1.40329e-172)
(6.88488e-175 -3.76333e-174 7.49255e-175)
(3.67055e-177 -2.00598e-176 3.99452e-177)
(7.69544e-159 -4.21545e-158 8.37466e-159)
(4.0122e-161 -2.19754e-160 4.36632e-161)
(2.09275e-163 -1.14608e-162 2.27746e-163)
(1.09331e-165 -5.98658e-165 1.18981e-165)
(5.72462e-168 -3.13411e-167 6.22988e-168)
(3.00488e-170 -1.64484e-169 3.27009e-170)
(1.58108e-172 -8.65323e-172 1.72063e-172)
(8.33688e-175 -4.56195e-174 9.07271e-175)
(4.40335e-177 -2.40909e-176 4.792e-177)
(2.32841e-179 -1.27365e-178 2.53392e-179)
(4.71372e-161 -2.58357e-160 5.12976e-161)
(2.50929e-163 -1.37517e-162 2.73076e-163)
(1.33045e-165 -7.29043e-165 1.44787e-165)
(7.03311e-168 -3.85346e-167 7.65387e-168)
(3.71024e-170 -2.0326e-169 4.03771e-170)
(1.9548e-172 -1.07077e-171 2.12733e-172)
(1.02925e-174 -5.63708e-174 1.12009e-174)
(5.41832e-177 -2.96712e-176 5.89655e-177)
(2.85279e-179 -1.56198e-178 3.10458e-179)
(1.50247e-181 -8.22514e-181 1.63508e-181)
(2.65347e-163 -1.43992e-162 2.88767e-163)
(1.44088e-165 -7.81676e-165 1.56805e-165)
(7.78535e-168 -4.22231e-167 8.4725e-168)
(4.18763e-170 -2.27045e-169 4.55724e-170)
(2.24351e-172 -1.21603e-171 2.44152e-172)
(1.19783e-174 -6.49066e-174 1.30355e-174)
(6.37687e-177 -3.45445e-176 6.9397e-177)
(3.38678e-179 -1.83417e-178 3.6857e-179)
(1.79529e-181 -9.72013e-181 1.95374e-181)
(9.50203e-184 -5.14332e-183 1.03407e-183)
(8.94521e-159 -4.89593e-158 9.60912e-159)
(4.70298e-161 -2.57363e-160 5.0512e-161)
(2.49733e-163 -1.36639e-162 2.6818e-163)
(1.33614e-165 -7.30919e-165 1.4346e-165)
(7.18663e-168 -3.93061e-167 7.71495e-168)
(3.87826e-170 -2.12074e-169 4.16268e-170)
(2.09634e-172 -1.14612e-171 2.24971e-172)
(1.13348e-174 -6.19581e-174 1.2162e-174)
(6.12384e-177 -3.34678e-176 6.5697e-177)
(3.30314e-179 -1.80489e-178 3.54305e-179)
(6.28473e-161 -3.44215e-160 6.75006e-161)
(3.31827e-163 -1.81719e-162 3.56337e-163)
(1.75249e-165 -9.59593e-165 1.88163e-165)
(9.26897e-168 -5.07458e-167 9.95037e-168)
(4.91269e-170 -2.68919e-169 5.27297e-170)
(2.60991e-172 -1.42842e-171 2.80086e-172)
(1.3897e-174 -7.60465e-174 1.49113e-174)
(7.41451e-177 -4.05661e-176 7.95436e-177)
(3.96203e-179 -2.16731e-178 4.2498e-179)
(2.11931e-181 -1.15909e-180 2.27286e-181)
(3.89884e-163 -2.13663e-162 4.18682e-163)
(2.10153e-165 -1.15154e-164 2.25639e-165)
(1.12805e-167 -6.1805e-167 1.21098e-167)
(6.03619e-170 -3.30677e-169 6.47886e-170)
(3.22283e-172 -1.76533e-171 3.45862e-172)
(1.7183e-174 -9.41084e-174 1.8437e-174)
(9.15415e-177 -5.0129e-176 9.82065e-177)
(4.87535e-179 -2.6694e-178 5.22945e-179)
(2.59657e-181 -1.42149e-180 2.78471e-181)
(1.38315e-183 -7.57086e-183 1.48313e-183)
(2.22252e-165 -1.20575e-164 2.3863e-165)
(1.22183e-167 -6.62666e-167 1.31165e-167)
(6.68264e-170 -3.6233e-169 7.17271e-170)
(3.63799e-172 -1.97192e-171 3.90414e-172)
(1.97234e-174 -1.06877e-173 2.11628e-174)
(1.06549e-176 -5.77201e-176 1.14307e-176)
(5.73858e-179 -3.10784e-178 6.15537e-179)
(3.08296e-181 -1.66919e-180 3.30634e-181)
(1.6529e-183 -8.94679e-183 1.77237e-183)
(8.84715e-186 -4.78756e-185 9.48505e-186)
)
;

boundaryField
{
    inlet
    {
        type            zeroGradient;
    }
    outlet
    {
        type            zeroGradient;
    }
    bottom
    {
        type            zeroGradient;
    }
    top
    {
        type            symmetryPlane;
    }
    side1
    {
        type            symmetryPlane;
    }
    side2
    {
        type            symmetryPlane;
    }
    procBoundary30to22
    {
        type            processor;
        value           nonuniform List<vector> 
50
(
(4.71571e-148 -2.57972e-147 5.13192e-148)
(2.34678e-150 -1.28359e-149 2.55391e-150)
(1.16438e-152 -6.36768e-152 1.26715e-152)
(5.76085e-155 -3.14994e-154 6.26931e-155)
(2.84269e-157 -1.5541e-156 3.09359e-157)
(1.39936e-159 -7.64905e-159 1.52287e-159)
(6.87374e-162 -3.75667e-161 7.48043e-162)
(3.37006e-164 -1.84152e-163 3.6675e-164)
(1.64958e-166 -9.01244e-166 1.79518e-166)
(8.06314e-169 -4.40453e-168 8.77481e-169)
(1.4304e-149 -7.82359e-149 1.55665e-149)
(7.2117e-152 -3.94381e-151 7.84822e-152)
(3.62445e-154 -1.98176e-153 3.94435e-154)
(1.8161e-156 -9.92839e-156 1.97639e-156)
(9.0744e-159 -4.96009e-158 9.87532e-159)
(4.52254e-161 -2.47164e-160 4.92171e-161)
(2.24877e-163 -1.2288e-162 2.44725e-163)
(1.11589e-165 -6.09659e-165 1.21438e-165)
(5.5275e-168 -3.01941e-167 6.01537e-168)
(2.7338e-170 -1.49309e-169 2.97508e-170)
(2.22079e-151 -1.21445e-150 2.4168e-151)
(1.1343e-153 -6.20196e-153 1.23441e-153)
(5.77427e-156 -3.15667e-155 6.28392e-156)
(2.93013e-158 -1.60159e-157 3.18875e-158)
(1.48249e-160 -8.10187e-160 1.61333e-160)
(7.48018e-163 -4.08732e-162 8.14039e-163)
(3.76501e-165 -2.05695e-164 4.09731e-165)
(1.8909e-167 -1.0329e-166 2.0578e-167)
(9.47851e-170 -5.17674e-169 1.03151e-169)
(4.74331e-172 -2.59015e-171 5.16196e-172)
(2.33498e-153 -1.27667e-152 2.54107e-153)
(1.20804e-155 -6.60399e-155 1.31467e-155)
(6.22817e-158 -3.4042e-157 6.77787e-158)
(3.20029e-160 -1.74894e-159 3.48275e-160)
(1.63932e-162 -8.95738e-162 1.78401e-162)
(8.37317e-165 -4.57445e-164 9.1122e-165)
(4.26564e-167 -2.33005e-166 4.64213e-167)
(2.16804e-169 -1.18407e-168 2.35939e-169)
(1.09965e-171 -6.00474e-171 1.19671e-171)
(5.56743e-174 -3.03963e-173 6.05882e-174)
(1.87938e-155 -1.02738e-154 2.01891e-155)
(9.84838e-158 -5.38283e-157 1.05778e-157)
(5.14189e-160 -2.80995e-159 5.52182e-160)
(2.67525e-162 -1.46175e-161 2.87245e-162)
(1.38735e-164 -7.57922e-164 1.48937e-164)
(7.17287e-167 -3.918e-166 7.69909e-167)
(3.69834e-169 -2.0198e-168 3.96901e-169)
(1.90216e-171 -1.03868e-170 2.04104e-171)
(9.76189e-174 -5.32962e-173 1.04729e-173)
(5.00006e-176 -2.72938e-175 5.36336e-176)
)
;
    }
    procBoundary30to29
    {
        type            processor;
        value           nonuniform List<vector> 
20
(
(4.54553e-148 -2.48865e-147 4.94673e-148)
(2.23336e-150 -1.22368e-149 2.43048e-150)
(1.15094e-152 -6.31098e-152 1.25252e-152)
(6.07283e-155 -3.29801e-154 6.60883e-155)
(1.37788e-149 -7.54257e-149 1.4995e-149)
(6.85473e-152 -3.75519e-151 7.45974e-152)
(3.57712e-154 -1.96118e-153 3.89285e-154)
(1.9116e-156 -1.03788e-155 2.08033e-156)
(2.13788e-151 -1.17008e-150 2.32657e-151)
(1.07684e-153 -5.89827e-153 1.17188e-153)
(5.69025e-156 -3.11927e-155 6.19248e-156)
(3.07969e-158 -1.67162e-157 3.35151e-158)
(2.24638e-153 -1.22926e-152 2.44465e-153)
(1.14547e-155 -6.27323e-155 1.24657e-155)
(6.1284e-158 -3.35897e-157 6.6693e-158)
(3.35876e-160 -1.82262e-159 3.6552e-160)
(1.80694e-155 -9.88623e-155 1.9411e-155)
(9.32722e-158 -5.10729e-157 1.00182e-157)
(5.05207e-160 -2.76863e-159 5.42547e-160)
(2.80369e-162 -1.521e-161 3.01042e-162)
)
;
    }
    procBoundary30to31
    {
        type            processor;
        value           nonuniform List<vector> 
20
(
(1.46168e-175 -7.99377e-175 1.59069e-175)
(1.04132e-177 -5.69925e-177 1.13322e-177)
(6.72241e-180 -3.68171e-179 7.31574e-180)
(4.05995e-182 -2.19972e-181 4.41829e-182)
(4.97137e-177 -2.71835e-176 5.41015e-177)
(3.58313e-179 -1.9608e-178 3.89938e-179)
(2.3399e-181 -1.28133e-180 2.54642e-181)
(1.4294e-183 -7.74261e-183 1.55556e-183)
(8.65248e-179 -4.73042e-178 9.41616e-179)
(6.30931e-181 -3.45213e-180 6.86619e-181)
(4.16783e-183 -2.28198e-182 4.53569e-183)
(2.5753e-185 -1.39459e-184 2.8026e-185)
(1.01868e-180 -5.56837e-180 1.10859e-180)
(7.51436e-183 -4.11085e-182 8.17759e-183)
(5.02076e-185 -2.7486e-184 5.4639e-185)
(3.13767e-187 -1.69869e-186 3.41461e-187)
(9.17631e-183 -5.01518e-182 9.84265e-183)
(6.84727e-185 -3.74534e-184 7.34327e-185)
(4.62733e-187 -2.53285e-186 4.96171e-187)
(2.92466e-189 -1.58295e-188 3.13549e-189)
)
;
    }
}


// ************************************************************************* //
