/*--------------------------------*- C++ -*----------------------------------*\
| =========                 |                                                 |
| \\      /  F ield         | OpenFOAM: The Open Source CFD Toolbox           |
|  \\    /   O peration     | Version:  2.4.0                                 |
|   \\  /    A nd           | Web:      www.OpenFOAM.org                      |
|    \\/     M anipulation  |                                                 |
\*---------------------------------------------------------------------------*/
FoamFile
{
    version     2.0;
    format      ascii;
    class       volVectorField;
    location    "0.04";
    object      U;
}
// * * * * * * * * * * * * * * * * * * * * * * * * * * * * * * * * * * * * * //

dimensions      [0 1 -1 0 0 0 0];

internalField   nonuniform List<vector> 
200
(
(-157.494 -82.3372 20.9418)
(-229.662 23.6873 75.385)
(-164.426 -123.934 18.4468)
(-231.519 20.8795 3.10104)
(-135.386 -160.158 29.0787)
(-191.81 14.4406 -87.2895)
(-92.9296 -94.801 -3.02977)
(-73.4573 24.9218 -18.5809)
(-48.7297 -38.0088 103.952)
(88.6012 55.5382 629.786)
(-272.19 66.4572 43.4331)
(-156.627 -150.221 28.8702)
(-285.078 51.903 -20.9471)
(-162.7 -172.689 18.1056)
(-268.942 28.3481 -121.845)
(-151.742 -127.874 -49.5532)
(-174.986 -28.8091 -86.1989)
(-131.64 -100.906 -126.854)
(163.539 -218.179 215.737)
(-393.443 229.942 2734.38)
(-156.496 -165.705 23.4404)
(-309.216 77.0312 -42.0829)
(-184.507 -160.903 11.7419)
(-304.941 49.0607 -116.774)
(-205.587 -129.247 -31.0669)
(-271.091 9.02302 -93.9029)
(-206.861 -106.581 -93.7035)
(-241.163 -90.6183 -26.2623)
(-240.142 -117.906 -101.799)
(-280.192 -401.346 172.973)
(-300.328 112.062 -46.0367)
(-191.637 -119.264 -19.3494)
(-301.248 81.4832 -91.0345)
(-212.968 -101.744 -46.2112)
(-289.751 51.5225 -87.5449)
(-230.439 -65.9463 -74.0958)
(-274.412 23.9597 -31.166)
(-262.102 -51.8689 -82.3203)
(-313.526 -40.8902 43.7826)
(-358.937 23.6871 -25.6832)
(-198.652 55.9873 1.84146)
(-147.215 -16.8453 -19.8367)
(-164.917 41.9033 25.1256)
(-145.161 -67.5923 -45.7878)
(-148.011 2.11943 2.41863)
(-127.764 -59.8125 -117.852)
(-153.896 -72.7863 -18.0908)
(-136.744 -118.119 -93.0419)
(-126.262 -159.126 36.1542)
(-32.3415 -299.161 174.235)
(-164.842 -8.60076 26.7052)
(-217.347 79.9871 29.7383)
(-164.559 -43.2542 -7.98122)
(-199.093 62.0242 17.7648)
(-175.203 -56.4998 -82.1117)
(-213.981 10.6304 -26.024)
(-205.049 -17.2606 -170.061)
(-283.117 -79.727 -6.77014)
(-389.421 -94.794 -154.756)
(-189.591 -238.199 -5.63692)
(-253.872 102.769 17.3245)
(-174.347 -32.775 8.65088)
(-234.149 75.2586 16.9276)
(-184.142 -52.5494 -30.7631)
(-223.194 50.5597 -0.800059)
(-199.08 -40.6244 -116.097)
(-221.976 12.1685 19.167)
(-204.409 21.4539 -145.365)
(-258.885 -23.694 77.2323)
(-263.823 85.542 -36.2672)
(-180.076 -24.7412 -35.404)
(-244.129 87.987 12.2675)
(-166.592 -38.6128 -43.5186)
(-229.234 59.5609 3.40352)
(-185.952 -37.401 -68.8084)
(-226.033 41.7854 27.631)
(-210.673 -21.9946 -88.462)
(-237.283 12.4464 89.0317)
(-223.321 32.9743 -43.4366)
(-263.961 -29.2463 196.72)
(-145.28 22.0793 -77.695)
(-169.054 55.7763 -3.01237)
(-164.293 -21.0677 -125.271)
(-166.665 11.9877 -21.1169)
(-167.383 9.11481 -204.212)
(-192.754 -42.1696 4.73703)
(-195.997 -14.026 -191.377)
(-211.984 -58.072 60.6012)
(-190.726 -21.0597 -106.87)
(-174.742 -88.1085 24.5119)
(-202.649 86.2685 -15.0018)
(-174.614 18.8751 -69.6861)
(-190.288 69.7771 6.18509)
(-183.231 -14.0213 -148.81)
(-184.065 31.6417 -10.3304)
(-176.587 21.8011 -203.212)
(-214.638 -24.5765 27.8061)
(-216.857 6.68538 -167.222)
(-249.603 -37.0234 115.403)
(-278.023 6.40641 -27.0061)
(-171.886 31.2355 -33.3584)
(-218.161 86.6617 9.19835)
(-176.007 -1.10829 -75.2347)
(-191.366 64.3934 11.5892)
(-173.134 -21.0086 -157.947)
(-180.571 33.9378 17.0288)
(-158.86 21.6373 -182.257)
(-194.105 -12.693 65.4254)
(-170.183 17.2947 -132.199)
(-183.131 -16.2237 164.33)
(-244.721 105.449 13.9525)
(-154.192 -2.08191 -76.8145)
(-196.849 78.4053 19.5078)
(-142.031 -17.817 -88.3719)
(-168.56 59.0656 27.7961)
(-143.43 -24.3449 -120.032)
(-161.142 37.047 62.437)
(-129.617 18.7307 -104.656)
(-160.149 -5.83282 130.917)
(-127.547 24.5575 -3.82121)
(-158.014 85.8671 -3.62798)
(-174.258 1.32701 -102.985)
(-182.946 39.475 2.92859)
(-190.83 15.828 -172.499)
(-232.595 -13.9659 33.7449)
(-250.142 5.73712 -193.942)
(-273.219 -12.0796 76.1677)
(-275.473 34.6604 -147.335)
(-269.254 -10.7135 -4.18794)
(-302.237 45.7074 -32.3929)
(-137.316 60.6181 -17.1874)
(-189.906 89.8997 20.0575)
(-182.022 2.44292 -120.012)
(-197.822 52.4952 19.7494)
(-189.362 25.8212 -182.424)
(-233.001 12.8894 53.9406)
(-230.542 25.8905 -184.642)
(-256.534 10.2941 95.3393)
(-254.346 42.9143 -132.688)
(-244.055 16.9374 59.8315)
(-196.551 116.401 35.5958)
(-145.983 23.5191 -42.9148)
(-192.346 80.3651 35.7037)
(-163.382 -18.669 -135.071)
(-182.514 53.9792 47.2547)
(-152.257 17.0462 -170.722)
(-195.553 22.1872 82.8288)
(-165.314 22.1575 -159.885)
(-190.745 16.628 136.08)
(-165.853 29.1205 -107.215)
(-137.584 -0.402291 -57.6899)
(-185.272 111.619 64.0304)
(-108.921 -12.2351 -60.8127)
(-155.326 74.7317 58.1006)
(-112.092 -32.8833 -101.29)
(-140.728 56.5063 89.5078)
(-96.7154 3.16264 -103.679)
(-134.966 26.4635 130.163)
(-86.6016 19.4705 -65.7127)
(-108.707 13.2373 202.113)
(-93.7742 61.0289 -8.38976)
(-135.59 56.7524 9.77658)
(-161.498 8.56187 -137.238)
(-223.366 -7.58164 46.6832)
(-253.422 2.58744 -189.831)
(-289.211 -1.5863 87.7347)
(-312.531 19.851 -153.275)
(-320.615 -7.22361 8.28632)
(-358.334 36.1647 -51.525)
(-357.813 -41.8127 -46.4606)
(-162.555 117.241 45.6692)
(-120.082 21.163 -29.2582)
(-171.698 56.2429 28.2864)
(-164.268 7.89604 -153.298)
(-222.254 23.0087 64.8859)
(-223.481 16.4779 -183.869)
(-259.911 17.6745 95.2433)
(-267.2 24.7946 -150.132)
(-272.429 11.162 51.188)
(-294.306 31.9507 -73.4756)
(-114.306 9.10272 -21.2782)
(-166.314 111.777 66.3569)
(-103.648 -20.9588 -54.0313)
(-161.72 56.2634 47.8466)
(-121.348 -8.24197 -152.102)
(-180.777 30.6088 83.4225)
(-144.525 0.821505 -169.566)
(-183.121 15.3433 115.442)
(-150.806 -8.23435 -144.465)
(-157.152 -9.02672 112.47)
(-195.282 130.669 95.2121)
(-74.1972 -45.2283 -48.5924)
(-133.691 107.183 83.8948)
(-54.8169 -50.4005 -60.9238)
(-114.266 65.4983 68.4079)
(-53.4925 -32.1801 -104.438)
(-111.028 37.3717 90.9209)
(-53.0417 -16.7481 -110.975)
(-96.8501 16.6057 120.174)
(-48.1359 -10.7785 -79.647)
)
;

boundaryField
{
    inlet
    {
        type            calculated;
        value           nonuniform 0();
    }
    outlet
    {
        type            calculated;
        value           nonuniform 0();
    }
    bottom
    {
        type            calculated;
        value           uniform (0 0 0);
    }
    top
    {
        type            symmetryPlane;
    }
    side1
    {
        type            symmetryPlane;
    }
    side2
    {
        type            symmetryPlane;
    }
    procBoundary30to22
    {
        type            processor;
        value           nonuniform List<vector> 
50
(
(-182.689 13.8077 23.8579)
(-136.562 -74.333 20.1869)
(-146.953 19.0368 7.65289)
(-126.066 -81.4052 32.3621)
(-103.498 46.1984 -21.0635)
(-81.5787 -78.6043 56.8909)
(-49.9058 75.9344 -27.1541)
(-70.1896 -6.83785 89.3212)
(4.82616 76.7681 378.743)
(-105.901 549.827 -731.682)
(-101.723 -13.8223 -25.2895)
(-130.994 25.853 -41.4425)
(-113.616 -43.4369 -76.6247)
(-102.291 -4.9951 -27.7679)
(-103.975 -68.8897 -109.531)
(-88.618 -38.6127 -15.1801)
(-73.0776 -85.529 -72.0569)
(-63.8747 -34.651 2.45266)
(-0.99918 -113.785 15.6829)
(66.066 -42.414 279.143)
(-115.186 36.5406 -60.1774)
(-118.607 -23.8614 -121.47)
(-128.638 7.26583 -30.1743)
(-150.224 -30.9662 -178.01)
(-149.532 -62.3443 -19.0102)
(-154.419 -45.9507 -217.041)
(-155.657 -56.1788 71.5072)
(-131.8 -16.4284 -111.885)
(-118.979 -34.5334 -8.82171)
(-103.159 -27.6488 -97.5616)
(-140.937 -49.1165 -125.049)
(-150.325 15.4531 -12.5597)
(-179.26 -4.41569 -157.286)
(-196.903 -52.8899 0.512147)
(-216.761 -47.3481 -241.037)
(-227.491 -42.3429 120.915)
(-233.107 16.5622 -180.994)
(-221.036 -32.0304 -7.97277)
(-265.051 37.8409 -40.0257)
(-256.391 -80.968 -66.8257)
(-46.783 14.2338 -16.1212)
(-138.174 -43.2794 -179.369)
(-202.081 -92.0924 15.2218)
(-215.823 -58.5443 -226.767)
(-248.435 -40.9482 140.889)
(-275.193 -16.8542 -195.062)
(-279.705 -22.5648 18.4887)
(-328.929 29.4651 -53.2525)
(-323.686 -53.3878 -61.7868)
(-363.06 36.3594 11.913)
)
;
    }
    procBoundary30to29
    {
        type            processor;
        value           nonuniform List<vector> 
20
(
(-229.73 41.0248 36.6546)
(-144.068 -114.036 40.8972)
(-293.952 103.64 -5.71377)
(-171.5 -134.343 -19.3192)
(-141.633 -20.2891 37.8836)
(-243.213 98.0103 2.32667)
(-176.739 -24.8055 29.8873)
(-292.993 105.474 9.44039)
(-166.003 59.8074 -45.2758)
(-150.278 58.0544 3.84293)
(-240.825 111.007 0.531747)
(-193.382 -8.05027 -81.3816)
(-108.01 93.0869 -0.568667)
(-168.959 112.525 6.29742)
(-148.586 50.422 -11.4563)
(-243.103 118.667 56.2999)
(-104.444 88.4147 8.25258)
(-122.734 66.2656 6.35823)
(-204.971 125.133 63.5389)
(-120.69 -50.3891 -59.9696)
)
;
    }
    procBoundary30to31
    {
        type            processor;
        value           nonuniform List<vector> 
20
(
(-254.755 631.588 -290.333)
(-50.027 3.86791 859.166)
(-406.293 -210.005 336.116)
(-495.603 -113.808 207.236)
(203.972 -178.218 803.88)
(-328.845 85.5401 1884.57)
(-229.318 -109.655 234.524)
(-257.792 54.7881 134.357)
(-65.8226 -143.865 75.8438)
(-165.482 -43.8925 109.768)
(-127.257 59.931 -8.43039)
(-137.264 -27.4954 271.008)
(-302.166 -56.0995 -43.9636)
(-261.089 63.6272 -12.5221)
(-148.443 17.8955 135.827)
(-62.1336 24.5783 1.10397)
(-386.576 33.2187 8.01194)
(-278.783 -14.132 29.8768)
(-126.59 -34.3414 -97.5579)
(-70.6857 -1.15467 161.739)
)
;
    }
}


// ************************************************************************* //
