/*--------------------------------*- C++ -*----------------------------------*\
| =========                 |                                                 |
| \\      /  F ield         | OpenFOAM: The Open Source CFD Toolbox           |
|  \\    /   O peration     | Version:  2.4.0                                 |
|   \\  /    A nd           | Web:      www.OpenFOAM.org                      |
|    \\/     M anipulation  |                                                 |
\*---------------------------------------------------------------------------*/
FoamFile
{
    version     2.0;
    format      ascii;
    class       surfaceScalarField;
    location    "0.17";
    object      phib;
}
// * * * * * * * * * * * * * * * * * * * * * * * * * * * * * * * * * * * * * //

dimensions      [0 3 -1 0 0 0 0];

internalField   nonuniform List<scalar> 
490
(
2.34494e+10
-1.67293e+10
2.83418e+09
3.68056e+10
-2.21745e+10
8.8183e+09
5.64155e+10
-2.72363e+10
7.62648e+09
4.74103e+10
-4.47203e+09
1.34772e+10
4.93482e+10
-1.09147e+10
8.97679e+09
3.39315e+10
1.29378e+09
1.4123e+10
1.40461e+10
2.34406e+09
1.75413e+10
2.32462e+10
-1.35055e+10
4.30537e+09
-3.36906e+09
1.36433e+10
1.2972e+10
-8.39083e+09
-1.1233e+09
4.8828e+10
-7.1225e+09
-2.18644e+10
5.67248e+10
-6.9228e+09
-2.31485e+10
5.57268e+10
-1.02392e+10
-1.59992e+10
7.3377e+10
-7.37051e+09
-1.47517e+10
6.22294e+10
-3.11606e+09
3.349e+09
7.14618e+10
-4.89735e+09
-3.04129e+09
6.7619e+10
-1.64971e+09
7.83654e+09
4.55324e+10
3.30811e+09
5.27295e+09
6.09258e+10
-6.99344e+09
5.24342e+09
7.35177e+08
5.4405e+09
2.90809e+10
1.20787e+10
-3.04326e+10
5.03057e+10
4.40183e+09
-3.25494e+10
6.2125e+10
9.55749e+09
-3.1616e+10
7.16819e+10
3.67857e+09
-2.0606e+10
8.34046e+10
6.98916e+09
-2.18279e+10
7.56657e+10
3.56762e+09
-7.26056e+08
8.16459e+10
3.0798e+09
-1.07097e+10
7.04534e+10
4.276e+09
1.02246e+10
5.87168e+10
-2.70854e+09
7.45173e+09
-6.636e+09
7.44936e+09
1.7674e+10
-3.41687e+10
3.05585e+10
-3.09168e+10
5.92663e+10
-2.87233e+10
7.12734e+10
-2.82389e+10
7.27024e+10
-8.51909e+09
6.45716e+10
-1.68527e+10
6.40244e+10
-8.40456e+09
6.8528e+10
-7.25357e+09
5.47544e+10
7.35347e+09
9.04001e+09
6.18984e+10
-2.46301e+09
1.23448e+10
7.75719e+10
-7.4412e+09
5.86077e+08
7.26986e+10
-3.26348e+08
1.28261e+10
7.83192e+10
-8.42715e+09
1.62837e+10
6.15423e+10
-1.36813e+09
2.71219e+10
6.77533e+10
-8.62633e+09
1.65383e+10
6.6246e+10
-4.71219e+09
2.37608e+10
5.6431e+10
-5.23387e+09
1.93542e+10
5.97612e+10
-9.73307e+09
1.93748e+10
-8.73806e+09
1.1907e+10
7.84718e+10
-8.09445e+09
-2.26613e+10
6.95927e+10
-7.02465e+09
-1.4686e+10
7.69937e+10
1.20273e+09
-2.49292e+10
6.67587e+10
-9.34665e+09
-3.59725e+09
7.49276e+10
-2.51549e+09
-3.67257e+09
6.45348e+10
-9.6561e+09
8.38127e+09
7.45012e+10
-8.09781e+09
1.25577e+09
6.99095e+10
-1.17352e+10
1.63661e+10
6.63982e+10
-9.76131e+09
8.78291e+09
-1.82014e+10
1.09213e+10
6.5417e+10
-8.75877e+09
-4.21277e+10
6.34292e+10
-3.10906e+09
-3.44772e+10
6.71443e+10
-3.85025e+09
-3.02781e+10
6.68988e+10
-3.50685e+08
-2.93565e+10
6.26825e+10
-6.8849e+09
-1.32422e+10
6.84729e+10
-4.02579e+09
-1.21467e+10
5.70238e+10
-9.26753e+09
1.90904e+09
6.27881e+10
-7.8454e+09
5.70551e+08
5.30661e+10
-6.52074e+09
1.39331e+10
-8.97158e+09
8.65939e+09
4.31211e+10
-3.10986e+10
5.88811e+10
-4.07591e+10
5.86651e+10
-3.27295e+10
6.02207e+10
-2.87394e+10
6.85532e+10
-2.56315e+10
6.4178e+10
-1.13668e+10
5.9398e+10
-8.70789e+09
5.43217e+10
-2.79273e+09
5.06262e+10
3.62973e+09
1.40232e+10
1.06361e+11
-3.92587e+07
-1.25712e+09
7.84279e+10
-9.70584e+08
2.94902e+10
7.22284e+10
1.10622e+10
7.96338e+09
5.17993e+10
-7.38365e+09
4.40964e+10
4.48433e+10
5.34701e+09
2.87309e+10
3.3955e+10
-2.67735e+09
3.0104e+10
2.97879e+10
4.87727e+09
2.30506e+10
2.65531e+10
-7.41294e+09
3.0002e+10
2.61319e+10
-3.44113e+09
2.32371e+10
-1.7213e+10
2.02672e+10
5.41952e+10
-5.64246e+09
5.73918e+10
5.55998e+10
5.51878e+09
-2.25799e+10
3.76196e+10
9.86665e+08
3.12655e+09
2.75333e+10
-2.16103e+09
1.26643e+09
1.67745e+10
-1.27401e+10
2.51733e+10
1.13323e+10
6.88773e+07
1.10772e+10
1.02146e+10
-1.0089e+10
1.73398e+10
1.32057e+10
-9.42956e+09
1.53916e+10
1.49618e+10
-1.43119e+10
1.78976e+10
-1.51424e+10
1.45551e+10
8.78711e+10
-4.31206e+09
-5.1213e+10
4.70926e+10
8.74279e+08
1.09459e+10
5.19486e+10
4.20687e+08
-3.45681e+10
3.15748e+10
-3.218e+09
-7.92574e+09
2.50492e+10
-1.2249e+10
-7.20773e+09
1.54897e+10
-1.39351e+10
1.14168e+10
1.27056e+10
-1.12388e+10
5.84296e+09
5.57268e+09
-1.2215e+10
1.04889e+10
9.12972e+09
-1.41028e+10
1.01669e+10
-1.57974e+10
1.41253e+10
6.92573e+10
-4.83815e+10
7.42784e+10
-4.41621e+10
5.55783e+10
-1.05263e+10
6.25511e+10
-3.3965e+10
4.13284e+10
-8.31447e+09
4.09876e+10
-8.91725e+09
2.82635e+10
8.59757e+09
2.42841e+10
4.37728e+09
1.56125e+10
9.75292e+09
9.14824e+09
-1.23734e+11
-3.63022e+10
8.16185e+10
-1.20949e+11
3.8281e+10
-1.15757e+10
-1.67478e+11
-2.54e+09
5.70321e+10
-1.32148e+11
-1.59671e+09
1.0364e+10
-1.15025e+11
-2.65132e+10
3.81205e+10
-9.24305e+10
-3.89125e+09
1.14009e+10
-7.6569e+10
-1.66784e+10
2.38676e+10
-5.6235e+10
-6.95744e+09
1.66254e+10
-3.87376e+10
-1.23207e+10
1.80604e+10
-4.56644e+09
1.91429e+10
-8.32789e+10
-1.27462e+10
1.20615e+10
-1.20631e+11
-4.2599e+09
5.73135e+10
-1.17087e+11
1.97255e+10
-2.26836e+10
-1.49593e+11
-1.11692e+10
4.33451e+10
-1.37306e+11
-1.93751e+10
5.74834e+09
-1.22792e+11
-3.14438e+10
2.41155e+10
-1.09907e+11
-1.72722e+10
5.04888e+09
-9.53947e+10
-2.05844e+10
1.45063e+10
-8.55943e+10
-1.31264e+10
8.90291e+09
-1.16086e+10
1.13313e+10
-6.64321e+10
4.35441e+10
8.01608e+10
-4.70261e+10
-5.99392e+08
-1.21206e+10
-9.32883e+10
3.24976e+09
2.81697e+10
-9.1033e+10
1.24682e+09
-2.2597e+10
-1.22775e+11
-2.0104e+10
2.52632e+10
-1.16519e+11
-2.69569e+10
6.7416e+08
-1.06901e+11
-3.39995e+10
1.29519e+10
-9.82043e+10
-1.85711e+10
-2.20957e+08
-8.79083e+10
-2.15842e+10
8.32867e+09
-8.91151e+09
4.31908e+09
9.76413e+10
-6.3095e+10
-2.68031e+10
4.9273e+10
-1.28921e+08
-2.07543e+10
-4.41044e+10
8.60289e+09
-4.02863e+10
-1.75301e+10
-6.58126e+10
1.38444e+10
-6.61119e+10
-1.07524e+09
-6.60735e+10
8.30657e+09
-5.7248e+10
-1.6385e+09
8.0558e+09
-2.52956e+11
1.33416e+10
-2.65839e+11
1.30756e+09
-2.2268e+11
1.38731e+10
-2.07477e+11
-4.83897e+09
-1.74109e+11
4.75182e+09
-1.55665e+11
-7.04245e+09
-1.36078e+11
4.28078e+09
-1.1935e+11
-1.03418e+08
-1.0988e+11
8.59029e+09
6.18794e+09
-2.64818e+11
-1.25878e+10
-2.14981e+11
8.78351e+09
-2.32668e+11
8.8772e+09
-2.04322e+11
1.01597e+10
-1.86779e+11
-7.04303e+09
-1.69337e+11
-3.68588e+08
-1.56283e+11
-3.72438e+09
-1.4839e+11
6.50981e+09
-1.36551e+11
5.65446e+09
1.23515e+10
-1.95993e+11
-2.01682e+10
-1.92104e+11
-7.22604e+09
-1.61994e+11
6.93656e+09
-1.86183e+11
1.17523e+10
-1.71714e+11
3.75053e+09
-1.63527e+11
-7.88111e+09
-1.54169e+11
-1.30456e+08
-1.4828e+11
4.00397e+08
-1.40991e+11
6.69392e+09
6.62043e+09
-1.64137e+11
-1.11323e+11
-1.13471e+11
-1.03372e+11
-1.30554e+11
-1.24117e+11
-1.15775e+11
-1.08539e+11
-1.00199e+11
)
;

boundaryField
{
    inlet
    {
        type            fixedValue;
        value           nonuniform 0();
    }
    outlet
    {
        type            calculated;
        value           nonuniform 0();
    }
    bottom
    {
        type            fixedValue;
        value           uniform 0;
    }
    top
    {
        type            symmetryPlane;
        value           nonuniform List<scalar> 
40
(
-1.59208e-26
-1.92873e-26
-3.61065e-26
-9.20358e-26
-2.16526e-26
-1.89722e-26
-2.70344e-26
-5.41312e-26
-2.71234e-26
-2.94603e-26
-2.86123e-26
-4.3532e-26
-3.56095e-26
-3.57353e-26
-4.36042e-26
-4.81581e-26
-3.57274e-26
-4.28631e-26
-4.91943e-26
-6.73613e-26
-4.60872e-26
-4.32864e-26
-5.43605e-26
-7.68998e-26
-5.11075e-26
-5.35083e-26
-5.43789e-26
-7.55728e-26
-6.39153e-26
-5.81261e-26
-6.38744e-26
-7.60262e-26
-7.07755e-26
-6.77233e-26
-6.7957e-26
-8.70279e-26
-8.18796e-26
-6.96915e-26
-7.26596e-26
-9.54847e-26
)
;
    }
    side1
    {
        type            symmetryPlane;
        value           uniform 0;
    }
    side2
    {
        type            symmetryPlane;
        value           nonuniform 0();
    }
    procBoundary3to2
    {
        type            processor;
        value           nonuniform List<scalar> 
20
(
-9.55429e+09
-3.65704e+10
-1.78495e+10
2.44171e+10
-6.8946e+10
-7.20435e+10
-5.30576e+10
-5.90843e+10
-9.27203e+10
-1.28645e+11
-8.01163e+10
-4.94529e+10
7.71602e+10
1.05053e+11
-1.21232e+11
-5.12259e+10
3.21233e+11
3.02809e+11
2.83734e+11
1.69083e+09
)
;
    }
    procBoundary3to4
    {
        type            processor;
        value           nonuniform List<scalar> 
20
(
6.14507e+09
4.63593e+10
5.86386e+10
3.66055e+10
5.5469e+10
7.03808e+10
4.26263e+10
3.61814e+10
3.49848e+10
9.25734e+09
4.31883e+09
1.63128e+10
-3.30469e+10
-7.53283e+10
-8.07991e+10
-4.71155e+10
-9.69246e+10
-1.31384e+11
-1.30941e+11
-9.0273e+10
)
;
    }
    procBoundary3to11
    {
        type            processor;
        value           nonuniform List<scalar> 
50
(
4.15637e+09
2.2434e+10
9.57308e+09
1.99104e+10
1.40793e+10
2.85511e+10
1.20317e+10
7.02592e+09
3.71156e+09
2.47294e+09
4.13439e+09
-9.0268e+09
3.71988e+08
-1.40581e+09
1.89492e+09
-5.13648e+09
-4.18418e+09
-7.22994e+09
8.98542e+08
4.90062e+08
-6.8336e+09
-7.43814e+08
-3.08244e+09
-4.96524e+09
-8.34335e+09
-1.60439e+10
-1.58201e+10
-1.54056e+10
-1.15544e+10
-1.16228e+10
1.18423e+10
3.04099e+10
-1.31965e+10
2.65444e+09
-1.47064e+10
-2.41923e+10
-2.40274e+10
-2.25388e+10
-1.90183e+10
-1.79515e+10
7.91831e+10
-1.07677e+10
-1.16688e+10
1.02562e+10
1.34017e+10
-4.73803e+08
-9.547e+09
1.47054e+09
-3.28421e+09
4.74996e+09
)
;
    }
}


// ************************************************************************* //
