/*--------------------------------*- C++ -*----------------------------------*\
| =========                 |                                                 |
| \\      /  F ield         | OpenFOAM: The Open Source CFD Toolbox           |
|  \\    /   O peration     | Version:  2.4.0                                 |
|   \\  /    A nd           | Web:      www.OpenFOAM.org                      |
|    \\/     M anipulation  |                                                 |
\*---------------------------------------------------------------------------*/
FoamFile
{
    version     2.0;
    format      ascii;
    class       volVectorField;
    location    "0.03";
    object      Ub;
}
// * * * * * * * * * * * * * * * * * * * * * * * * * * * * * * * * * * * * * //

dimensions      [0 1 -1 0 0 0 0];

internalField   nonuniform List<vector> 
200
(
(6.08879 -10.2449 -3.10605)
(5.66605 -7.58801 -0.244022)
(6.97196 -13.4448 -2.42068)
(6.0646 -8.20361 0.73221)
(6.96552 -14.8361 -0.827226)
(6.07631 -8.79895 1.93496)
(6.40461 -14.9095 0.276241)
(6.23694 -9.89494 1.89931)
(6.07835 -13.5515 0.0304058)
(6.51956 -11.1989 0.381624)
(2.28152 -8.06874 0.607718)
(2.35249 -11.6683 -0.341574)
(1.6485 -9.48415 0.344783)
(1.469 -12.2146 -0.333975)
(1.28372 -10.7074 -0.17943)
(0.991075 -12.5222 -1.22522)
(1.52853 -13.7838 -2.6793)
(1.83559 -13.8951 -2.94503)
(3.90297 -14.1734 -2.40677)
(4.32837 -15.0152 -2.96695)
(-0.749434 -12.79 2.25029)
(-0.618245 -9.91983 1.10934)
(-0.767498 -12.0932 0.130369)
(-0.515919 -11.6811 -0.536916)
(-0.284535 -12.5005 -2.20378)
(-0.11084 -12.8248 -3.80733)
(1.51106 -14.1296 -2.45343)
(1.26104 -12.2801 -3.20892)
(1.60146 -14.3462 -3.26551)
(2.55784 -12.985 -3.33223)
(-2.19733 -12.6141 0.107652)
(0.0916755 -11.4156 2.64335)
(0.750584 -11.3466 -0.328326)
(1.29257 -12.7875 -1.51679)
(-0.128286 -11.1243 -5.02317)
(2.71039 -13.2974 -2.48961)
(-0.732314 -10.3299 -4.55861)
(0.51145 -11.6621 -3.53248)
(-2.40089 -9.56026 -6.0004)
(-0.0888805 -11.6305 -4.39251)
(3.37193 -6.25967 -0.716494)
(3.92615 -10.4807 0.541873)
(4.16472 -8.58448 0.433779)
(4.90289 -13.166 0.500564)
(5.22276 -9.11053 1.14004)
(6.71163 -14.6553 1.16607)
(6.85629 -8.24825 3.03246)
(8.99223 -14.9242 2.73367)
(8.35135 -6.22488 3.91485)
(10.8627 -14.3564 4.00008)
(1.03345 -8.51312 2.82621)
(1.76111 -9.25752 2.65602)
(2.17998 -11.7876 2.44895)
(2.33264 -12.0882 1.89294)
(2.60337 -14.0605 1.34461)
(3.30588 -12.1357 0.832523)
(3.69515 -14.2872 0.152724)
(4.6416 -12.9342 0.517576)
(5.55492 -13.7723 -0.105664)
(4.2286 -15.8639 -0.0975906)
(-3.15152 -11.8848 -0.788318)
(0.302842 -12.4539 1.30745)
(1.14647 -10.1756 0.702419)
(3.49594 -12.9096 0.0497559)
(0.291769 -12.5581 -0.870578)
(2.8687 -14.5143 -0.354757)
(-2.99252 -15.4298 -7.65907)
(1.19849 -12.516 -4.22903)
(-2.10244 -15.583 -8.81189)
(1.93285 -13.3205 -4.32906)
(-10.825 -5.63144 -24.3305)
(0.0204295 -21.1464 -26.8103)
(-0.00654613 -12.1955 -0.799067)
(3.61431 -8.97932 -4.96532)
(3.44433 -12.6664 -0.788767)
(0.377863 -12.429 -3.894)
(2.44478 -11.8505 -0.705109)
(-2.578 -13.0986 -6.60783)
(-0.181347 -13.1474 -2.77009)
(-4.5557 -15.4369 -7.80674)
(5.42486 -5.74256 1.526)
(4.60349 -5.78184 -3.17874)
(5.95413 -10.4255 -0.00991941)
(5.56116 -8.60842 -1.5766)
(6.82357 -13.0849 -0.132195)
(6.74361 -8.74488 -0.515379)
(8.84439 -13.7301 -0.0301589)
(10.2165 -5.04617 3.6515)
(14.1555 -13.6011 5.47718)
(16.8273 -0.472488 11.3837)
(-0.608469 -3.00037 -1.90008)
(2.26965 -8.35979 1.47881)
(2.37603 -8.09471 -1.77808)
(4.21185 -11.9992 1.96886)
(3.56737 -10.6844 0.0914231)
(5.10453 -14.189 2.83217)
(3.84026 -11.9127 -0.576955)
(5.80975 -14.5728 0.823624)
(7.3437 -10.0252 2.36077)
(9.40586 -17.1018 5.68531)
(-4.06202 -0.118653 -10.6613)
(-4.21755 -12.1214 -5.57285)
(-0.41677 -12.6189 0.501987)
(0.844768 -11.2705 -1.87677)
(2.93857 -14.0351 2.41005)
(1.15529 -13.0762 -0.212845)
(3.08615 -14.6279 3.55295)
(-1.82133 -15.4738 -4.79437)
(1.34382 -15.3534 0.0259494)
(-3.69256 -19.7479 -9.90951)
(7.32906 27.3046 -46.0685)
(-9.12376 -7.37534 -18.0668)
(0.934999 -14.9408 -12.4121)
(1.54089 -14.2685 -1.76528)
(1.75165 -12.5362 -3.23137)
(2.71046 -13.6404 1.58451)
(-1.80431 -13.6414 -4.69412)
(-0.140753 -13.4357 2.10616)
(-4.98224 -15.656 -8.26422)
(-3.32616 -17.046 -0.360073)
(4.4978 2.60376 -4.50729)
(7.34467 -6.10055 1.79313)
(6.46917 -6.45006 -5.90593)
(9.02551 -12.3689 0.947367)
(8.09217 -10.4482 -3.67214)
(10.0807 -15.8944 2.33252)
(9.53918 -13.0169 -3.81433)
(13.4265 -17.3111 -3.50814)
(12.7375 -12.4861 -3.89081)
(23.9105 -18.5923 2.29567)
(6.77277 2.63015 -3.29011)
(-1.13395 -5.69532 -7.45769)
(4.69175 -11.3404 1.12568)
(4.79781 -9.97777 -5.40861)
(7.88919 -14.6221 3.59957)
(5.2675 -12.749 -2.5248)
(8.29979 -17.3238 7.42699)
(5.96303 -16.3696 -6.06726)
(9.05557 -18.8753 2.30972)
(7.50943 -20.8799 -8.31378)
(12.4823 33.6588 -9.15581)
(-1.27442 -5.93603 -18.9911)
(-0.420165 -16.9438 -11.6077)
(4.50959 -15.9106 0.593443)
(5.27861 -12.6905 -5.81212)
(7.86977 -15.589 4.40686)
(5.13143 -14.3648 -3.26753)
(7.43975 -17.7315 7.13699)
(3.77481 -18.0447 -9.44531)
(5.96173 -21.1239 1.02033)
(25.1273 -3.69674 -8.57103)
(22.4212 53.4784 -69.4348)
(-2.17189 -12.8871 -20.1685)
(9.59412 -17.6006 -15.2585)
(8.83095 -15.81 -0.370053)
(8.0148 -12.6198 -6.10391)
(9.02567 -14.7379 5.08997)
(4.14321 -15.6453 -6.03998)
(5.9031 -17.5015 5.46747)
(-0.119056 -18.7098 -11.3091)
(10.7074 -1.42141 2.91598)
(5.6183 -1.94899 -8.54082)
(9.56668 -10.1413 3.58955)
(7.91994 -10.1904 -7.37764)
(10.5361 -17.1646 6.63397)
(8.26633 -15.3505 -6.32054)
(11.5383 -20.2288 9.44791)
(10.0109 -15.2216 -6.8247)
(13.5231 -15.0486 1.58837)
(10.8519 -8.03556 -10.116)
(12.1196 8.15867 -2.1205)
(12.2715 -7.44279 -5.64191)
(3.74245 -12.8485 -10.5612)
(7.75764 -16.4066 5.14102)
(6.96369 -14.0283 -6.64241)
(9.51059 -19.2232 11.549)
(7.96898 -15.801 -5.89364)
(10.8062 -20.4808 12.4625)
(8.53786 -16.8443 -9.22138)
(12.4259 -16.6365 10.018)
(26.533 -11.6706 -5.2437)
(26.4134 22.7798 -20.3534)
(11.0697 -15.1673 -12.9876)
(7.69616 -20.1246 -11.1521)
(8.53556 -19.4526 7.45492)
(7.78731 -15.3983 -5.93723)
(10.3459 -19.5265 14.4147)
(8.11429 -15.9201 -6.1891)
(10.716 -20.0317 14.9249)
(6.6013 -17.0459 -11.6753)
(24.506 -7.74354 104.452)
(51.501 -25.9265 -8.32686)
(37.9655 25.9797 -56.5629)
(12.9796 -17.4773 -10.212)
(14.9481 -18.5723 -10.9513)
(11.9193 -18.1702 9.37359)
(9.83342 -14.0651 -5.11733)
(12.1524 -18.2386 17.1398)
(8.5647 -14.8549 -6.34682)
(11.5843 -18.792 17.802)
)
;

boundaryField
{
    inlet
    {
        type            fixedValue;
        value           nonuniform 0();
    }
    outlet
    {
        type            zeroGradient;
    }
    bottom
    {
        type            fixedValue;
        value           uniform (0 0 0);
    }
    top
    {
        type            symmetryPlane;
    }
    side1
    {
        type            symmetryPlane;
    }
    side2
    {
        type            symmetryPlane;
    }
    procBoundary11to3
    {
        type            processor;
        value           nonuniform List<vector> 
50
(
(7.06379 -5.64282 -1.80867)
(9.92395 -12.5649 -4.86964)
(9.1555 -6.23344 0.172334)
(12.253 -15.6111 -3.22534)
(10.4167 -5.82411 2.43944)
(13.0574 -16.7741 -0.51023)
(10.7879 -5.43864 4.32905)
(12.7778 -15.599 2.5423)
(11.0891 -4.31076 3.12129)
(12.4076 -15.7927 2.23118)
(5.97723 -8.65436 -1.74555)
(5.6941 -6.55646 -2.71658)
(7.2027 -12.2162 -2.58525)
(6.97105 -6.74482 -0.782026)
(9.82921 -15.1317 -0.792331)
(8.95817 -4.97029 2.41252)
(12.5781 -16.469 2.30885)
(11.1302 -1.27401 3.88007)
(14.2646 -16.305 3.33529)
(13.8172 6.77258 6.60079)
(5.73093 -4.16306 -4.32482)
(7.11471 -8.48346 -1.69137)
(6.82526 -6.80612 -3.97794)
(7.94145 -11.8909 -3.32012)
(8.53601 -6.68894 -2.38523)
(10.8135 -12.7147 -2.48709)
(11.9752 -2.29186 1.89246)
(16.0696 -12.9024 3.64637)
(16.2512 6.18887 9.1323)
(18.4653 -11.9392 9.68789)
(6.7033 -3.10066 1.20509)
(6.93248 -3.47145 -6.76319)
(9.92672 -9.00239 -1.0948)
(9.27202 -7.67843 -5.07018)
(10.7345 -13.6328 -2.62805)
(11.5672 -9.45353 -3.93917)
(13.6482 -14.917 -5.72663)
(17.5121 -6.13265 -1.24503)
(23.6169 -12.6455 -0.0140011)
(27.2523 -2.00198 4.02599)
(8.24349 3.77824 -2.8259)
(7.95932 -2.66522 0.940346)
(8.69788 -4.54665 -8.072)
(11.8696 -11.7885 1.75018)
(10.0497 -11.0259 -6.06805)
(12.2793 -17.3408 1.21475)
(11.4738 -12.259 -5.66625)
(14.1365 -14.118 -4.04753)
(11.8628 -4.66227 -6.56045)
(20.9548 -4.51361 18.0345)
)
;
    }
    procBoundary11to10
    {
        type            processor;
        value           nonuniform List<vector> 
20
(
(4.59393 -5.22257 -0.974696)
(2.18622 -8.50279 -0.987578)
(-2.06392 -10.4008 2.23346)
(-5.79914 -11.2177 -3.94899)
(4.00198 -6.87484 -0.00629027)
(-0.15042 -4.82688 1.51716)
(-3.92182 -3.99554 -3.22262)
(1.37676 6.61107 -24.6192)
(5.0022 -1.58008 -0.69638)
(4.87483 1.69645 3.31428)
(-0.226629 6.24667 -0.115293)
(4.3946 6.6108 -11.3538)
(10.133 2.67357 4.94296)
(7.67124 13.5342 0.363144)
(11.3873 10.554 -2.36468)
(13.9 17.9044 39.1504)
(9.34685 5.28877 -2.05534)
(11.6842 1.2212 3.68358)
(13.9391 1.18172 35.7064)
(32.4834 -9.50951 -26.5317)
)
;
    }
    procBoundary11to12
    {
        type            processor;
        value           nonuniform List<vector> 
20
(
(6.89638 -13.9922 -1.09157)
(6.60531 -14.2586 -2.38425)
(2.95561 -14.6698 -4.67595)
(-3.15051 -10.9964 -8.2352)
(12.1254 -1.66542 6.63623)
(6.19898 -13.2073 -0.304324)
(0.806279 -15.633 -4.83891)
(-1.83207 -16.2263 -4.38525)
(21.292 -11.4381 9.76243)
(11.6642 -11.0707 7.43306)
(3.56481 -20.9669 0.417376)
(-6.84677 -21.9984 -7.89957)
(28.271 -14.56 2.53164)
(18.0834 -24.035 5.28778)
(1.83483 -25.2983 -12.036)
(1.39989 -19.855 -0.74245)
(22.6446 -4.55168 41.9673)
(10.8629 -11.5629 -14.9569)
(7.84642 -16.1064 10.7598)
(6.14426 -16.5439 -12.225)
)
;
    }
    procBoundary11to19
    {
        type            processor;
        value           nonuniform List<vector> 
50
(
(-3.23628 -5.46909 -14.2144)
(3.16538 -9.13914 -2.84957)
(4.82621 -7.73008 -0.283397)
(3.67262 -7.41681 -3.7609)
(2.66762 -9.16885 -2.97078)
(0.139894 -8.4428 -4.6739)
(0.0801814 -6.15564 -3.80335)
(-2.40698 -4.19323 -5.4134)
(-2.26155 -4.9768 -3.81715)
(-4.58852 -5.27891 -5.47816)
(10.9004 21.2654 -47.5916)
(-7.62974 -8.71529 -21.9797)
(2.75534 -12.2948 -12.7091)
(1.51516 -12.6029 -1.80637)
(3.16733 -10.1736 -2.6764)
(0.78997 -8.2482 -2.50684)
(-1.94135 -9.50624 -5.8618)
(-1.86665 -9.56648 -2.72454)
(-5.10385 -11.5785 -7.096)
(-5.36028 -13.002 -3.48789)
(16.9073 -10.777 -1.21539)
(8.53827 21.2089 -58.4207)
(-3.38674 -9.69977 -14.8853)
(4.73725 -11.4727 -12.979)
(3.41966 -11.4298 -1.59997)
(-0.418931 -10.7888 -4.04166)
(0.151903 -11.1155 1.20989)
(-5.34626 -12.8396 -6.05118)
(-3.59489 -13.4847 0.0884955)
(-8.58028 -16.8463 -6.55131)
(13.5735 3.63576 71.3936)
(47.9739 -17.5041 5.37535)
(14.6087 20.9853 -72.91)
(6.9366 -9.45894 -14.3692)
(14.4591 -11.1778 -15.0031)
(10.846 -11.8881 0.282195)
(7.96383 -10.3713 -4.87539)
(8.25998 -13.2827 6.09953)
(1.41472 -14.9673 -8.77697)
(3.78606 -15.2802 4.87643)
(39.0585 -9.90243 -37.2388)
(29.9795 -5.95263 153.686)
(72.29 -19.352 4.19152)
(39.282 13.2151 -61.0301)
(18.5273 -10.2312 -3.14679)
(16.9871 -10.2404 -8.77949)
(13.0716 -13.6014 12.4648)
(9.69365 -11.1981 -3.94832)
(12.5483 -16.2469 20.0009)
(8.27492 -13.5533 -6.28923)
)
;
    }
}


// ************************************************************************* //
