/*--------------------------------*- C++ -*----------------------------------*\
| =========                 |                                                 |
| \\      /  F ield         | OpenFOAM: The Open Source CFD Toolbox           |
|  \\    /   O peration     | Version:  2.4.0                                 |
|   \\  /    A nd           | Web:      www.OpenFOAM.org                      |
|    \\/     M anipulation  |                                                 |
\*---------------------------------------------------------------------------*/
FoamFile
{
    version     2.0;
    format      ascii;
    class       volVectorField;
    location    "0.01";
    object      Uc;
}
// * * * * * * * * * * * * * * * * * * * * * * * * * * * * * * * * * * * * * //

dimensions      [0 1 -1 0 0 0 0];

internalField   nonuniform List<vector> 
200
(
(1.54473e-73 4.18983e-74 -4.99415e-76)
(7.48801e-76 2.02796e-76 -2.45864e-78)
(3.61406e-78 9.77344e-79 -1.20538e-80)
(1.73715e-80 4.69089e-81 -5.88604e-83)
(8.31732e-83 2.24273e-83 -2.86329e-85)
(3.96756e-85 1.06831e-85 -1.38777e-87)
(1.88599e-87 5.07109e-88 -6.70275e-90)
(8.93531e-90 2.39919e-90 -3.2265e-92)
(4.21994e-92 1.13151e-92 -1.54816e-94)
(1.99632e-94 5.34546e-95 -7.44109e-97)
(3.21077e-73 1.29021e-73 -1.49071e-74)
(1.55375e-75 6.24253e-76 -7.21044e-77)
(7.48605e-78 3.00719e-78 -3.47242e-79)
(3.5919e-80 1.44265e-80 -1.66534e-81)
(1.71669e-82 6.89374e-83 -7.95547e-84)
(8.1741e-85 3.28195e-85 -3.78628e-86)
(3.87843e-87 1.55695e-87 -1.79567e-88)
(1.83407e-89 7.36143e-90 -8.48758e-91)
(8.64563e-92 3.46951e-92 -3.99909e-93)
(4.08221e-94 1.63792e-94 -1.88736e-95)
(1.27515e-74 5.13876e-75 -5.97151e-76)
(6.33119e-77 2.55123e-77 -2.96423e-78)
(3.1277e-79 1.26025e-79 -1.46404e-80)
(1.53777e-81 6.19569e-82 -7.19652e-83)
(7.52657e-84 3.03221e-84 -3.5215e-85)
(3.66807e-86 1.47763e-86 -1.71581e-87)
(1.78037e-88 7.17143e-89 -8.32614e-90)
(8.60804e-91 3.46709e-91 -4.02474e-92)
(4.1467e-93 1.67005e-93 -1.93837e-94)
(2.00012e-95 8.05468e-96 -9.34739e-97)
(2.61483e-76 1.05474e-76 -1.228e-77)
(1.33141e-78 5.3702e-79 -6.25179e-80)
(6.74098e-81 2.71882e-81 -3.16485e-82)
(3.39473e-83 1.36912e-83 -1.59357e-84)
(1.7009e-85 6.85951e-86 -7.98327e-87)
(8.48111e-88 3.42016e-88 -3.98008e-89)
(4.20955e-90 1.69749e-90 -1.9752e-91)
(2.08029e-92 8.38832e-93 -9.75968e-94)
(1.0238e-94 4.12802e-95 -4.80242e-96)
(5.04319e-97 2.03335e-97 -2.3653e-98)
(2.40582e-75 6.51715e-76 -7.95291e-78)
(1.1966e-77 3.2366e-78 -4.01456e-80)
(5.92191e-80 1.59941e-80 -2.01687e-82)
(2.91688e-82 7.86647e-83 -1.00863e-84)
(1.43029e-84 3.85174e-85 -5.02213e-87)
(6.98356e-87 1.87798e-87 -2.49014e-89)
(3.39604e-89 9.11952e-90 -1.22975e-91)
(1.64512e-91 4.41154e-92 -6.04986e-94)
(7.94029e-94 2.12631e-94 -2.96535e-96)
(3.83745e-96 1.0262e-96 -1.45542e-98)
(4.98997e-75 2.00481e-75 -2.31555e-76)
(2.4777e-77 9.95299e-78 -1.14923e-78)
(1.22409e-79 4.91641e-80 -5.67506e-81)
(6.0188e-82 2.41697e-82 -2.7891e-83)
(2.94606e-84 1.18285e-84 -1.36456e-85)
(1.43586e-86 5.76403e-87 -6.64754e-88)
(6.96967e-89 2.7974e-89 -3.22523e-90)
(3.37004e-91 1.3524e-91 -1.55876e-92)
(1.62354e-93 6.51414e-94 -7.50594e-95)
(7.83152e-96 3.14171e-96 -3.61897e-97)
(2.03296e-76 8.19198e-77 -9.51763e-78)
(1.03502e-78 4.17036e-79 -4.84452e-80)
(5.23974e-81 2.11107e-81 -2.45197e-82)
(2.63841e-83 1.06292e-83 -1.23439e-84)
(1.3218e-85 5.32466e-86 -6.18267e-87)
(6.5901e-88 2.6545e-88 -3.08179e-89)
(3.27059e-90 1.3173e-90 -1.52911e-91)
(1.61609e-92 6.50863e-93 -7.55405e-94)
(7.95255e-95 3.20255e-95 -3.71639e-96)
(3.91696e-97 1.57726e-97 -1.83005e-98)
(4.27446e-78 1.72408e-78 -2.007e-79)
(2.23035e-80 8.99553e-81 -1.04707e-81)
(1.15651e-82 4.66425e-83 -5.42864e-84)
(5.96142e-85 2.40415e-85 -2.79788e-86)
(3.05567e-87 1.23224e-87 -1.43391e-88)
(1.55791e-89 6.28218e-90 -7.30962e-91)
(7.90262e-92 3.18653e-92 -3.70732e-93)
(3.98935e-94 1.60852e-94 -1.87123e-95)
(2.00464e-96 8.08239e-97 -9.40151e-98)
(1.00793e-98 4.06359e-99 -4.72633e-100)
(1.9326e-77 5.22859e-78 -6.52904e-80)
(9.8576e-80 2.66291e-80 -3.37775e-82)
(4.99988e-82 1.34865e-82 -1.73812e-84)
(2.52251e-84 6.79415e-85 -8.89826e-87)
(1.26622e-86 3.40551e-87 -4.53314e-89)
(6.3256e-89 1.69884e-89 -2.29854e-91)
(3.14566e-91 8.43622e-92 -1.16025e-93)
(1.55754e-93 4.17125e-94 -5.83151e-96)
(7.68024e-96 2.054e-96 -2.91889e-98)
(3.79075e-98 1.0124e-98 -1.46249e-100)
(3.99993e-77 1.60677e-77 -1.85517e-78)
(2.03684e-79 8.18062e-80 -9.44251e-81)
(1.03135e-81 4.14155e-82 -4.77899e-83)
(5.19429e-84 2.0855e-84 -2.40578e-85)
(2.60278e-86 1.04484e-86 -1.20494e-87)
(1.29793e-88 5.20943e-89 -6.00589e-90)
(6.44278e-91 2.58547e-91 -2.97987e-92)
(3.18422e-93 1.2776e-93 -1.47206e-94)
(1.56723e-95 6.2871e-96 -7.2419e-97)
(7.72085e-98 3.09677e-98 -3.566e-99)
(1.67084e-78 6.73222e-79 -7.82009e-80)
(8.7184e-81 3.51258e-81 -4.07959e-82)
(4.52089e-83 1.82129e-83 -2.11498e-84)
(2.33043e-85 9.38765e-86 -1.08999e-86)
(1.19455e-87 4.81161e-88 -5.58587e-89)
(6.09044e-90 2.45303e-90 -2.84734e-91)
(3.0895e-92 1.24425e-92 -1.44405e-93)
(1.55966e-94 6.28082e-95 -7.28827e-96)
(7.83749e-97 3.15593e-97 -3.6616e-98)
(3.94076e-99 1.5867e-99 -1.84066e-100)
(3.60036e-80 1.4521e-80 -1.69014e-81)
(1.92425e-82 7.76051e-83 -9.03185e-84)
(1.02145e-84 4.1193e-85 -4.79369e-86)
(5.38717e-87 2.17244e-87 -2.52786e-88)
(2.82382e-89 1.13868e-89 -1.32485e-90)
(1.47156e-91 5.93365e-92 -6.9031e-93)
(7.62622e-94 3.0749e-94 -3.57694e-95)
(3.93138e-96 1.58506e-96 -1.84367e-97)
(2.01649e-98 8.1297e-99 -9.45522e-100)
(1.03459e-100 4.17084e-101 -4.85041e-102)
(1.06288e-79 2.87194e-80 -3.66774e-82)
(5.55652e-82 1.49911e-82 -1.94357e-84)
(2.88684e-84 7.77684e-85 -1.02385e-86)
(1.49102e-86 4.01073e-87 -5.36304e-89)
(7.65793e-89 2.05694e-89 -2.79405e-91)
(3.9123e-91 1.04935e-91 -1.44812e-93)
(1.98865e-93 5.32635e-94 -7.46827e-96)
(1.006e-95 2.69066e-96 -3.83327e-98)
(5.06581e-98 1.35303e-98 -1.95858e-100)
(2.55253e-100 6.80814e-101 -1.00141e-102)
(2.19519e-79 8.81652e-80 -1.0176e-80)
(1.14571e-81 4.60074e-82 -5.30858e-83)
(5.94242e-84 2.38586e-84 -2.75212e-85)
(3.06392e-86 1.22995e-86 -1.41834e-87)
(1.5709e-88 6.30497e-89 -7.2686e-90)
(8.0112e-91 3.21484e-91 -3.70509e-92)
(4.06482e-93 1.63091e-93 -1.87907e-94)
(2.05252e-95 8.23384e-96 -9.48389e-97)
(1.03166e-97 4.13789e-98 -4.7647e-99)
(5.18856e-100 2.08071e-100 -2.39519e-101)
(9.39616e-81 3.7856e-81 -4.39645e-82)
(5.02217e-83 2.02322e-83 -2.34935e-84)
(2.66607e-85 1.07396e-85 -1.2469e-86)
(1.40618e-87 5.66404e-88 -6.57514e-89)
(7.37131e-90 2.96889e-90 -3.44596e-91)
(3.8416e-92 1.54713e-92 -1.79548e-93)
(1.99099e-94 8.0177e-95 -9.30334e-96)
(1.02643e-96 4.13312e-97 -4.79516e-98)
(5.26512e-99 2.11993e-99 -2.45914e-100)
(2.7015e-101 1.08764e-101 -1.26148e-102)
(2.07384e-82 8.36372e-83 -9.73334e-84)
(1.13471e-84 4.57601e-85 -5.32488e-86)
(6.16307e-87 2.4853e-87 -2.89176e-88)
(3.32412e-89 1.34041e-89 -1.55948e-90)
(1.78104e-91 7.18147e-92 -8.35439e-93)
(9.48268e-94 3.82339e-94 -4.44743e-95)
(5.01858e-96 2.02338e-96 -2.3534e-97)
(2.64088e-98 1.06469e-98 -1.23823e-99)
(1.38214e-100 5.5719e-101 -6.47949e-102)
(7.23341e-103 2.9159e-103 -3.39053e-104)
(4.51174e-82 1.21753e-82 -1.57828e-84)
(2.4162e-84 6.51036e-85 -8.56122e-87)
(1.28523e-86 3.4578e-87 -4.61411e-89)
(6.79255e-89 1.82478e-89 -2.47151e-91)
(3.56806e-91 9.57146e-92 -1.31605e-93)
(1.86341e-93 4.9915e-94 -6.96827e-96)
(9.67806e-96 2.58876e-96 -3.66968e-98)
(5.00015e-98 1.3356e-98 -1.92256e-100)
(2.57042e-100 6.85637e-101 -1.00225e-102)
(1.32178e-102 3.52085e-103 -5.22684e-105)
(9.29834e-82 3.73382e-82 -4.27836e-83)
(4.97152e-84 1.99602e-84 -2.28608e-85)
(2.64006e-86 1.05978e-86 -1.21323e-87)
(1.39293e-88 5.59062e-89 -6.39717e-90)
(7.30426e-91 2.93112e-91 -3.35246e-92)
(3.80793e-93 1.52782e-93 -1.74664e-94)
(1.9742e-95 7.91957e-96 -9.0497e-97)
(1.01812e-97 4.08353e-98 -4.66412e-99)
(5.22426e-100 2.09501e-100 -2.39178e-101)
(2.68145e-102 1.07512e-102 -1.22685e-103)
(4.07625e-83 1.64213e-83 -1.89327e-84)
(2.23068e-85 8.98566e-86 -1.03567e-86)
(1.21176e-87 4.88087e-88 -5.62388e-89)
(6.5368e-90 2.63276e-90 -3.0326e-91)
(3.50292e-92 1.41072e-92 -1.62447e-93)
(1.86533e-94 7.5116e-95 -8.64707e-96)
(9.87354e-97 3.97572e-97 -4.57528e-98)
(5.19647e-99 2.09227e-99 -2.40705e-100)
(2.72007e-101 1.0951e-101 -1.25947e-102)
(1.42377e-103 5.73164e-104 -6.58986e-105)
(9.21075e-85 3.71444e-85 -4.29086e-86)
(5.15708e-87 2.0796e-87 -2.40171e-88)
(2.86479e-89 1.15518e-89 -1.33376e-90)
(1.57956e-91 6.36898e-92 -7.35171e-93)
(8.64748e-94 3.48661e-94 -4.02356e-95)
(4.70227e-96 1.89583e-96 -2.18723e-97)
(2.54057e-98 1.02424e-98 -1.18136e-99)
(1.36424e-100 5.4997e-101 -6.34176e-102)
(7.28304e-103 2.93589e-103 -3.38452e-104)
(3.88687e-105 1.56677e-105 -1.80572e-106)
)
;

boundaryField
{
    inlet
    {
        type            calculated;
        value           nonuniform 0();
    }
    outlet
    {
        type            calculated;
        value           uniform (0 0 0);
    }
    bottom
    {
        type            calculated;
        value           uniform (0 0 0);
    }
    top
    {
        type            symmetryPlane;
    }
    side1
    {
        type            symmetryPlane;
    }
    side2
    {
        type            symmetryPlane;
    }
    procBoundary7to6
    {
        type            processor;
        value           nonuniform List<vector> 
20
(
(3.20711e-71 8.72358e-72 -1.06209e-73)
(6.65806e-71 2.67589e-71 -3.09263e-72)
(2.57559e-72 1.03802e-72 -1.20641e-73)
(5.1472e-74 2.07631e-74 -2.41762e-75)
(4.86573e-73 1.32192e-73 -1.64957e-75)
(1.00786e-72 4.04993e-73 -4.67902e-74)
(4.00228e-74 1.61287e-74 -1.87414e-75)
(8.20645e-76 3.31018e-76 -3.85373e-77)
(3.80969e-75 1.03377e-75 -1.32145e-77)
(7.87335e-75 3.16323e-75 -3.65331e-76)
(3.20776e-76 1.29258e-76 -1.50166e-77)
(6.74491e-78 2.72049e-78 -3.16674e-79)
(2.04345e-77 5.53824e-78 -7.24772e-80)
(4.21359e-77 1.69257e-77 -1.95412e-78)
(1.76018e-78 7.0921e-79 -8.23764e-80)
(3.79317e-80 1.52984e-80 -1.78052e-81)
(8.46409e-80 2.29119e-80 -3.04694e-82)
(1.74135e-79 6.99366e-80 -8.01723e-81)
(7.4546e-81 3.00333e-81 -3.46369e-82)
(1.64559e-82 6.63653e-83 -7.66832e-84)
)
;
    }
    procBoundary7to15
    {
        type            processor;
        value           nonuniform List<vector> 
50
(
(3.01638e-78 1.21726e-78 -1.41857e-79)
(1.56614e-80 6.31992e-81 -7.36452e-82)
(8.09772e-83 3.26757e-83 -3.80735e-84)
(4.169e-85 1.68219e-85 -1.95992e-86)
(2.13706e-87 8.62269e-88 -1.00455e-88)
(1.09073e-89 4.40075e-90 -5.12647e-91)
(5.54309e-92 2.23636e-92 -2.60494e-93)
(2.80509e-94 1.13167e-94 -1.31807e-95)
(1.41365e-96 5.70289e-97 -6.64171e-98)
(7.13087e-99 2.8766e-99 -3.34987e-100)
(5.04729e-80 2.03674e-80 -2.37328e-81)
(2.68402e-82 1.08304e-82 -1.2619e-83)
(1.42055e-84 5.73189e-85 -6.67797e-86)
(7.48221e-87 3.01894e-87 -3.51695e-88)
(3.9219e-89 1.58235e-89 -1.84323e-90)
(2.04581e-91 8.25382e-92 -9.61382e-93)
(1.06209e-93 4.28483e-94 -4.99044e-95)
(5.48812e-96 2.21399e-96 -2.57838e-97)
(2.82289e-98 1.13875e-98 -1.32606e-99)
(1.45289e-100 5.8607e-101 -6.82415e-102)
(4.34987e-82 1.75523e-82 -2.045e-83)
(2.36809e-84 9.55517e-85 -1.11318e-85)
(1.28242e-86 5.17431e-87 -6.02763e-88)
(6.90787e-89 2.78708e-89 -3.24645e-90)
(3.70116e-91 1.49322e-91 -1.7392e-92)
(1.97255e-93 7.95786e-94 -9.26801e-95)
(1.0458e-95 4.2189e-96 -4.91309e-97)
(5.51627e-98 2.22525e-98 -2.59118e-99)
(2.89514e-100 1.16784e-100 -1.35978e-101)
(1.51996e-102 6.13097e-103 -7.13804e-104)
(2.5624e-84 1.03391e-84 -1.20446e-85)
(1.42739e-86 5.7592e-87 -6.70869e-88)
(7.90545e-89 3.18955e-89 -3.7151e-90)
(4.35291e-91 1.75616e-91 -2.04537e-92)
(2.38291e-93 9.61334e-94 -1.11956e-94)
(1.29699e-95 5.23221e-96 -6.0929e-97)
(7.01953e-98 2.83164e-98 -3.29718e-99)
(3.7781e-100 1.524e-100 -1.77442e-101)
(2.02252e-102 8.15808e-103 -9.49778e-104)
(1.08275e-104 4.3672e-105 -5.08397e-106)
(1.16341e-86 4.69407e-87 -5.42736e-88)
(6.62855e-89 2.67435e-89 -3.09139e-90)
(3.75302e-91 1.51413e-91 -1.74982e-92)
(2.11158e-93 8.51869e-94 -9.84235e-95)
(1.18063e-95 4.7628e-96 -5.50152e-97)
(6.56048e-98 2.64645e-98 -3.05618e-99)
(3.62341e-100 1.4616e-100 -1.68747e-101)
(1.98939e-102 8.02438e-103 -9.26221e-104)
(1.08594e-104 4.38008e-105 -5.05451e-106)
(5.92642e-107 2.39028e-107 -2.75765e-108)
)
;
    }
}


// ************************************************************************* //
