/*--------------------------------*- C++ -*----------------------------------*\
| =========                 |                                                 |
| \\      /  F ield         | OpenFOAM: The Open Source CFD Toolbox           |
|  \\    /   O peration     | Version:  2.4.0                                 |
|   \\  /    A nd           | Web:      www.OpenFOAM.org                      |
|    \\/     M anipulation  |                                                 |
\*---------------------------------------------------------------------------*/
FoamFile
{
    version     2.0;
    format      ascii;
    class       volVectorField;
    location    "0.01";
    object      Ur;
}
// * * * * * * * * * * * * * * * * * * * * * * * * * * * * * * * * * * * * * //

dimensions      [0 1 -1 0 0 0 0];

internalField   nonuniform List<vector> 
200
(
(-3.45859 0.55856 -0.156309)
(-4.12981 0.461066 -0.508794)
(-4.19485 0.482866 -0.170568)
(-4.11558 0.417196 0.285231)
(-3.96806 0.472464 0.203858)
(-5.4213 0.475816 1.50413)
(-4.15303 0.756624 -0.685421)
(-7.79002 0.359347 -2.23655)
(-3.27106 0.573762 0.0810461)
(-3.35294 0.6711 0.240906)
(-3.0097 1.80192 -0.490772)
(-4.12872 1.1796 -0.393759)
(-4.05015 0.991847 -0.147278)
(-3.9816 0.872648 -0.18883)
(-3.56777 0.8009 0.241633)
(-3.98237 0.674698 -0.049261)
(-3.93189 0.893929 -0.15439)
(-4.61537 0.607372 -0.309097)
(-3.02037 0.70859 -0.159893)
(-3.31914 1.02206 0.010908)
(-2.99381 1.15924 -0.746088)
(-6.99801 0.0496348 -3.16002)
(-5.01682 0.49577 -0.492079)
(-4.4452 0.790079 -0.134682)
(-4.05827 0.761801 0.181528)
(-4.53012 0.690171 0.228712)
(-2.98098 1.14089 -0.379857)
(-8.25722 -0.0883333 -0.647704)
(-2.62195 0.276196 0.672582)
(-3.13301 0.921801 0.081028)
(-2.51807 0.676687 0.993263)
(-4.45576 -1.40959 -8.17066)
(-4.86815 -0.0783032 -0.579362)
(-4.23291 0.62454 0.0511305)
(-3.89755 0.78036 0.324449)
(-4.23926 0.803219 0.28885)
(-2.77794 1.16999 -0.420792)
(-7.44203 -0.156321 -0.904942)
(-2.45306 0.658373 0.686124)
(-3.1948 0.928689 0.0983956)
(-4.29301 0.697814 2.07732)
(-4.05099 0.748093 2.54844)
(-4.0024 0.598028 0.0288499)
(-4.05733 0.640726 0.219439)
(-4.32127 0.63317 2.91326)
(-3.90073 0.826712 2.69709)
(-5.35319 0.602309 4.1084)
(-3.85988 0.839444 2.87646)
(-3.32941 0.31314 -12.7295)
(-3.45824 0.54507 -2.01603)
(-3.80394 0.972477 1.43599)
(-3.78429 1.26196 1.21543)
(-3.83105 1.03313 -0.206664)
(-3.91745 1.02847 -2.37426)
(-3.96333 1.09915 -0.973198)
(-3.92532 1.24677 3.73104)
(-3.89607 0.988799 3.23063)
(-3.68567 0.933591 -1.98945)
(-3.53309 0.867975 -1.4182)
(-3.48925 0.921171 -0.133653)
(-5.58166 1.54923 29.8912)
(-2.9482 0.9273 6.66131)
(-3.88589 0.988799 0.0180536)
(-3.99751 0.972288 -2.46075)
(-4.08609 1.03194 -1.20912)
(-3.94812 1.00254 1.63414)
(-4.34501 0.850542 0.697496)
(-3.62941 0.744936 2.01831)
(-3.2328 0.730916 -10.0334)
(-3.3248 0.887084 -1.495)
(-3.22748 1.11834 3.42016)
(-3.7073 0.896304 5.25427)
(-3.9214 0.926474 1.60407)
(-3.80547 0.735789 -4.82719)
(-4.08882 0.961401 -2.05349)
(-3.87193 1.02465 1.64982)
(-4.15427 0.918781 1.29183)
(-3.63127 1.0319 1.48756)
(-3.40662 0.803138 -7.69373)
(-3.42215 0.893157 -1.23703)
(-4.7671 0.312619 -0.448572)
(-3.17162 0.583182 -2.37739)
(-3.65673 0.790126 -0.0999055)
(-3.70221 0.743114 0.159343)
(-3.72749 0.696388 -0.172169)
(-2.77088 0.359908 -0.129694)
(-3.19758 0.772586 1.45362)
(2.04111 0.124245 -19.3122)
(-5.25583 -0.236357 0.187082)
(-5.18109 0.227246 0.255375)
(-3.99181 -0.0116954 -0.723858)
(-2.95365 0.789828 -0.472963)
(-3.21748 1.52826 -0.509419)
(-3.27368 1.43482 -0.3714)
(-3.9773 1.2069 -0.155033)
(-3.71365 0.955726 0.0553256)
(-3.1726 1.15601 -0.440244)
(-2.72796 0.338744 0.0343263)
(-4.40586 0.551391 0.00541038)
(-4.23865 0.778717 -0.0757005)
(-4.4932 1.03914 -1.75897)
(-1.10389 1.49556 -1.70475)
(-2.18306 1.01879 -0.878746)
(-3.39665 0.215642 1.01827)
(-4.44325 1.19259 0.0246518)
(-3.30542 1.2051 -0.0812759)
(-4.65501 0.968981 0.0508891)
(0.242131 0.825413 -11.1016)
(-4.03281 1.27298 0.548256)
(-4.4685 1.09821 0.0815001)
(-3.42916 1.70954 -0.703492)
(-2.58442 1.44219 -1.49771)
(-0.96282 0.358923 -3.0562)
(-3.46726 0.793962 0.523597)
(-4.27359 1.2802 0.151421)
(-3.89724 1.17542 0.0493345)
(-4.64731 1.14332 -0.371312)
(-0.836821 1.34294 -6.4049)
(-4.26068 0.925985 0.78917)
(-4.58765 0.91561 0.03362)
(-3.57918 0.547205 -1.45229)
(-3.88452 0.336799 0.393085)
(-3.78342 0.524746 0.310471)
(-3.67969 0.394068 -0.194636)
(-3.68303 0.424489 -0.462658)
(-3.69641 0.437287 0.208029)
(-3.17599 0.0488069 -4.08814)
(-3.72151 1.27867 22.8291)
(-5.14996 0.635569 2.34647)
(-4.65528 0.471625 -0.20448)
(-3.36149 0.965211 -0.950959)
(-3.39946 0.128451 -1.39634)
(-3.95101 0.643437 1.17852)
(-2.81675 2.20277 2.10809)
(-3.36418 0.846413 -0.194846)
(-3.28956 0.941917 -0.871034)
(-3.55462 0.902466 -0.910656)
(-3.84062 0.527448 -0.342602)
(-3.93488 0.710962 -0.240683)
(-4.07166 0.901541 -1.24479)
(-3.82803 1.01355 -0.180464)
(-2.88023 1.30454 -3.6349)
(-7.81496 0.646161 22.9962)
(-2.64987 0.690753 2.69646)
(-3.8655 0.964699 -1.14789)
(-3.3202 0.995242 -1.00225)
(-3.06113 1.05117 -0.655817)
(-3.73189 1.08578 -0.13774)
(-4.28427 1.01061 -0.265028)
(-4.12329 0.972235 -0.430257)
(-3.5038 1.01565 -1.32333)
(-3.038 1.38781 -3.01877)
(-4.37819 2.32018 8.60941)
(-3.14071 0.578974 1.78343)
(-3.27364 1.00237 -0.759252)
(-3.39407 0.959666 -0.919068)
(-3.178 0.978859 -0.635319)
(-3.78502 0.881717 -0.158213)
(-4.15558 0.919901 -0.242491)
(-4.02648 0.949877 -0.206689)
(-4.62488 0.661179 -0.306095)
(-4.39704 0.401552 0.00319122)
(-4.43337 0.197976 -0.376384)
(-3.80182 0.417565 -0.309638)
(-4.00732 0.547254 -0.251921)
(-4.09557 0.626657 -0.377252)
(-4.72999 0.73381 -0.478132)
(-4.03853 1.15148 -2.20903)
(-2.65373 0.905017 -0.816764)
(-3.00849 0.765919 -0.141623)
(-4.00818 0.587722 -0.186261)
(-4.02028 0.839919 0.363584)
(-4.05137 -1.12613 -1.08033)
(-3.56104 0.242573 -1.0495)
(-3.45969 0.839846 -0.44154)
(-3.50301 0.946677 -0.370796)
(-3.56856 1.03994 -0.367955)
(-3.60229 1.55965 -0.40607)
(-3.27186 1.26321 -0.244473)
(-3.37013 1.0522 -0.138055)
(-4.12181 0.933651 -0.0496813)
(-4.13599 0.573535 0.14893)
(-3.88533 0.160078 -1.57175)
(-1.81837 0.13463 -2.82839)
(-1.93156 0.491755 -0.604688)
(-3.03621 0.847701 -0.457783)
(-3.17096 0.974788 -0.542239)
(-3.35107 1.05004 -0.566215)
(-3.37184 0.956684 -0.202169)
(-3.47327 0.881408 -0.0833108)
(-3.92896 0.698547 -0.229475)
(-4.30006 0.738403 0.359771)
(-4.59351 -0.548859 -3.16805)
(-2.47013 0.377468 -1.40935)
(-3.02172 0.864773 -0.427656)
(-3.21421 1.00055 -0.398214)
(-3.33074 0.954589 -0.431224)
(-3.40696 0.951132 -0.376133)
(-3.45051 0.966562 -0.164715)
(-3.53183 0.953769 -0.0950454)
)
;

boundaryField
{
    inlet
    {
        type            calculated;
        value           nonuniform 0();
    }
    outlet
    {
        type            calculated;
        value           nonuniform List<vector> 
20
(
(-5.41665 0.118509 0.248598)
(-5.63859 0.0914219 0.118145)
(-5.45585 -0.0136257 0.189583)
(-5.51876 -0.00830052 0.207391)
(-5.52231 -0.00689978 -2.0082)
(-5.80854 -0.00924042 -0.0264779)
(-5.64754 -0.0482255 -1.38648)
(-5.74604 -0.0437518 -1.12805)
(-7.24552 -0.324099 0.263339)
(-6.55777 -0.151462 0.031412)
(-6.79115 0.163016 0.189987)
(-6.91148 -0.0212176 0.142567)
(-6.72006 -0.0790959 -0.19638)
(-6.39062 -0.0284055 -1.13774)
(-6.44585 0.037163 -0.321804)
(-6.35025 0.0131316 -0.0977663)
(-5.07362 0.215825 -0.133456)
(-5.68893 0.122485 -0.0319625)
(-5.79574 -0.053544 0.0241837)
(-5.85552 0.0171061 0.012906)
)
;
    }
    bottom
    {
        type            calculated;
        value           uniform (0 0 0);
    }
    top
    {
        type            symmetryPlane;
    }
    side1
    {
        type            symmetryPlane;
    }
    side2
    {
        type            symmetryPlane;
    }
    procBoundary7to6
    {
        type            processor;
        value           nonuniform List<vector> 
20
(
(-3.68727 0.662444 -0.120815)
(-3.28373 1.12032 -0.236254)
(-3.08729 0.867745 1.49175)
(-3.38833 0.625383 -0.0882343)
(-4.18407 0.540947 -2.74138)
(-3.78467 0.760632 -0.746735)
(-3.36935 1.12258 -6.90504)
(-3.7882 1.15738 -2.81882)
(-4.41101 0.535453 -0.421625)
(-4.01248 0.787127 -0.321046)
(-4.94233 1.11495 -0.282194)
(-4.03737 1.33969 -0.670082)
(-3.65649 0.624243 -1.47047)
(-3.51134 0.807711 -0.267169)
(-3.62435 0.95241 0.0637042)
(-3.39302 1.59749 -1.6624)
(-4.05652 0.408573 -0.20907)
(-3.75912 0.94074 -1.43223)
(-3.77381 0.755332 -0.520859)
(-3.95179 0.886455 -0.371538)
)
;
    }
    procBoundary7to15
    {
        type            processor;
        value           nonuniform List<vector> 
50
(
(-2.92802 1.21341 0.336631)
(-3.94427 -0.217783 -5.62238)
(-4.72063 0.343203 -0.364245)
(-4.15781 0.786169 0.130026)
(-3.80955 0.854794 0.380126)
(-4.22154 0.842354 0.334115)
(-2.62529 1.12385 -0.43654)
(-7.66428 -0.0170303 -0.944921)
(-2.4404 0.6167 0.778152)
(-3.18081 0.90883 0.10257)
(-3.56352 1.05438 2.62391)
(-3.68659 0.996681 3.94627)
(-3.7752 1.03448 1.42134)
(-3.78186 0.849882 -3.97093)
(-4.09774 0.932037 -1.50423)
(-3.87986 0.98004 1.82353)
(-4.19847 0.890177 1.33337)
(-3.62969 0.89658 1.8651)
(-3.38477 0.754872 -7.94046)
(-3.44209 0.882968 -1.27272)
(-3.72607 1.43958 -0.718726)
(-2.69844 1.77627 -2.41437)
(-2.80331 1.35944 -1.0162)
(-2.51312 2.11611 0.540659)
(-5.41172 2.39899 0.296884)
(-4.21887 1.2415 0.116869)
(-4.94515 1.07328 -0.419734)
(-0.722712 1.18673 -6.96352)
(-4.23671 1.02483 0.905961)
(-4.66763 0.964069 0.0533924)
(-3.4395 1.11552 -1.63443)
(-3.77652 0.913407 -0.0644995)
(-3.45484 0.963241 -0.534529)
(-3.99261 0.839062 2.4564)
(-3.37903 0.709362 -0.484659)
(-3.42802 0.9217 -1.02493)
(-3.30739 0.959152 -0.686941)
(-3.80599 0.956388 -0.176326)
(-4.15654 0.941431 -0.201938)
(-4.03985 0.972991 -0.374595)
(-4.35316 0.721133 -0.380335)
(-3.85253 0.662049 0.168026)
(-4.81847 -2.46691 -1.11313)
(-2.50142 -0.0657646 -1.64141)
(-2.75367 0.528278 -0.686159)
(-2.95557 0.806238 -0.414699)
(-3.15577 0.870182 -0.473475)
(-3.31517 0.955802 -0.451032)
(-3.3431 0.990199 -0.173036)
(-3.49873 0.963033 -0.0653243)
)
;
    }
}


// ************************************************************************* //
