/*--------------------------------*- C++ -*----------------------------------*\
| =========                 |                                                 |
| \\      /  F ield         | OpenFOAM: The Open Source CFD Toolbox           |
|  \\    /   O peration     | Version:  2.4.0                                 |
|   \\  /    A nd           | Web:      www.OpenFOAM.org                      |
|    \\/     M anipulation  |                                                 |
\*---------------------------------------------------------------------------*/
FoamFile
{
    version     2.0;
    format      ascii;
    class       volScalarField;
    location    "0.05";
    object      alpha;
}
// * * * * * * * * * * * * * * * * * * * * * * * * * * * * * * * * * * * * * //

dimensions      [0 0 0 0 0 0 0];

internalField   nonuniform List<scalar> 
200
(
5.96969e-14
2.47064e-15
5.69208e-17
9.65591e-19
9.58041e-19
7.4672e-17
4.82773e-15
2.28918e-13
6.03295e-12
2.28917e-13
3.16184e-16
1.43545e-17
3.60071e-19
6.75133e-21
1.61651e-20
1.05862e-18
5.82574e-17
2.41475e-15
5.7282e-14
2.41462e-15
1.22737e-18
6.0619e-20
1.88996e-21
1.66282e-20
9.07976e-19
3.58842e-17
7.74215e-16
4.98859e-17
3.03082e-16
1.40253e-17
3.90405e-21
7.95941e-22
4.97823e-20
3.6306e-18
2.1517e-16
9.27555e-15
2.20035e-13
9.27549e-15
2.16159e-16
3.67752e-18
4.80442e-11
1.79321e-12
3.76056e-14
5.85406e-16
5.80007e-16
4.93706e-14
3.51142e-12
1.85013e-10
5.48514e-09
1.85013e-10
2.28994e-13
9.47642e-15
2.18352e-16
3.76928e-18
8.45742e-18
6.18571e-16
3.80215e-14
1.75622e-12
4.62879e-11
1.75617e-12
8.08517e-16
3.67189e-17
1.00684e-18
6.20247e-18
3.66665e-16
1.58099e-14
3.75224e-13
2.50675e-14
2.20099e-13
9.26758e-15
2.35716e-18
3.19876e-19
1.85558e-17
1.46614e-15
9.48016e-14
4.49576e-12
1.18496e-10
4.49577e-12
9.55754e-14
1.50103e-15
2.90301e-08
9.65201e-10
1.82302e-11
2.58036e-13
2.5571e-13
2.39675e-11
1.89403e-09
1.12264e-07
3.80335e-06
1.12264e-07
1.22991e-10
4.59054e-12
9.62673e-14
1.51832e-15
3.18534e-15
2.62876e-13
1.82174e-11
9.4723e-10
2.80829e-08
9.47219e-10
3.90814e-13
1.61729e-14
3.8863e-16
1.25758e-15
8.09159e-14
3.83784e-12
1.01211e-10
8.33209e-12
1.18576e-10
4.49697e-12
1.03524e-15
8.49997e-17
3.75403e-15
3.2353e-13
2.3011e-11
1.21244e-09
3.5946e-08
1.21245e-09
2.33859e-11
3.39328e-13
1.00237e-05
2.92235e-07
4.90988e-09
6.25184e-11
6.20042e-11
6.46414e-09
5.74673e-07
3.89271e-05
0.00153843
3.89271e-05
3.71582e-08
1.23544e-09
2.33345e-11
3.33286e-13
6.50787e-13
6.13536e-11
4.84851e-09
2.87386e-07
9.73631e-06
2.87386e-07
1.04952e-10
3.91725e-12
8.21484e-14
1.31111e-15
4.13544e-15
3.39334e-13
2.33859e-11
1.21245e-09
3.59458e-08
1.21243e-09
2.50121e-13
1.03508e-14
2.57146e-16
1.4703e-15
9.48163e-14
4.49699e-12
1.18577e-10
8.3321e-12
1.01211e-10
3.83782e-12
2.90782e-08
9.66994e-10
1.82679e-11
2.58624e-13
2.5629e-13
2.40169e-11
1.89754e-09
1.12449e-07
3.80883e-06
1.12449e-07
1.2322e-10
4.60002e-12
9.64861e-14
1.51813e-15
2.958e-15
2.53332e-13
1.80145e-11
9.48976e-10
2.81292e-08
9.48976e-10
3.91622e-13
1.62095e-14
3.73724e-16
6.5071e-18
1.959e-17
1.50561e-15
9.57897e-14
4.50503e-12
1.18715e-10
4.50499e-12
1.03724e-15
4.71245e-17
1.23394e-18
3.64449e-18
2.15075e-16
9.28185e-15
2.20402e-13
2.51174e-14
3.75995e-13
1.58456e-14
)
;

boundaryField
{
    inlet
    {
        type            zeroGradient;
    }
    outlet
    {
        type            zeroGradient;
    }
    bottom
    {
        type            fixedValue;
        value           uniform 0;
    }
    top
    {
        type            symmetryPlane;
    }
    side1
    {
        type            symmetryPlane;
    }
    side2
    {
        type            symmetryPlane;
    }
    procBoundary16to8
    {
        type            processor;
        value           nonuniform List<scalar> 
50
(
6.26187e-12
2.33746e-13
4.90241e-15
7.56169e-17
9.68132e-19
9.55535e-19
5.60123e-17
2.41465e-15
5.72822e-14
2.41456e-15
5.67016e-09
1.88524e-10
3.56079e-12
4.99432e-14
5.85736e-16
5.78576e-16
3.70326e-14
1.75618e-12
4.6288e-11
1.75615e-12
3.91561e-06
1.14158e-07
1.918e-09
2.42202e-11
2.58026e-13
2.55126e-13
1.79775e-11
9.47223e-10
2.80829e-08
9.47213e-10
0.00157736
3.95017e-05
5.81137e-07
6.52549e-09
6.25158e-11
6.18754e-11
4.84853e-09
2.87387e-07
9.73631e-06
2.87385e-07
3.92128e-06
1.14347e-07
1.92156e-09
2.42702e-11
2.58611e-13
2.55718e-13
1.80158e-11
9.49061e-10
2.81331e-08
1.05046e-09
)
;
    }
    procBoundary16to17
    {
        type            processor;
        value           nonuniform List<scalar> 
20
(
4.82763e-15
5.59761e-17
3.53528e-19
4.97091e-20
3.51138e-12
3.70324e-14
2.14713e-16
1.90826e-17
1.89402e-09
1.79772e-11
9.48144e-14
4.08738e-15
5.74672e-07
4.8485e-09
2.30107e-11
8.09144e-14
1.89754e-09
1.80144e-11
9.50151e-14
3.67563e-16
)
;
    }
    procBoundary16to24
    {
        type            processor;
        value           nonuniform List<scalar> 
50
(
8.01642e-22
7.96351e-20
7.2602e-18
5.73665e-16
3.70883e-14
1.75859e-12
4.63451e-11
1.75859e-12
3.70884e-14
5.73666e-16
2.79533e-19
2.96821e-17
2.93194e-15
2.52759e-13
1.79774e-11
9.4722e-10
2.80829e-08
9.4722e-10
1.79774e-11
2.52759e-13
5.34622e-17
6.00426e-15
6.46994e-13
6.13535e-11
4.84851e-09
2.87386e-07
9.73631e-06
2.87386e-07
4.84851e-09
6.13535e-11
5.30141e-16
5.375e-17
2.93255e-15
2.52759e-13
1.79774e-11
9.4722e-10
2.80829e-08
9.4723e-10
1.82174e-11
2.62875e-13
2.41839e-18
1.99198e-19
7.26344e-18
5.73665e-16
3.70884e-14
1.75859e-12
4.63451e-11
1.75863e-12
3.80796e-14
6.19624e-16
)
;
    }
}


// ************************************************************************* //
