/*--------------------------------*- C++ -*----------------------------------*\
| =========                 |                                                 |
| \\      /  F ield         | OpenFOAM: The Open Source CFD Toolbox           |
|  \\    /   O peration     | Version:  2.4.0                                 |
|   \\  /    A nd           | Web:      www.OpenFOAM.org                      |
|    \\/     M anipulation  |                                                 |
\*---------------------------------------------------------------------------*/
FoamFile
{
    version     2.0;
    format      ascii;
    class       volVectorField;
    location    "0.05";
    object      U;
}
// * * * * * * * * * * * * * * * * * * * * * * * * * * * * * * * * * * * * * //

dimensions      [0 1 -1 0 0 0 0];

internalField   nonuniform List<vector> 
200
(
(-1.29307 126.58 48.1223)
(-65.7801 113.823 -9.68219)
(-52.9984 156.644 9.01594)
(-91.7526 127.021 13.0911)
(-123.555 191.381 6.03201)
(11.3588 60.4671 -786.939)
(10.6495 98.3531 -131.935)
(50.5098 162.935 -213.81)
(108.314 145.276 -53.7762)
(111.22 155.844 -56.4649)
(-2.50723 135.558 31.3485)
(-17.8234 176.452 40.634)
(-43.6252 128.385 10.7732)
(-63.5245 200.377 16.9324)
(-49.0301 163.36 -9.61871)
(-45.8106 266.571 -46.5148)
(10.641 181.789 -123.791)
(52.9366 183.882 -28.9605)
(72.0657 170.897 -14.722)
(81.2864 172.458 29.6137)
(5.05979 131.381 29.5499)
(-2.78901 149.301 26.9897)
(-6.40802 163.897 10.2496)
(-16.1167 139.713 10.0501)
(-0.793132 191.344 13.1842)
(6.71009 204.107 4.70049)
(36.8761 177.094 16.3026)
(49.2013 173.887 7.37859)
(57.6813 155.816 41.7718)
(63.4163 114.458 16.9432)
(10.9206 112.986 21.6664)
(21.4243 144.155 12.2727)
(27.0339 144.647 10.8371)
(34.6788 128.574 17.2625)
(21.6245 130.955 21.2493)
(41.1239 137.371 14.1377)
(35.4349 118.729 19.3771)
(47.1765 117.902 27.3068)
(35.0326 85.5538 27.4307)
(38.6483 109.702 8.37961)
(0.571953 113.968 83.1137)
(-0.15099 160.742 85.6496)
(-27.6553 90.7619 35.5512)
(-8.76041 154.691 3.46514)
(106.5 94.7645 -401.929)
(142.941 -15.4284 -159.527)
(82.991 119.777 -261.138)
(259.864 -245.623 -425.657)
(53.8592 94.8443 -255.428)
(191.55 -58.9547 -22.4027)
(13.5965 139.749 78.4478)
(4.89645 113.562 68.2533)
(16.5021 166.293 56.3975)
(32.6314 107.951 -5.13984)
(113.991 66.3329 -82.4837)
(84.9508 61.6141 -217.847)
(258.526 -135.104 -288.18)
(51.9924 79.7195 -249.449)
(173.049 -83.9649 -106.266)
(85.5746 89.2232 -136.793)
(8.59523 102.539 49.9289)
(28.1699 145.794 51.6585)
(24.892 106.623 58.6577)
(56.1859 153.81 79.9981)
(65.99 103.526 -25.2757)
(125.834 86.5303 -16.8185)
(70.0396 100.62 -34.0042)
(98.4153 71.0055 36.4444)
(69.2075 96.6777 20.6241)
(70.3715 121.332 114.734)
(15.5623 90.1526 49.4569)
(29.0633 121.904 47.5094)
(51.6181 123.561 70.0277)
(50.8312 76.0298 67.6514)
(68.5244 114.664 76.1103)
(58.1721 65.9876 66.1603)
(76.6788 79.0185 89.9744)
(54.4442 52.644 94.0714)
(68.3827 81.3982 120.638)
(56.165 60.0722 126.128)
(27.3223 140.28 67.5651)
(40.0865 72.269 45.8171)
(53.8691 107.18 -67.0671)
(215.097 86.4064 -413.346)
(236.757 -16.019 -301.548)
(106.54 67.5251 -386.031)
(282.731 -219.114 -307.558)
(36.2431 61.058 -253.025)
(133.435 -278.17 -159.612)
(-63.148 15.3624 -219.829)
(17.8586 87.3554 45.5067)
(45.1425 148.846 35.2584)
(101.577 51.5739 -89.4745)
(175.532 63.9047 -203.621)
(130.057 14.7265 -371.566)
(212.864 -262.089 -161.999)
(50.1401 0.442242 -305.951)
(120.394 -196.294 -20.2642)
(-49.9365 -15.8001 -204.901)
(25.2377 -190.013 106.06)
(28.0256 116.965 38.7601)
(45.4665 85.7656 37.5668)
(119.283 141.865 15.358)
(87.4539 24.4586 -122.034)
(181.397 -39.5704 -18.1172)
(69.851 -13.8495 -154.473)
(104.836 -24.1974 90.4423)
(12.2386 -54.4286 -86.8774)
(64.3727 -137.904 130.995)
(-31.1395 -38.7057 2.25326)
(14.4475 58.9327 52.5079)
(60.0725 113.49 64.5789)
(70.8659 48.0696 60.5833)
(114.853 80.3298 66.2531)
(76.216 5.11229 30.2861)
(107.706 13.884 106.508)
(54.1682 -31.6609 0.126853)
(86.2524 -36.9378 133.733)
(8.73843 -51.6184 7.26458)
(39.782 -23.3254 129.85)
(32.4432 52.4239 -47.4027)
(71.2964 76.0161 -139.218)
(117.232 33.0296 -280.893)
(315.14 -106.376 -509.761)
(-31.7325 -37.1025 -487.888)
(155.762 -331.411 352.008)
(-141.977 -88.2254 -419.223)
(-75.6137 -345.078 275.469)
(-292.642 -106.016 -252.055)
(-263.782 -158.767 457.646)
(27.6862 101.606 -95.9117)
(79.7344 27.9625 -180.545)
(154.212 -38.9905 -418.737)
(-65.0643 -53.8788 -493.192)
(97.6667 -222.229 497.053)
(-81.4734 -120.021 -401.2)
(-11.2939 -280.099 143.763)
(-245.506 -152.594 -240.18)
(-185.676 -204.509 411.639)
(-214.239 -77.4663 -36.298)
(20.9554 73.4635 -82.1473)
(134.95 126.705 -145.337)
(-7.10623 -29.4371 -350.227)
(97.2423 -135.035 431.226)
(-67.7943 -153.727 -292.593)
(45.4269 -123.31 171.997)
(-176.128 -176.727 -248.135)
(-92.9368 -212.391 347.655)
(-157.088 -136.218 -52.234)
(-114.812 -113.365 179.15)
(40.9641 129.723 -26.4994)
(48.6156 62.8714 -29.5169)
(119.539 47.7543 115.339)
(33.4095 -25.0493 -134.053)
(77.4762 -40.2595 163.64)
(-60.7506 -111.959 -214.371)
(-29.2834 -164.058 298.663)
(-107.035 -135.076 -103.477)
(-64.1445 -127.707 129.516)
(-122.352 -119.655 -17.5005)
(-21.0629 38.0881 -52.445)
(-56.5433 18.0766 -70.1238)
(-47.1567 -89.6796 -305.83)
(-407.301 -173.455 -469.814)
(-239.854 -367.552 1620.45)
(-269.314 -158.654 -831.356)
(-168.173 -424.378 1079.2)
(-297.561 -149.496 -504.77)
(-263.541 -272.465 641.86)
(-258.295 -89.9898 -356.993)
(-36.6068 69.1663 -98.2427)
(-55.7997 54.6066 -229.857)
(-304.655 -63.577 -481.388)
(-232.614 -249.23 1343.07)
(-300.119 -117.939 -761.05)
(-146.092 -389.976 1006.43)
(-280.968 -144.244 -487.656)
(-242.51 -273.189 626.802)
(-255.077 -108.069 -336.105)
(-227.581 -180.606 424.031)
(12.1548 102.002 -263.009)
(-199.098 0.680465 -383.343)
(-76.291 -138.123 770.997)
(-216.391 -73.9235 -563.962)
(-81.7985 -243.491 811.9)
(-228.715 -136.162 -443.889)
(-175.527 -239.256 540.374)
(-239.585 -116.052 -306.903)
(-179.106 -186.072 379.474)
(-176.228 -90.176 -140.715)
(-39.1694 107.754 -99.4806)
(26.7314 41.1441 273.405)
(-84.8758 -2.98008 -333.479)
(19.5932 -37.0559 373.702)
(-178.867 -75.3316 -384.962)
(-98.0928 -158.326 428.72)
(-202.009 -103.517 -266.699)
(-130.864 -178.18 290.365)
(-171.083 -110.497 -129.914)
(-140.588 -139.699 157.003)
)
;

boundaryField
{
    inlet
    {
        type            calculated;
        value           nonuniform List<vector> 
20
(
(6 0 0)
(6 0 0)
(6 0 0)
(6 0 0)
(6 0 0)
(6 0 0)
(6 0 0)
(6 0 0)
(6 0 0)
(6 0 0)
(6 0 0)
(6 0 0)
(6 0 0)
(6 0 0)
(6 0 0)
(6 0 0)
(6 0 0)
(6 0 0)
(6 0 0)
(6 0 0)
)
;
    }
    outlet
    {
        type            calculated;
        value           nonuniform 0();
    }
    bottom
    {
        type            calculated;
        value           uniform (0 0 0);
    }
    top
    {
        type            symmetryPlane;
    }
    side1
    {
        type            symmetryPlane;
    }
    side2
    {
        type            symmetryPlane;
    }
    procBoundary16to8
    {
        type            processor;
        value           nonuniform List<vector> 
50
(
(-13.9191 93.6366 21.0196)
(-61.573 142.27 -2.58498)
(-109.128 73.4057 11.2476)
(-117.03 121.742 7.44947)
(-60.9858 92.8108 -349.815)
(-128.832 161.865 -35.2761)
(4.1281 90.2347 -366.071)
(96.744 -62.4963 -286.969)
(87.006 86.4775 -262.397)
(159.231 84.2484 -48.0576)
(5.67592 123.929 84.3104)
(-48.2321 73.3731 68.248)
(-42.326 128.952 45.7317)
(38.0321 64.4601 -531.786)
(-52.5969 163.28 -28.8315)
(59.3223 120.159 -400.222)
(193.954 -151.872 -418.515)
(25.6029 76.6362 -330.207)
(272.552 -212.481 -405.165)
(51.5235 24.4185 -344.322)
(15.2403 109.883 76.3851)
(29.1891 148.044 59.258)
(98.1515 88.7537 -462.902)
(84.3184 150.897 -50.5215)
(126.318 121.378 -475.696)
(301.702 -173.217 -500.702)
(37.1418 69.0605 -373.937)
(285.65 -312.818 -306.41)
(-37.6447 20.7651 -331.796)
(86.7609 -197.658 -1.15898)
(27.5855 121.675 6.94795)
(72.6734 65.972 -76.8503)
(80.6139 118.505 -90.7155)
(98.2769 80.9998 -252.403)
(330.415 -223.565 -603.808)
(-103.784 -80.5522 -440.637)
(190.529 -432.044 297.645)
(-197.096 -120.953 -448.174)
(-49.4832 -263.655 155.398)
(-302.652 -66.3398 -273.653)
(2.72243 -0.688928 -10.5161)
(-4.48362 57.5614 -16.8771)
(-8.07096 4.60182 -58.405)
(34.661 -106.304 -217.432)
(-228.722 -140.071 -396.414)
(-164.088 -447.632 1276.62)
(-298.635 -269.619 -821.161)
(-169.303 -417.752 1113.04)
(-307.603 -163.453 -526.263)
(-269.648 -233.992 651.288)
)
;
    }
    procBoundary16to17
    {
        type            processor;
        value           nonuniform List<vector> 
20
(
(106.251 154.123 11.3136)
(102.639 124.112 17.9901)
(59.5932 139.305 38.811)
(15.7477 66.8228 40.3011)
(100.644 74.897 -142.121)
(114.403 103.569 57.3042)
(55.1735 73.4624 91.3633)
(83.3572 83.2924 143.091)
(-39.7903 -132.042 269.152)
(-98.854 -30.8157 -49.8895)
(-1.59538 -19.7838 167.425)
(0.578757 -37.5183 34.4162)
(-242.034 -9.48301 -52.8934)
(-204.179 -98.4497 206.363)
(-130.69 -77.8207 9.39558)
(-66.8243 -98.7397 109.282)
(-258.795 -167.571 407.108)
(-178.411 -67.3188 -165.453)
(-163.759 -128.23 209.603)
(-141.121 -85.1267 -59.0084)
)
;
    }
    procBoundary16to24
    {
        type            processor;
        value           nonuniform List<vector> 
50
(
(18.9857 -20.1013 65.0899)
(11.3852 59.6642 -14.0925)
(58.1563 59.1794 11.4623)
(32.5614 88.1311 30.6889)
(48.0414 91.0146 -15.0181)
(14.5226 78.8056 9.70684)
(46.1047 84.6973 -20.8154)
(9.57746 36.5264 41.8354)
(51.5614 59.3939 -31.424)
(5.74399 -14.7293 26.9483)
(6.33815 17.9111 67.9315)
(46.9969 46.9223 85.2718)
(46.2631 59.7724 96.095)
(72.2662 78.0758 120.467)
(62.554 56.2299 99.7787)
(85.819 70.9375 87.9763)
(56.7143 44.7288 110.528)
(86.8994 83.2387 84.1292)
(51.4787 39.2695 96.0217)
(102.297 76.2303 86.1727)
(17.3378 36.1951 84.1246)
(26.16 37.6822 91.7181)
(67.4394 55.1312 113.038)
(69.1031 25.7352 55.7626)
(122.721 67.5644 46.6031)
(73.2529 11.6986 7.3724)
(122.343 21.7502 71.2058)
(38.9749 -5.11791 -42.5095)
(91.2061 35.7885 54.149)
(-1.82168 -17.4678 -15.7607)
(10.524 36.9708 30.6828)
(77.8396 72.3873 35.8283)
(64.78 24.6118 -18.3823)
(116.815 39.9357 87.4004)
(32.9317 -11.9295 -156.599)
(96.9083 0.807304 100.028)
(-32.6309 -66.5468 -135.288)
(27.4648 -52.5139 74.4571)
(-100.688 -111.236 -56.7644)
(-47.4653 -120.996 59.2019)
(36.8955 160.929 -12.0603)
(-28.1152 79.1544 -131.693)
(64.7085 54.5427 247.793)
(-49.2099 -1.09902 -219.122)
(23.4054 -41.5641 225.138)
(-115.694 -81.0915 -202.348)
(-53.3314 -127.349 171.375)
(-116.543 -110.429 -104.699)
(-104.232 -142.722 92.9772)
(-126.187 -103.644 -51.6249)
)
;
    }
}


// ************************************************************************* //
