/*--------------------------------*- C++ -*----------------------------------*\
| =========                 |                                                 |
| \\      /  F ield         | OpenFOAM: The Open Source CFD Toolbox           |
|  \\    /   O peration     | Version:  2.4.0                                 |
|   \\  /    A nd           | Web:      www.OpenFOAM.org                      |
|    \\/     M anipulation  |                                                 |
\*---------------------------------------------------------------------------*/
FoamFile
{
    version     2.0;
    format      ascii;
    class       volVectorField;
    location    "0.05";
    object      Ua;
}
// * * * * * * * * * * * * * * * * * * * * * * * * * * * * * * * * * * * * * //

dimensions      [0 1 -1 0 0 0 0];

internalField   nonuniform List<vector> 
200
(
(-1.7501 9.63071 -10.2063)
(-1.77173 9.74977 -10.3325)
(-1.7908 9.85477 -10.4365)
(-1.75937 10.1666 -10.4612)
(2.83999 28.9244 -4.9192)
(2.90433 29.1844 -4.84115)
(2.90435 29.1846 -4.84122)
(2.90435 29.1847 -4.84125)
(2.90436 29.1847 -4.84125)
(2.90435 29.1847 -4.84125)
(-1.57374 8.66024 -9.17782)
(-1.61005 8.86004 -9.38245)
(-1.64297 9.04138 -9.55346)
(-1.54046 9.49112 -9.33819)
(2.62457 21.5517 -0.529894)
(2.76372 24.9982 -2.42313)
(2.85382 27.6803 -3.9723)
(2.9043 29.183 -4.84021)
(2.90436 29.1848 -4.84127)
(2.90439 29.185 -4.84127)
(-1.43033 7.87105 -8.33437)
(-1.47613 8.12301 -8.5866)
(-1.11461 5.99387 -5.36735)
(1.58723 -9.80948 17.6506)
(1.59336 -9.84379 17.7014)
(1.59346 -9.84087 17.6998)
(1.59382 -9.83005 17.6935)
(1.96145 1.11316 11.3728)
(2.90046 29.0682 -4.77392)
(2.90288 29.1393 -4.81484)
(-1.30632 7.18686 -7.5897)
(0.820755 -5.31475 11.0099)
(1.59285 -9.84577 17.7007)
(1.59322 -9.84791 17.7038)
(1.59322 -9.84792 17.7038)
(1.59322 -9.84792 17.7038)
(1.59322 -9.84793 17.7038)
(1.59325 -9.84781 17.7038)
(1.60164 -9.64504 17.5822)
(1.61958 -9.25313 17.3419)
(-1.72251 9.47891 -10.0455)
(-1.7496 9.628 -10.2035)
(-1.77153 9.74874 -10.3315)
(-1.7442 10.0456 -10.3807)
(2.84492 28.9419 -4.91275)
(2.90434 29.1846 -4.8412)
(2.90435 29.1847 -4.84123)
(2.90436 29.1847 -4.84125)
(2.90436 29.1848 -4.84126)
(2.90436 29.1848 -4.84125)
(-1.52959 8.41726 -8.92034)
(-1.57282 8.65514 -9.17262)
(-1.60935 8.85637 -9.38108)
(-1.52704 9.34956 -9.30176)
(2.69742 23.7125 -1.77781)
(2.80717 26.2917 -3.17026)
(2.87025 28.1695 -4.25481)
(2.90433 29.1838 -4.84069)
(2.90437 29.1849 -4.84128)
(2.90437 29.1849 -4.84127)
(-1.37523 7.56784 -8.02033)
(-1.42839 7.86033 -8.32787)
(-1.21592 6.60046 -6.37416)
(1.58494 -9.79505 17.63)
(1.5934 -9.84262 17.7007)
(1.59352 -9.83898 17.6987)
(1.59397 -9.82558 17.6909)
(2.07765 4.57312 9.37435)
(2.90219 29.1199 -4.80376)
(2.90352 29.1591 -4.82629)
(-1.24651 6.85857 -7.2626)
(0.53737 -3.64441 8.48629)
(1.59272 -9.84496 17.6995)
(1.59322 -9.84792 17.7038)
(1.59322 -9.84792 17.7038)
(1.59322 -9.84793 17.7038)
(1.59323 -9.84794 17.7038)
(1.59324 -9.84768 17.7037)
(1.6038 -9.53225 17.5217)
(1.6255 -8.9226 17.1661)
(-1.68707 9.28389 -9.83876)
(-1.72198 9.47596 -10.0423)
(-1.74944 9.62712 -10.2025)
(-1.72898 9.9251 -10.2812)
(2.84998 28.9606 -4.90599)
(2.90435 29.1847 -4.84123)
(2.90436 29.1847 -4.84125)
(2.90436 29.1848 -4.84126)
(2.90436 29.1848 -4.84126)
(2.90436 29.1848 -4.84126)
(-1.47445 8.11385 -8.5988)
(-1.52863 8.412 -8.91478)
(-1.57253 8.65368 -9.17081)
(-1.51203 9.2008 -9.22176)
(2.78103 26.1908 -3.20834)
(2.8539 27.6827 -3.97369)
(2.88709 28.6706 -4.54425)
(2.90435 29.1845 -4.84104)
(2.90437 29.1849 -4.84128)
(2.90437 29.1849 -4.84128)
(-1.30909 7.20386 -7.63442)
(-1.37393 7.56066 -8.01247)
(-1.30472 7.13602 -7.26634)
(1.57815 -9.75209 17.5691)
(1.59352 -9.83895 17.6986)
(1.59372 -9.83302 17.6952)
(1.59445 -9.81138 17.6827)
(2.30068 11.2129 5.53922)
(2.90348 29.1583 -4.8259)
(2.90402 29.1741 -4.83502)
(-1.17587 6.47038 -6.85464)
(0.0222641 -0.605462 3.88992)
(1.59231 -9.84256 17.6959)
(1.59322 -9.84792 17.7038)
(1.59322 -9.84793 17.7038)
(1.59323 -9.84794 17.7038)
(1.59323 -9.84796 17.7038)
(1.59324 -9.84743 17.7035)
(1.61425 -9.22205 17.3423)
(1.65433 -8.02996 16.6537)
(-1.63982 9.02387 -9.56317)
(-1.68646 9.28054 -9.83521)
(-1.72179 9.47498 -10.0413)
(-1.71082 9.78854 -10.1576)
(2.85511 28.98 -4.89906)
(2.90435 29.1847 -4.84126)
(2.90436 29.1848 -4.84126)
(2.90436 29.1848 -4.84126)
(2.90437 29.1848 -4.84127)
(2.90436 29.1848 -4.84126)
(-1.40357 7.7238 -8.18541)
(-1.47338 8.10797 -8.59256)
(-1.5283 8.41025 -8.91286)
(-1.49174 9.02265 -9.09197)
(2.87807 29.0663 -4.86767)
(2.90436 29.1848 -4.84126)
(2.90437 29.1849 -4.84127)
(2.90437 29.1849 -4.84128)
(2.90437 29.1849 -4.84128)
(2.90437 29.1849 -4.84128)
(-1.22639 6.74879 -7.15213)
(-1.30766 7.19601 -7.62609)
(-1.3735 7.55848 -8.01013)
(-1.28782 8.39052 -8.1018)
(2.7712 25.643 -2.85714)
(2.84329 27.3667 -3.79114)
(2.88334 28.559 -4.47976)
(2.90436 29.1844 -4.84099)
(2.90438 29.185 -4.84129)
(2.90438 29.1849 -4.84129)
(-1.0886 5.9905 -6.34851)
(-1.17503 6.46614 -6.85246)
(-1.04194 5.65611 -5.46968)
(1.58549 -9.79699 17.6322)
(1.59346 -9.84152 17.7002)
(1.5936 -9.83713 17.6976)
(1.59412 -9.82131 17.6884)
(2.19692 8.12398 7.32338)
(2.90315 29.1484 -4.82017)
(2.90388 29.1701 -4.83268)
(-1.68713 9.28421 -9.80591)
(-1.72203 9.47625 -10.0048)
(-1.74948 9.62734 -10.1602)
(-1.729 9.92528 -10.2343)
(2.84997 28.9606 -4.88382)
(2.90434 29.1847 -4.82135)
(2.90435 29.1847 -4.82334)
(2.90436 29.1848 -4.82533)
(2.90436 29.1848 -4.82732)
(2.90436 29.1847 -4.82531)
(-1.47456 8.11442 -8.56624)
(-1.52872 8.41249 -8.87751)
(-1.5726 8.6541 -9.1288)
(-1.52019 9.25098 -9.24573)
(2.87548 29.0566 -4.84718)
(2.90436 29.1848 -4.81938)
(2.90436 29.1848 -4.82137)
(2.90437 29.1849 -4.82336)
(2.90437 29.1849 -4.82535)
(2.90437 29.1849 -4.82335)
(-1.30923 7.20462 -7.6021)
(-1.37408 7.56151 -7.97572)
(-1.42788 7.85783 -8.28493)
(-1.32791 8.72108 -8.35962)
(2.82512 27.2934 -3.79471)
(2.87316 28.2551 -4.28258)
(2.89377 28.8695 -4.63786)
(2.90436 29.1846 -4.8212)
(2.90438 29.1849 -4.82336)
(2.90437 29.1849 -4.82138)
(-1.17697 6.47681 -6.83084)
(-1.24753 6.86507 -7.23761)
(-1.19052 6.50816 -6.56899)
(1.57991 -9.75807 17.4839)
(1.59507 -9.84072 17.6369)
(1.59408 -9.82174 17.6356)
(1.59542 -9.78289 17.6178)
(2.42019 14.7707 3.47837)
(2.90363 29.1626 -4.80852)
(2.90408 29.176 -4.81425)
)
;

boundaryField
{
    inlet
    {
        type            calculated;
        value           uniform (0 0 0);
    }
    outlet
    {
        type            calculated;
        value           nonuniform 0();
    }
    bottom
    {
        type            calculated;
        value           uniform (0 0 0);
    }
    top
    {
        type            symmetryPlane;
    }
    side1
    {
        type            symmetryPlane;
    }
    side2
    {
        type            symmetryPlane;
    }
    procBoundary16to8
    {
        type            processor;
        value           nonuniform List<vector> 
50
(
(-1.97057 10.844 -11.4921)
(-1.97057 10.844 -11.492)
(-1.97056 10.8439 -11.492)
(-1.97055 10.8439 -11.492)
(-1.90875 11.0613 -11.398)
(2.60889 26.5514 -4.51053)
(2.63734 26.5016 -4.39621)
(2.61066 26.2336 -4.35173)
(2.57809 25.9062 -4.29742)
(2.61076 26.2345 -4.35173)
(-1.97057 10.844 -11.4921)
(-1.97057 10.844 -11.4921)
(-1.97057 10.8439 -11.492)
(-1.97056 10.844 -11.492)
(-1.91328 11.0404 -11.4047)
(2.59071 26.3429 -4.46789)
(2.61061 26.233 -4.35165)
(2.578 25.9053 -4.29727)
(2.53726 25.4959 -4.22936)
(2.57806 25.9058 -4.29727)
(-1.97058 10.844 -11.4921)
(-1.97057 10.844 -11.4921)
(-1.97057 10.844 -11.4921)
(-1.97056 10.844 -11.492)
(-1.9182 11.0218 -11.4114)
(2.56813 26.0903 -4.41783)
(2.57797 25.9051 -4.29725)
(2.5372 25.4953 -4.22926)
(2.48481 24.9689 -4.14192)
(2.53723 25.4956 -4.22925)
(-1.97058 10.844 -11.4921)
(-1.97058 10.844 -11.4921)
(-1.97057 10.844 -11.4921)
(-1.97057 10.844 -11.4921)
(-1.92316 11.0032 -11.4181)
(2.53963 25.778 -4.35787)
(2.53718 25.4951 -4.22924)
(2.48475 24.9683 -4.14182)
(2.41487 24.2661 -4.02533)
(2.48477 24.9684 -4.14181)
(-1.97058 10.844 -11.4589)
(-1.97057 10.844 -11.4542)
(-1.97057 10.844 -11.4495)
(-1.97056 10.844 -11.4447)
(-1.91819 11.0219 -11.3597)
(2.56836 26.0887 -4.39731)
(2.57822 25.9032 -4.27899)
(2.53749 25.4929 -4.21289)
(2.48525 24.9647 -4.12721)
(2.782 21.9015 -3.54855)
)
;
    }
    procBoundary16to17
    {
        type            processor;
        value           nonuniform List<vector> 
20
(
(2.90441 29.1853 -4.84127)
(2.90621 29.2034 -4.84134)
(2.91332 29.2569 -4.82644)
(1.68786 -8.89626 16.9759)
(2.90438 29.185 -4.84126)
(2.90436 29.1848 -4.84131)
(2.90637 29.1947 -4.83271)
(1.68637 -8.18489 16.6367)
(2.90436 29.1848 -4.84125)
(2.9044 29.1852 -4.84129)
(2.90422 29.1791 -4.83762)
(1.72332 -6.42411 15.6825)
(2.90436 29.1848 -4.84126)
(2.90438 29.1849 -4.84128)
(2.90438 29.185 -4.84128)
(2.9041 29.1763 -4.83618)
(2.90437 29.1846 -4.8233)
(2.90438 29.1849 -4.82136)
(2.90439 29.1851 -4.81939)
(2.90424 29.18 -4.81442)
)
;
    }
    procBoundary16to24
    {
        type            processor;
        value           nonuniform List<vector> 
50
(
(1.55588 -9.62809 17.3753)
(1.59321 -9.84787 17.7036)
(1.59323 -9.848 17.7038)
(1.59323 -9.848 17.7038)
(1.59323 -9.848 17.7038)
(1.59323 -9.848 17.7038)
(1.59323 -9.848 17.7038)
(1.59323 -9.84799 17.7038)
(1.59323 -9.84798 17.7038)
(1.59323 -9.84797 17.7039)
(1.53471 -9.5029 17.1835)
(1.5932 -9.84782 17.7036)
(1.59323 -9.848 17.7038)
(1.59323 -9.848 17.7038)
(1.59323 -9.848 17.7038)
(1.59323 -9.848 17.7038)
(1.59323 -9.848 17.7038)
(1.59323 -9.848 17.7038)
(1.59323 -9.84798 17.7038)
(1.59324 -9.84799 17.7038)
(1.47316 -9.1385 16.6241)
(1.59318 -9.84768 17.7033)
(1.59323 -9.848 17.7038)
(1.59323 -9.848 17.7038)
(1.59323 -9.848 17.7038)
(1.59323 -9.848 17.7038)
(1.59323 -9.848 17.7038)
(1.59323 -9.848 17.7038)
(1.59323 -9.84799 17.7038)
(1.59324 -9.84797 17.7038)
(-0.97703 5.376 -5.69358)
(0.402206 -2.80999 6.99106)
(1.59267 -9.84465 17.6988)
(1.59323 -9.84798 17.7038)
(1.59323 -9.84799 17.7038)
(1.59323 -9.848 17.7038)
(1.59323 -9.848 17.7038)
(1.59325 -9.84758 17.7036)
(1.61051 -9.33375 17.4068)
(1.64369 -8.34594 16.8363)
(-1.06789 5.87619 -6.19204)
(-0.0485964 -0.164531 3.07504)
(1.59198 -9.84064 17.6298)
(1.59323 -9.848 17.6456)
(1.59323 -9.84798 17.6504)
(1.59323 -9.84798 17.6553)
(1.59323 -9.84799 17.6601)
(1.59327 -9.84697 17.6547)
(1.62736 -8.83188 17.0655)
(1.69049 -6.95275 15.9794)
)
;
    }
}


// ************************************************************************* //
