/*--------------------------------*- C++ -*----------------------------------*\
| =========                 |                                                 |
| \\      /  F ield         | OpenFOAM: The Open Source CFD Toolbox           |
|  \\    /   O peration     | Version:  2.4.0                                 |
|   \\  /    A nd           | Web:      www.OpenFOAM.org                      |
|    \\/     M anipulation  |                                                 |
\*---------------------------------------------------------------------------*/
FoamFile
{
    version     2.0;
    format      ascii;
    class       volVectorField;
    location    "0.05";
    object      Uc;
}
// * * * * * * * * * * * * * * * * * * * * * * * * * * * * * * * * * * * * * //

dimensions      [0 1 -1 0 0 0 0];

internalField   nonuniform List<vector> 
200
(
(-1.04475e-13 5.74923e-13 -6.09287e-13)
(-4.37731e-15 2.40881e-14 -2.55278e-14)
(-1.01934e-16 5.60942e-16 -5.94057e-16)
(-1.69883e-18 9.81675e-18 -1.01012e-17)
(2.72083e-18 2.77108e-17 -4.7128e-18)
(2.16872e-16 2.17926e-15 -3.61499e-16)
(1.40214e-14 1.40896e-13 -2.33721e-14)
(6.64858e-13 6.6809e-12 -1.10825e-12)
(1.75218e-11 1.7607e-10 -2.9207e-11)
(6.64858e-13 6.6809e-12 -1.10825e-12)
(-4.97592e-16 2.73823e-15 -2.90188e-15)
(-2.31114e-17 1.27181e-16 -1.3468e-16)
(-5.91586e-19 3.25554e-18 -3.43992e-18)
(-1.04002e-20 6.40777e-20 -6.30452e-20)
(4.24265e-20 3.48386e-19 -8.56579e-21)
(2.92572e-18 2.64635e-17 -2.56517e-18)
(1.66256e-16 1.61258e-15 -2.31416e-16)
(7.01316e-15 7.04696e-14 -1.16879e-14)
(1.66368e-13 1.67177e-12 -2.77318e-13)
(7.01298e-15 7.04707e-14 -1.16898e-14)
(-1.75554e-18 9.66066e-18 -1.02293e-17)
(-8.94816e-20 4.92409e-19 -5.20511e-19)
(-2.10657e-21 1.13282e-20 -1.01441e-20)
(2.63928e-20 -1.63114e-19 2.93498e-19)
(1.44673e-18 -8.93792e-18 1.60725e-17)
(5.71799e-17 -3.53132e-16 6.35141e-16)
(1.23396e-15 -7.61058e-15 1.36986e-14)
(9.78486e-17 5.5531e-17 5.67344e-16)
(8.79079e-16 8.81005e-15 -1.44689e-15)
(4.07138e-17 4.08688e-16 -6.75297e-17)
(-5.09993e-21 2.80579e-20 -2.96306e-20)
(6.53272e-22 -4.23022e-21 8.76325e-21)
(7.9296e-20 -4.90145e-19 8.8118e-19)
(5.78434e-18 -3.57538e-17 6.42755e-17)
(3.42813e-16 -2.11897e-15 3.80933e-15)
(1.4778e-14 -9.13449e-14 1.64213e-13)
(3.50566e-13 -2.16689e-12 3.89547e-12)
(1.47782e-14 -9.13432e-14 1.64211e-13)
(3.46209e-16 -2.08486e-15 3.80053e-15)
(5.95603e-18 -3.40286e-17 6.37754e-17)
(-8.27567e-11 4.55407e-10 -4.82626e-10)
(-3.13741e-12 1.7265e-11 -1.82969e-11)
(-6.66195e-14 3.66607e-13 -3.88523e-13)
(-1.02106e-15 5.88074e-15 -6.07689e-15)
(1.65008e-15 1.67865e-14 -2.84943e-15)
(1.43389e-13 1.44086e-12 -2.39013e-13)
(1.01984e-11 1.0248e-10 -1.69996e-11)
(5.37342e-10 5.39955e-09 -8.95693e-10)
(1.59308e-08 1.60083e-07 -2.6555e-08)
(5.37342e-10 5.39955e-09 -8.95693e-10)
(-3.50266e-13 1.9275e-12 -2.0427e-12)
(-1.49047e-14 8.20198e-14 -8.69236e-14)
(-3.51405e-16 1.9338e-15 -2.04837e-15)
(-5.75583e-18 3.52411e-17 -3.50609e-17)
(2.28132e-17 2.00547e-16 -1.50356e-17)
(1.73644e-15 1.62633e-14 -1.96103e-15)
(1.09131e-13 1.07104e-12 -1.61774e-13)
(5.10065e-12 5.12533e-11 -8.50132e-12)
(1.34437e-10 1.35091e-09 -2.24092e-10)
(5.10058e-12 5.12537e-11 -8.5021e-12)
(-1.1119e-15 6.11873e-15 -6.48458e-15)
(-5.24488e-17 2.88623e-16 -3.0579e-16)
(-1.22424e-18 6.64563e-18 -6.41778e-18)
(9.83055e-18 -6.07535e-17 1.09349e-16)
(5.84243e-16 -3.60894e-15 6.49025e-15)
(2.51934e-14 -1.55553e-13 2.79814e-13)
(5.98098e-13 -3.6868e-12 6.63806e-12)
(5.20817e-14 1.14637e-13 2.34992e-13)
(6.38768e-13 6.40926e-12 -1.0573e-12)
(2.69087e-14 2.70235e-13 -4.47281e-14)
(-2.93823e-18 1.61668e-17 -1.71191e-17)
(1.71892e-19 -1.16576e-18 2.71456e-18)
(2.95541e-17 -1.82681e-16 3.28427e-16)
(2.33589e-15 -1.44385e-14 2.59563e-14)
(1.5104e-13 -9.33599e-13 1.67835e-12)
(7.16275e-12 -4.42739e-11 7.95921e-11)
(1.88791e-10 -1.16694e-09 2.09783e-09)
(7.16285e-12 -4.42729e-11 7.95918e-11)
(1.53284e-13 -9.11049e-13 1.67464e-12)
(2.43992e-15 -1.33931e-14 2.57668e-14)
(-4.8976e-08 2.69513e-07 -2.85621e-07)
(-1.66205e-09 9.14621e-09 -9.69287e-09)
(-3.18926e-11 1.75505e-10 -1.85994e-10)
(-4.4614e-13 2.56103e-12 -2.65291e-12)
(7.28769e-13 7.40552e-12 -1.25451e-12)
(6.96099e-11 6.99483e-10 -1.16032e-10)
(5.50093e-09 5.52767e-08 -9.16946e-09)
(3.26055e-07 3.2764e-06 -5.43499e-07)
(1.10463e-05 0.000111 -1.8413e-05)
(3.26055e-07 3.2764e-06 -5.43499e-07)
(-1.81345e-10 9.97933e-10 -1.05758e-09)
(-7.01725e-12 3.86156e-11 -4.09236e-11)
(-1.51383e-13 8.33066e-13 -8.82849e-13)
(-2.29574e-15 1.39697e-14 -1.40015e-14)
(8.85851e-15 8.34266e-14 -1.02196e-14)
(7.50222e-13 7.27712e-12 -1.04459e-12)
(5.25954e-11 5.22305e-10 -8.27847e-11)
(2.75109e-09 2.76444e-08 -4.58558e-09)
(8.15631e-08 8.19596e-07 -1.35957e-07)
(2.75108e-09 2.76445e-08 -4.58575e-09)
(-5.1161e-13 2.81537e-12 -2.98364e-12)
(-2.22205e-14 1.22278e-13 -1.29585e-13)
(-5.07052e-16 2.77327e-15 -2.82392e-15)
(1.98465e-15 -1.2264e-14 2.20945e-14)
(1.28941e-13 -7.96128e-13 1.4321e-12)
(6.11647e-12 -3.77376e-11 6.79115e-11)
(1.61377e-10 -9.93023e-10 1.78969e-09)
(1.91695e-11 9.34271e-11 4.61533e-11)
(3.44284e-10 3.45748e-09 -5.72237e-10)
(1.30593e-11 1.31195e-10 -2.17429e-11)
(-1.2173e-15 6.69837e-15 -7.09618e-15)
(1.89244e-18 -5.14641e-17 3.30642e-16)
(5.97758e-15 -3.69493e-14 6.64308e-14)
(5.15455e-13 -3.1861e-12 5.72771e-12)
(3.66617e-11 -2.26611e-10 4.07383e-10)
(1.93169e-09 -1.194e-08 2.14648e-08)
(5.72701e-08 -3.53994e-07 6.36381e-07)
(1.93173e-09 -1.19396e-08 2.14647e-08)
(3.77508e-11 -2.15666e-10 4.05567e-10)
(5.61362e-13 -2.72479e-12 5.65109e-12)
(-1.64371e-05 9.04525e-05 -9.58583e-05)
(-4.92844e-07 2.7121e-06 -2.8742e-06)
(-8.45379e-09 4.6521e-08 -4.93015e-08)
(-1.06958e-10 6.11964e-10 -6.35038e-10)
(1.77029e-10 1.79688e-09 -3.03762e-10)
(1.87741e-08 1.88654e-07 -3.12946e-08)
(1.66906e-06 1.67717e-05 -2.78214e-06)
(0.000113058 0.00113608 -0.000188456)
(0.00446817 0.0448989 -0.00744796)
(0.000113058 0.00113608 -0.000188456)
(-5.21542e-08 2.87003e-07 -3.04155e-07)
(-1.82028e-09 1.00169e-08 -1.06156e-08)
(-3.5662e-11 1.96249e-10 -2.07977e-10)
(-4.97174e-13 3.00712e-12 -3.03022e-12)
(1.87301e-12 1.8916e-11 -3.16782e-12)
(1.78193e-10 1.79059e-09 -2.97029e-10)
(1.40819e-08 1.41503e-07 -2.3473e-08)
(8.34676e-07 8.38734e-06 -1.39132e-06)
(2.82779e-05 0.000284154 -4.71362e-05)
(8.34676e-07 8.38734e-06 -1.39132e-06)
(-1.28713e-10 7.08301e-10 -7.50632e-10)
(-5.12244e-12 2.81886e-11 -2.98733e-11)
(-1.1283e-13 6.20917e-13 -6.58019e-13)
(-1.68847e-15 1.10009e-14 -1.06223e-14)
(1.14601e-14 1.06045e-13 -1.18156e-14)
(9.64826e-13 9.28646e-12 -1.28646e-12)
(6.74295e-11 6.67877e-10 -1.04763e-10)
(3.52138e-09 3.53845e-08 -5.86944e-09)
(1.044e-07 1.04908e-06 -1.74024e-07)
(3.52135e-09 3.53847e-08 -5.86972e-09)
(-2.72281e-13 1.49835e-12 -1.5879e-12)
(-1.21626e-14 6.69299e-14 -7.09286e-14)
(-2.67931e-16 1.45444e-15 -1.40651e-15)
(2.33115e-15 -1.44045e-14 2.59247e-14)
(1.51086e-13 -9.33137e-13 1.67826e-12)
(7.16638e-12 -4.42374e-11 7.95859e-11)
(1.89026e-10 -1.16458e-09 2.09744e-09)
(1.8305e-11 6.76898e-11 6.10191e-11)
(2.9383e-10 2.95013e-09 -4.87853e-10)
(1.11445e-11 1.11949e-10 -1.85469e-11)
(-4.90587e-08 2.69968e-07 -2.85138e-07)
(-1.66519e-09 9.16347e-09 -9.67457e-09)
(-3.19592e-11 1.75871e-10 -1.85606e-10)
(-4.47161e-13 2.56691e-12 -2.64684e-12)
(7.30418e-13 7.42232e-12 -1.25167e-12)
(6.97532e-11 7.00924e-10 -1.15794e-10)
(5.51113e-09 5.53792e-08 -9.15247e-09)
(3.26592e-07 3.2818e-06 -5.42603e-07)
(1.10622e-05 0.00011116 -1.83865e-05)
(3.26594e-07 3.2818e-06 -5.42603e-07)
(-1.81695e-10 9.99861e-10 -1.05553e-09)
(-7.03215e-12 3.86976e-11 -4.08367e-11)
(-1.51734e-13 8.35e-13 -8.80803e-13)
(-2.30783e-15 1.40442e-14 -1.40362e-14)
(8.50566e-15 8.59493e-14 -1.4338e-14)
(7.35768e-13 7.39345e-12 -1.22091e-12)
(5.23206e-11 5.25749e-10 -8.68544e-11)
(2.75618e-09 2.76958e-08 -4.57725e-09)
(8.16975e-08 8.20947e-07 -1.35733e-07)
(2.75618e-09 2.76958e-08 -4.57725e-09)
(-5.12722e-13 2.82149e-12 -2.97715e-12)
(-2.22732e-14 1.22568e-13 -1.29283e-13)
(-5.33634e-16 2.93666e-15 -3.09627e-15)
(-8.64085e-18 5.67489e-17 -5.43969e-17)
(5.5344e-17 5.34677e-16 -7.43383e-17)
(4.32587e-15 4.25414e-14 -6.44792e-15)
(2.77194e-13 2.7654e-12 -4.4426e-13)
(1.30842e-11 1.31477e-10 -2.17197e-11)
(3.44793e-10 3.46469e-09 -5.72606e-10)
(1.30842e-11 1.31478e-10 -2.17202e-11)
(-1.2208e-15 6.71801e-15 -7.08522e-15)
(-5.8789e-17 3.23513e-16 -3.41069e-16)
(-1.46902e-18 8.03066e-18 -8.10572e-18)
(5.75797e-18 -3.55632e-17 6.37199e-17)
(3.4306e-16 -2.11649e-15 3.79326e-15)
(1.4796e-14 -9.1164e-14 1.63691e-13)
(3.51633e-13 -2.15617e-12 3.883e-12)
(6.0789e-14 3.71002e-13 8.73678e-14)
(1.09175e-12 1.0965e-11 -1.80798e-12)
(4.60168e-14 4.62311e-13 -7.62846e-14)
)
;

boundaryField
{
    inlet
    {
        type            calculated;
        value           uniform (0 0 0);
    }
    outlet
    {
        type            calculated;
        value           nonuniform 0();
    }
    bottom
    {
        type            calculated;
        value           uniform (0 0 0);
    }
    top
    {
        type            symmetryPlane;
    }
    side1
    {
        type            symmetryPlane;
    }
    side2
    {
        type            symmetryPlane;
    }
    procBoundary16to8
    {
        type            processor;
        value           nonuniform List<vector> 
50
(
(-1.23395e-11 6.79035e-11 -7.19617e-11)
(-4.60611e-13 2.53473e-12 -2.68622e-12)
(-9.66051e-15 5.31614e-14 -5.63386e-14)
(-1.49007e-16 8.19986e-16 -8.68993e-16)
(-1.84793e-18 1.07088e-17 -1.10348e-17)
(2.49288e-18 2.53708e-17 -4.30997e-18)
(1.47723e-16 1.48442e-15 -2.46242e-16)
(6.30383e-15 6.33448e-14 -1.05079e-14)
(1.47679e-13 1.48397e-12 -2.46166e-13)
(6.30384e-15 6.33447e-14 -1.05075e-14)
(-1.11735e-08 6.14871e-08 -6.51618e-08)
(-3.715e-10 2.04435e-09 -2.16653e-09)
(-7.01678e-12 3.86131e-11 -4.09208e-11)
(-9.8416e-14 5.41583e-13 -5.73949e-13)
(-1.12068e-15 6.46679e-15 -6.68015e-15)
(1.49892e-15 1.52414e-14 -2.58501e-15)
(9.66777e-14 9.71478e-13 -1.61153e-13)
(4.52743e-12 4.54944e-11 -7.54679e-12)
(1.17445e-10 1.18016e-09 -1.95769e-10)
(4.52744e-12 4.54944e-11 -7.54662e-12)
(-7.71601e-06 4.24609e-05 -4.49985e-05)
(-2.24957e-07 1.23793e-06 -1.31191e-06)
(-3.77955e-09 2.07987e-08 -2.20417e-08)
(-4.77275e-11 2.62644e-10 -2.7834e-10)
(-4.94946e-13 2.84392e-12 -2.94444e-12)
(6.55197e-13 6.65631e-12 -1.1271e-12)
(4.63456e-11 4.65709e-10 -7.72539e-11)
(2.4033e-09 2.41498e-08 -4.00606e-09)
(6.97806e-08 7.01199e-07 -1.16317e-07)
(2.4033e-09 2.41498e-08 -4.006e-09)
(-0.00310831 0.0171049 -0.0181272)
(-7.78412e-05 0.000428357 -0.000453957)
(-1.14517e-06 6.30184e-06 -6.67847e-06)
(-1.28589e-08 7.07624e-08 -7.49913e-08)
(-1.20228e-10 6.87876e-10 -7.13815e-10)
(1.5714e-10 1.59503e-09 -2.69645e-10)
(1.23016e-08 1.23614e-07 -2.05056e-08)
(7.14084e-07 7.17555e-06 -1.1903e-06)
(2.35119e-05 0.000236262 -3.91919e-05)
(7.14086e-07 7.17555e-06 -1.19029e-06)
(-7.72718e-06 4.25224e-05 -4.49334e-05)
(-2.25328e-07 1.23997e-06 -1.30975e-06)
(-3.78656e-09 2.08373e-08 -2.20008e-08)
(-4.78259e-11 2.63185e-10 -2.77766e-10)
(-4.96066e-13 2.85039e-12 -2.93775e-12)
(6.56777e-13 6.67136e-12 -1.12447e-12)
(4.64486e-11 4.66666e-10 -7.70893e-11)
(2.40823e-09 2.41943e-08 -3.99829e-09)
(6.99176e-08 7.02334e-07 -1.16111e-07)
(2.92238e-09 2.30067e-08 -3.7276e-09)
)
;
    }
    procBoundary16to17
    {
        type            processor;
        value           nonuniform List<vector> 
20
(
(1.40214e-14 1.40896e-13 -2.33718e-14)
(1.62678e-16 1.63469e-15 -2.71e-16)
(1.02994e-18 1.03431e-17 -1.70628e-18)
(8.39022e-20 -4.42225e-19 8.43855e-19)
(1.01984e-11 1.0248e-10 -1.69995e-11)
(1.07555e-13 1.08078e-12 -1.79285e-13)
(6.24034e-16 6.26848e-15 -1.03764e-15)
(3.21802e-17 -1.56189e-16 3.17472e-16)
(5.50093e-09 5.52767e-08 -9.16944e-09)
(5.2213e-11 5.24669e-10 -8.70329e-11)
(2.75362e-13 2.7666e-12 -4.58675e-13)
(7.04388e-15 -2.62578e-14 6.41005e-14)
(1.66906e-06 1.67717e-05 -2.78214e-06)
(1.40819e-08 1.41503e-07 -2.34729e-08)
(6.68321e-11 6.7157e-10 -1.11402e-10)
(2.34984e-13 2.36078e-12 -3.91317e-13)
(5.51118e-09 5.53791e-08 -9.15242e-09)
(5.23207e-11 5.25749e-10 -8.68539e-11)
(2.75961e-13 2.77302e-12 -4.57914e-13)
(1.06749e-15 1.07255e-14 -1.7696e-15)
)
;
    }
    procBoundary16to24
    {
        type            processor;
        value           nonuniform List<vector> 
50
(
(1.24726e-21 -7.71828e-21 1.39288e-20)
(1.26876e-19 -7.84237e-19 1.40983e-18)
(1.15672e-17 -7.14985e-17 1.28533e-16)
(9.13983e-16 -5.64945e-15 1.01561e-14)
(5.90903e-14 -3.65245e-13 6.56605e-13)
(2.80184e-12 -1.73186e-11 3.11337e-11)
(7.38386e-11 -4.56406e-10 8.20485e-10)
(2.80184e-12 -1.73186e-11 3.11337e-11)
(5.90904e-14 -3.65245e-13 6.56606e-13)
(9.13983e-16 -5.64945e-15 1.01561e-14)
(4.29003e-19 -2.65637e-18 4.80336e-18)
(4.72896e-17 -2.92304e-16 5.25478e-16)
(4.67127e-15 -2.88737e-14 5.19065e-14)
(4.02704e-13 -2.48917e-12 4.4748e-12)
(2.86422e-11 -1.77042e-10 3.18269e-10)
(1.50914e-09 -9.32822e-09 1.67694e-08)
(4.47426e-08 -2.7656e-07 4.97174e-07)
(1.50914e-09 -9.32822e-09 1.67694e-08)
(2.86422e-11 -1.77041e-10 3.18269e-10)
(4.02705e-13 -2.48917e-12 4.4748e-12)
(7.87585e-17 -4.88565e-16 8.8876e-16)
(9.56586e-15 -5.9128e-14 1.06295e-13)
(1.03081e-12 -6.3716e-12 1.14543e-11)
(9.77505e-11 -6.04209e-10 1.08619e-09)
(7.72481e-09 -4.77481e-08 8.58371e-08)
(4.57874e-07 -2.83018e-06 5.08783e-06)
(1.55122e-05 -9.58832e-05 0.00017237)
(4.57874e-07 -2.83018e-06 5.08783e-06)
(7.72481e-09 -4.77481e-08 8.58372e-08)
(9.77506e-11 -6.04208e-10 1.08619e-09)
(-5.17963e-16 2.85004e-15 -3.0184e-15)
(2.16186e-17 -1.51037e-16 3.75769e-16)
(4.67058e-15 -2.88699e-14 5.19026e-14)
(4.02704e-13 -2.48917e-12 4.47481e-12)
(2.86422e-11 -1.77042e-10 3.18269e-10)
(1.50914e-09 -9.32822e-09 1.67694e-08)
(4.47426e-08 -2.7656e-07 4.97174e-07)
(1.50917e-09 -9.32792e-09 1.67694e-08)
(2.93393e-11 -1.70037e-10 3.17107e-10)
(4.32085e-13 -2.19394e-12 4.42583e-12)
(-2.58257e-18 1.42109e-17 -1.49748e-17)
(-9.68029e-21 -3.27743e-20 6.12542e-19)
(1.15633e-17 -7.14769e-17 1.28053e-16)
(9.13983e-16 -5.64945e-15 1.01227e-14)
(5.90903e-14 -3.65245e-13 6.54625e-13)
(2.80184e-12 -1.73186e-11 3.10483e-11)
(7.38386e-11 -4.56406e-10 8.1846e-10)
(2.80197e-12 -1.73172e-11 3.10481e-11)
(6.19694e-14 -3.36315e-13 6.49848e-13)
(1.04747e-15 -4.30809e-15 9.90124e-15)
)
;
    }
}


// ************************************************************************* //
