/*--------------------------------*- C++ -*----------------------------------*\
| =========                 |                                                 |
| \\      /  F ield         | OpenFOAM: The Open Source CFD Toolbox           |
|  \\    /   O peration     | Version:  2.4.0                                 |
|   \\  /    A nd           | Web:      www.OpenFOAM.org                      |
|    \\/     M anipulation  |                                                 |
\*---------------------------------------------------------------------------*/
FoamFile
{
    version     2.0;
    format      ascii;
    class       volVectorField;
    location    "0.08";
    object      A_Source;
}
// * * * * * * * * * * * * * * * * * * * * * * * * * * * * * * * * * * * * * //

dimensions      [1 -2 -2 0 0 0 0];

internalField   nonuniform List<vector> 
200
(
(2.42914e-77 -1.3526e-77 2.83066e-77)
(1.10564e-79 -6.14351e-80 1.28839e-79)
(5.02099e-82 -2.78409e-82 5.85092e-82)
(2.27532e-84 -1.259e-84 2.65142e-84)
(1.02903e-86 -5.68196e-87 1.19912e-86)
(4.64507e-89 -2.55948e-89 5.41286e-89)
(2.09306e-91 -1.15088e-91 2.43903e-91)
(9.41539e-94 -5.16624e-94 1.09717e-93)
(4.22864e-96 -2.3154e-96 4.9276e-96)
(1.89625e-98 -1.03612e-98 2.20969e-98)
(1.14629e-78 -6.69163e-79 1.33577e-78)
(5.32794e-81 -3.10699e-81 6.2086e-81)
(2.4697e-83 -1.4387e-83 2.87792e-83)
(1.14187e-85 -6.64487e-86 1.33061e-85)
(5.26673e-88 -3.06164e-88 6.13728e-88)
(2.42366e-90 -1.40744e-90 2.82427e-90)
(1.11291e-92 -6.45599e-93 1.29687e-92)
(5.09985e-95 -2.95531e-95 5.94281e-95)
(2.33241e-97 -1.35019e-97 2.71794e-97)
(1.06472e-99 -6.15703e-100 1.24072e-99)
(2.80768e-80 -1.66504e-80 3.27176e-80)
(1.33249e-82 -7.89657e-83 1.55274e-82)
(6.30402e-85 -3.73325e-85 7.34603e-85)
(2.97358e-87 -1.75972e-87 3.46508e-87)
(1.39868e-89 -8.2714e-90 1.62987e-89)
(6.5614e-92 -3.87752e-92 7.64595e-92)
(3.07025e-94 -1.81313e-94 3.57774e-94)
(1.4332e-96 -8.45776e-97 1.67009e-96)
(6.67482e-99 -3.93627e-99 7.77811e-99)
(3.10181e-101 -1.82792e-101 3.61451e-101)
(4.70138e-82 -2.81011e-82 5.47848e-82)
(2.27744e-84 -1.36056e-84 2.65388e-84)
(1.09932e-86 -6.56395e-87 1.28103e-86)
(5.28854e-89 -3.15609e-89 6.16269e-89)
(2.53605e-91 -1.51267e-91 2.95524e-91)
(1.21245e-93 -7.22803e-94 1.41285e-93)
(5.77977e-96 -3.44382e-96 6.73512e-96)
(2.74767e-98 -1.63631e-98 3.20183e-98)
(1.3028e-100 -7.75446e-101 1.51814e-100)
(6.1616e-103 -3.66556e-103 7.18007e-103)
(4.54588e-79 -2.52594e-79 5.29728e-79)
(2.11358e-81 -1.17196e-81 2.46294e-81)
(9.80036e-84 -5.42282e-84 1.14203e-83)
(4.53267e-86 -2.5028e-86 5.28189e-86)
(2.0913e-88 -1.15233e-88 2.43698e-88)
(9.62691e-91 -5.29343e-91 1.12182e-90)
(4.42197e-93 -2.42636e-93 5.15289e-93)
(2.02699e-95 -1.10989e-95 2.36204e-95)
(9.27344e-98 -5.06708e-98 1.08063e-97)
(4.23462e-100 -2.30898e-100 4.93456e-100)
(2.19058e-80 -1.27744e-80 2.55266e-80)
(1.0396e-82 -6.05607e-83 1.21143e-82)
(4.9182e-85 -2.86204e-85 5.73114e-85)
(2.31983e-87 -1.34856e-87 2.70328e-87)
(1.09115e-89 -6.33639e-90 1.2715e-89)
(5.1186e-92 -2.9693e-92 5.96466e-92)
(2.39507e-94 -1.38792e-94 2.79095e-94)
(1.11799e-96 -6.47186e-97 1.30278e-96)
(5.20668e-99 -3.0109e-99 6.06731e-99)
(2.4195e-101 -1.39767e-101 2.81943e-101)
(5.47844e-82 -3.24661e-82 6.38398e-82)
(2.65356e-84 -1.57144e-84 3.09217e-84)
(1.28072e-86 -7.57915e-87 1.49241e-86)
(6.16052e-89 -3.64317e-89 7.1788e-89)
(2.95387e-91 -1.74562e-91 3.44212e-91)
(1.41203e-93 -8.33873e-94 1.64543e-93)
(6.73047e-96 -3.97188e-96 7.84296e-96)
(3.19926e-98 -1.88667e-98 3.72807e-98)
(1.51675e-100 -8.93836e-101 1.76746e-100)
(7.1727e-103 -4.22398e-103 8.35829e-103)
(9.36326e-84 -5.59368e-84 1.09109e-83)
(4.62722e-86 -2.76288e-86 5.39207e-86)
(2.2777e-88 -1.35928e-88 2.65418e-88)
(1.11697e-90 -6.66235e-91 1.30159e-90)
(5.45805e-93 -3.25384e-93 6.36022e-93)
(2.65804e-95 -1.58377e-95 3.09739e-95)
(1.29027e-97 -7.68394e-98 1.50354e-97)
(6.24401e-100 -3.71654e-100 7.2761e-100)
(3.01279e-102 -1.79232e-102 3.51077e-102)
(1.44958e-104 -8.61909e-105 1.68919e-104)
(4.37362e-81 -2.4251e-81 5.09655e-81)
(2.07656e-83 -1.14901e-83 2.4198e-83)
(9.82838e-86 -5.42686e-86 1.14529e-85)
(4.63798e-88 -2.55556e-88 5.40461e-88)
(2.1825e-90 -1.20005e-90 2.54325e-90)
(1.02429e-92 -5.62025e-93 1.19359e-92)
(4.79498e-95 -2.62549e-95 5.58756e-95)
(2.23927e-97 -1.22354e-97 2.6094e-97)
(1.04335e-99 -5.68893e-100 1.21581e-99)
(4.85059e-102 -2.63928e-102 5.65236e-102)
(2.15147e-82 -1.25331e-82 2.5071e-82)
(1.04221e-84 -6.06488e-85 1.21448e-84)
(5.0307e-87 -2.92442e-87 5.86224e-87)
(2.42013e-89 -1.40538e-89 2.82016e-89)
(1.16054e-91 -6.73226e-92 1.35237e-91)
(5.54834e-94 -3.2152e-94 6.46543e-94)
(2.64491e-96 -1.53109e-96 3.08209e-96)
(1.25737e-98 -7.27105e-99 1.46521e-98)
(5.9618e-101 -3.44394e-101 6.94724e-101)
(2.81964e-103 -1.62711e-103 3.28571e-103)
(5.49222e-84 -3.25249e-84 6.40004e-84)
(2.71425e-86 -1.60625e-86 3.16289e-86)
(1.33608e-88 -7.90123e-89 1.55693e-88)
(6.55222e-91 -3.87209e-91 7.63525e-91)
(3.2018e-93 -1.89081e-93 3.73104e-93)
(1.55929e-95 -9.2019e-96 1.81703e-95)
(7.56936e-98 -4.4638e-98 8.82051e-98)
(3.66313e-100 -2.15871e-100 4.26861e-100)
(1.76753e-102 -1.04089e-102 2.05969e-102)
(8.50458e-105 -5.0048e-105 9.91032e-105)
(9.57822e-86 -5.71908e-86 1.11614e-85)
(4.82763e-88 -2.88103e-88 5.6256e-88)
(2.4227e-90 -1.44505e-90 2.82315e-90)
(1.21081e-92 -7.21825e-93 1.41094e-92)
(6.02765e-95 -3.59152e-95 7.02398e-95)
(2.98952e-97 -1.78034e-97 3.48366e-97)
(1.47743e-99 -8.7939e-100 1.72164e-99)
(7.27677e-102 -4.32897e-102 8.47956e-102)
(3.57239e-104 -2.12411e-104 4.16288e-104)
(1.74832e-106 -1.03899e-106 2.0373e-106)
(2.86985e-83 -1.58793e-83 3.34421e-83)
(1.39088e-85 -7.67979e-86 1.62078e-85)
(6.71698e-88 -3.70104e-88 7.82724e-88)
(3.23293e-90 -1.77761e-90 3.76731e-90)
(1.55107e-92 -8.51058e-93 1.80745e-92)
(7.41903e-95 -4.06223e-95 8.64534e-95)
(3.53842e-97 -1.93337e-97 4.12329e-97)
(1.68297e-99 -9.1764e-100 1.96115e-99)
(7.98372e-102 -4.344e-102 9.30337e-102)
(3.77779e-104 -2.05121e-104 4.40223e-104)
(1.44056e-84 -8.3829e-85 1.67867e-84)
(7.12023e-87 -4.13907e-87 8.29715e-87)
(3.50543e-89 -2.03561e-89 4.08484e-89)
(1.71932e-91 -9.97368e-92 2.00352e-91)
(8.40286e-94 -4.86933e-94 9.79178e-94)
(4.09283e-96 -2.36925e-96 4.76934e-96)
(1.98709e-98 -1.14908e-98 2.31554e-98)
(9.61776e-101 -5.55583e-101 1.12075e-100)
(4.64145e-103 -2.67838e-103 5.40864e-103)
(2.23359e-105 -1.28756e-105 2.60278e-105)
(3.7522e-86 -2.22049e-86 4.3724e-86)
(1.89129e-88 -1.11845e-88 2.2039e-88)
(9.49177e-91 -5.60921e-91 1.10607e-90)
(4.74403e-93 -2.80155e-93 5.52818e-93)
(2.36181e-95 -1.39378e-95 2.7522e-95)
(1.17145e-97 -6.90823e-98 1.36508e-97)
(5.78969e-100 -3.41189e-100 6.74668e-100)
(2.85175e-102 -1.67938e-102 3.32313e-102)
(1.4001e-104 -8.23931e-105 1.63152e-104)
(6.85246e-107 -4.02972e-107 7.98512e-107)
(6.67463e-88 -3.98326e-88 7.7779e-88)
(3.42988e-90 -2.0458e-90 3.99681e-90)
(1.75423e-92 -1.04579e-92 2.0442e-92)
(8.9321e-95 -5.32208e-95 1.04085e-94)
(4.52865e-97 -2.69693e-97 5.2772e-97)
(2.28676e-99 -1.36111e-99 2.66475e-99)
(1.15024e-101 -6.84282e-102 1.34037e-101)
(5.76435e-104 -3.42742e-104 6.71715e-104)
(2.87854e-106 -1.71065e-106 3.35434e-106)
(1.43255e-108 -8.50886e-109 1.66934e-108)
(1.44881e-85 -7.99946e-86 1.67448e-85)
(7.16519e-88 -3.9479e-88 8.27989e-88)
(3.52961e-90 -1.94069e-90 4.07806e-90)
(1.7322e-92 -9.5042e-93 2.00103e-92)
(8.47076e-95 -4.63798e-95 9.78376e-95)
(4.12833e-97 -2.25564e-97 4.76746e-97)
(2.00551e-99 -1.09347e-99 2.31561e-99)
(9.71262e-102 -5.28457e-102 1.12126e-101)
(4.68999e-104 -2.54645e-104 5.41341e-104)
(2.25828e-106 -1.22357e-106 2.60619e-106)
(7.41849e-87 -4.3124e-87 8.57262e-87)
(3.74017e-89 -2.1719e-89 4.32134e-89)
(1.87752e-91 -1.08912e-91 2.16891e-91)
(9.38618e-94 -5.43908e-94 1.08411e-93)
(4.67403e-96 -2.70566e-96 5.39766e-96)
(2.31886e-98 -1.34091e-98 2.67742e-98)
(1.14633e-100 -6.62187e-101 1.32337e-100)
(5.64772e-103 -3.25902e-103 6.51889e-103)
(2.77348e-105 -1.59876e-105 3.20077e-105)
(1.35774e-107 -7.81845e-108 1.56666e-107)
(1.97096e-88 -1.16556e-88 2.27723e-88)
(1.01297e-90 -5.98614e-91 1.17018e-90)
(5.18167e-93 -3.05997e-93 5.98487e-93)
(2.63877e-95 -1.5572e-95 3.0473e-95)
(1.33808e-97 -7.89085e-98 1.54499e-97)
(6.75775e-100 -3.98234e-100 7.80143e-100)
(3.39968e-102 -2.00203e-102 3.92409e-102)
(1.70399e-104 -1.00275e-104 1.96651e-104)
(8.5105e-107 -5.00472e-107 9.82004e-107)
(4.23605e-109 -2.48933e-109 4.88707e-109)
(3.57517e-90 -2.13244e-90 4.13002e-90)
(1.87254e-92 -1.11631e-92 2.1628e-92)
(9.7582e-95 -5.81427e-95 1.1269e-94)
(5.06078e-97 -3.0138e-97 5.84332e-97)
(2.6126e-99 -1.55504e-99 3.01609e-99)
(1.34285e-101 -7.98856e-102 1.54998e-101)
(6.87329e-104 -4.08676e-104 7.93221e-104)
(3.50401e-106 -2.08234e-106 4.04319e-106)
(1.77953e-108 -1.05697e-108 2.05301e-108)
(9.00408e-111 -5.34527e-111 1.03862e-110)
)
;

boundaryField
{
    inlet
    {
        type            zeroGradient;
    }
    outlet
    {
        type            zeroGradient;
    }
    bottom
    {
        type            zeroGradient;
    }
    top
    {
        type            symmetryPlane;
    }
    side1
    {
        type            symmetryPlane;
    }
    side2
    {
        type            symmetryPlane;
    }
    procBoundary4to3
    {
        type            processor;
        value           nonuniform List<vector> 
20
(
(7.35851e-75 -4.10527e-75 8.57481e-75)
(3.40489e-76 -1.98956e-76 3.96769e-76)
(8.17841e-78 -4.85316e-78 9.53023e-78)
(1.34337e-79 -8.03347e-80 1.56542e-79)
(1.34992e-76 -7.51537e-77 1.57305e-76)
(6.38108e-78 -3.72472e-78 7.43583e-78)
(1.56558e-79 -9.28385e-80 1.82436e-79)
(2.62576e-81 -1.56941e-81 3.05978e-81)
(1.27352e-78 -7.07512e-79 1.48403e-78)
(6.14773e-80 -3.58474e-80 7.1639e-80)
(1.54018e-81 -9.1268e-82 1.79476e-81)
(2.63678e-83 -1.57516e-83 3.07262e-83)
(8.19699e-81 -4.54428e-81 9.55188e-81)
(4.03925e-82 -2.3528e-82 4.70691e-82)
(1.03289e-83 -6.11643e-84 1.20362e-83)
(1.80432e-85 -1.07729e-85 2.10255e-85)
(4.06032e-83 -2.24621e-83 4.69347e-83)
(2.04171e-84 -1.18801e-84 2.35971e-84)
(5.3273e-86 -3.15241e-86 6.15602e-86)
(9.49257e-88 -5.66468e-88 1.09674e-87)
)
;
    }
    procBoundary4to5
    {
        type            processor;
        value           nonuniform List<vector> 
20
(
(4.64646e-101 -2.53434e-101 5.41449e-101)
(2.64791e-102 -1.52986e-102 3.08558e-102)
(7.82954e-104 -4.61127e-104 9.1237e-104)
(1.57834e-105 -9.38537e-106 1.83922e-105)
(1.05339e-102 -5.73352e-103 1.22751e-102)
(6.10709e-104 -3.52474e-104 7.11655e-104)
(1.83715e-105 -1.08125e-105 2.14082e-105)
(3.76695e-107 -2.2388e-107 4.3896e-107)
(1.22479e-104 -6.65239e-105 1.42724e-104)
(7.22259e-106 -4.16416e-106 8.41642e-106)
(2.21007e-107 -1.29981e-107 2.57538e-107)
(4.60854e-109 -2.73753e-109 5.37029e-109)
(9.6807e-107 -5.24692e-107 1.12808e-106)
(5.80503e-108 -3.34333e-108 6.76455e-108)
(1.80637e-109 -1.06164e-109 2.10495e-109)
(3.82972e-111 -2.2737e-111 4.46274e-111)
(5.872e-109 -3.17585e-109 6.77568e-109)
(3.57983e-110 -2.05957e-110 4.13009e-110)
(1.13259e-111 -6.6517e-112 1.30647e-111)
(2.44094e-113 -1.44841e-113 2.81522e-113)
)
;
    }
    procBoundary4to12
    {
        type            processor;
        value           nonuniform List<vector> 
50
(
(1.51976e-84 -9.13237e-85 1.77097e-84)
(7.35913e-87 -4.42021e-87 8.57554e-87)
(3.62137e-89 -2.17397e-89 4.21995e-89)
(1.80328e-91 -1.08187e-91 2.10134e-91)
(9.05051e-94 -5.42631e-94 1.05465e-93)
(4.56291e-96 -2.73391e-96 5.31712e-96)
(2.30465e-98 -1.37993e-98 2.68559e-98)
(1.16383e-100 -6.96398e-101 1.3562e-100)
(5.86758e-103 -3.50875e-103 6.83745e-103)
(2.95034e-105 -1.76318e-105 3.438e-105)
(3.06015e-86 -1.83811e-86 3.56597e-86)
(1.51128e-88 -9.07368e-89 1.76109e-88)
(7.58328e-91 -4.55048e-91 8.83673e-91)
(3.84951e-93 -2.30854e-93 4.4858e-93)
(1.96903e-95 -1.18004e-95 2.29449e-95)
(1.01139e-97 -6.05723e-98 1.17857e-97)
(5.20282e-100 -3.11388e-100 6.06281e-100)
(2.67505e-102 -1.59996e-102 3.11721e-102)
(1.37266e-104 -8.20472e-105 1.59956e-104)
(7.02255e-107 -4.19493e-107 8.18332e-107)
(3.16469e-88 -1.90012e-88 3.68779e-88)
(1.59358e-90 -9.56381e-91 1.85698e-90)
(8.15158e-93 -4.88945e-93 9.49897e-93)
(4.21742e-95 -2.52811e-95 4.91453e-95)
(2.19803e-97 -1.31672e-97 2.56134e-97)
(1.15003e-99 -6.88454e-100 1.34012e-99)
(6.02421e-102 -3.60389e-102 7.01996e-102)
(3.15298e-104 -1.88497e-104 3.67414e-104)
(1.64642e-106 -9.8366e-107 1.91856e-106)
(8.56877e-109 -5.11625e-109 9.98512e-109)
(2.22919e-90 -1.33788e-90 2.59765e-90)
(1.14414e-92 -6.86366e-93 1.33325e-92)
(5.96429e-95 -3.57599e-95 6.95014e-95)
(3.14399e-97 -1.88384e-97 3.66367e-97)
(1.66906e-99 -9.99411e-100 1.94494e-99)
(8.89256e-102 -5.32111e-102 1.03624e-101)
(4.74201e-104 -2.83558e-104 5.52582e-104)
(2.52576e-106 -1.50932e-106 2.94324e-106)
(1.34179e-108 -8.01292e-109 1.56357e-108)
(7.10226e-111 -4.2387e-111 8.27621e-111)
(1.20684e-92 -7.24001e-93 1.39401e-92)
(6.3118e-95 -3.78486e-95 7.28951e-95)
(3.35223e-97 -2.00904e-97 3.87086e-97)
(1.79997e-99 -1.07806e-99 2.0781e-99)
(9.73098e-102 -5.82427e-102 1.12327e-101)
(5.27828e-104 -3.15703e-104 6.09185e-104)
(2.86471e-106 -1.71225e-106 3.30571e-106)
(1.55249e-108 -9.27308e-109 1.79119e-108)
(8.38897e-111 -5.00748e-111 9.67714e-111)
(4.51521e-113 -2.69349e-113 5.20768e-113)
)
;
    }
}


// ************************************************************************* //
