/*--------------------------------*- C++ -*----------------------------------*\
| =========                 |                                                 |
| \\      /  F ield         | OpenFOAM: The Open Source CFD Toolbox           |
|  \\    /   O peration     | Version:  2.4.0                                 |
|   \\  /    A nd           | Web:      www.OpenFOAM.org                      |
|    \\/     M anipulation  |                                                 |
\*---------------------------------------------------------------------------*/
FoamFile
{
    version     2.0;
    format      ascii;
    class       volVectorField;
    location    "0.08";
    object      U;
}
// * * * * * * * * * * * * * * * * * * * * * * * * * * * * * * * * * * * * * //

dimensions      [0 1 -1 0 0 0 0];

internalField   nonuniform List<vector> 
200
(
(-4.08304e+06 -2.14852e+06 -687869)
(-2.42659e+06 5.69317e+06 324452)
(-6.62609e+06 1.91892e+06 1.00004e+06)
(-7.03089e+06 -1.5389e+07 -459458)
(-1.80133e+06 1.03878e+07 385037)
(-3.72595e+06 -1.13749e+07 -771899)
(-1.4225e+06 5.47966e+06 -308195)
(-1.96655e+06 -4.97669e+06 -928274)
(-1.24279e+06 3.9513e+06 44497.8)
(-1.56913e+06 -2.80769e+06 -182237)
(-269726 4.805e+06 -31443.9)
(-2.96493e+06 -494604 74171.9)
(659890 6.04366e+06 380656)
(-4.25881e+06 3.00099e+06 171571)
(-4.58136e+06 -1.3735e+07 -1.19835e+06)
(-3.03415e+06 3.63089e+06 -1.4953e+06)
(-1.83852e+06 -3.36969e+06 -1.30116e+06)
(-2.61955e+06 2.60985e+06 -418365)
(-1.71155e+06 -2.57185e+06 -661085)
(-1.93164e+06 2.06651e+06 101781)
(-1.30677e+06 447031 225180)
(1.06964e+06 4.70901e+06 -25269.7)
(-1.47138e+06 -222777 377354)
(2.86149e+06 4.72874e+06 51998.8)
(-2.30031e+06 1.88711e+06 -610214)
(-42653 -3.91476e+06 -1.27141e+06)
(-2.12914e+06 367759 -693406)
(415234 -623496 -865989)
(-1.66796e+06 782366 -60862.8)
(-151442 -1.54627e+06 -379651)
(356010 404967 492044)
(-15336.3 877230 345604)
(1.56186e+06 2.38191e+06 134633)
(-239893 -476088 371322)
(2.65755e+06 2.15734e+06 -109750)
(-289161 -185269 -235130)
(1.98475e+06 376369 -394913)
(-128481 -43087.9 87209.9)
(2.11307e+06 281492 -249926)
(37277.7 -47164 -101824)
(-292909 6.70473e+06 -513788)
(-4.22572e+06 -6.36257e+06 -1.64995e+06)
(-157545 5.80522e+06 349002)
(-3.73671e+06 -1.53585e+06 502423)
(-1.99407e+06 -2.26347e+06 -1.34809e+06)
(-2.0755e+06 2.0174e+06 66798.7)
(-1.81353e+06 -3.05916e+06 -2.13563e+06)
(-1.49177e+06 3.76586e+06 -409159)
(-1.99168e+06 -3.68607e+06 -1.48132e+06)
(-1.32549e+06 3.21378e+06 296388)
(-2.79321e+06 -3.83549e+06 -999829)
(375977 4.42925e+06 840038)
(-2.71892e+06 -3.25531e+06 -348812)
(1.11552e+06 4.87633e+06 -606201)
(-2.74952e+06 -329794 12090.5)
(-829864 -638706 -2.10475e+06)
(-2.29203e+06 1.6284e+06 -204144)
(-1.47167e+06 -1.78234e+06 -1.42573e+06)
(-1.83707e+06 2.55186e+06 260359)
(-1.77882e+06 -2.12987e+06 -366792)
(719970 1.86781e+06 1.37888e+06)
(-1.54232e+06 -2.57437e+06 -162465)
(1.10759e+06 2.51965e+06 798191)
(-921833 -1.01292e+06 202814)
(1.72551e+06 2.514e+06 -492213)
(-1.76023e+06 -495251 -398814)
(575630 923760 -1.81893e+06)
(-1.50635e+06 622838 -16383.4)
(-542773 -1.25803e+06 -589773)
(-1.28555e+06 937047 385072)
(890714 1.02208e+06 367853)
(935595 -255323 951573)
(260997 -349137 501667)
(1.29072e+06 634748 889191)
(227401 -442915 215082)
(1.66243e+06 616603 414913)
(15345.6 -322505 139830)
(1.84214e+06 736006 -17025.9)
(157064 -1030.18 150031)
(1.4285e+06 -88931.5 43070.8)
(-6.64821e+06 -1.10177e+07 -4.06621e+06)
(-564742 7.68583e+06 29626.3)
(-5.34861e+06 -6.84104e+06 -2.0168e+06)
(-1.32801e+06 4.35302e+06 -1.5329e+06)
(-4.00571e+06 -1.61211e+06 -1.61082e+06)
(-2.96327e+06 -3.74544e+06 -2.87003e+06)
(-1.53317e+06 5.70404e+06 -998443)
(-2.99838e+06 -5.11352e+06 -2.75402e+06)
(-1.48046e+06 3.80869e+06 -80298.6)
(-2.39327e+06 -3.5829e+06 -1.10132e+06)
(-333432 3.66266e+06 1.7501e+06)
(-3.35312e+06 -4.43249e+06 -687131)
(-289865 4.50725e+06 1.22518e+06)
(-3.67617e+06 -3.70798e+06 -683674)
(35279 3.40238e+06 -27094.6)
(-2.97739e+06 76491.6 -617964)
(-2.15122e+06 -3.17317e+06 -1.95136e+06)
(-1.96066e+06 2.34648e+06 434315)
(-2.02985e+06 -2.70018e+06 -643975)
(-1.90385e+06 2.00861e+06 759161)
(-436312 -1.64722e+06 -519215)
(264858 839541 1.73195e+06)
(-1.52578e+06 -2.52936e+06 201176)
(668345 1.64679e+06 1.33335e+06)
(-1.22229e+06 -1.5099e+06 158612)
(1.31096e+06 1.73653e+06 404055)
(-1.35366e+06 -67241.7 20930.4)
(-537718 -1.62762e+06 -685727)
(-1.4871e+06 247131 673119)
(-814962 -1.34698e+06 319140)
(1.12761e+06 -431749 1.1836e+06)
(1.18453e+06 291155 484069)
(1.04154e+06 -405697 1.19375e+06)
(672079 -581119 472574)
(1.19316e+06 -86720.6 1.1406e+06)
(511179 -518964 449323)
(1.76193e+06 322075 994493)
(300573 -330693 325820)
(1.47478e+06 -60000.5 693324)
(30411.5 -118966 79748.5)
(-1.28276e+06 1.24463e+07 153996)
(-7.82229e+06 -1.33603e+07 -3.83448e+06)
(-1.33163e+06 7.32381e+06 830843)
(-6.05123e+06 -5.48846e+06 -1.98928e+06)
(-4.00936e+06 -1.89391e+06 -2.46403e+06)
(-3.47592e+06 3.74725e+06 -1.2811e+06)
(-4.49094e+06 -6.25656e+06 -3.47676e+06)
(-2.3189e+06 4.51924e+06 -8172.66)
(-3.42325e+06 -5.43254e+06 -2.43317e+06)
(-1.66984e+06 3.05455e+06 601754)
(-8.25678e+06 -1.67187e+07 -4.73071e+06)
(-917536 4.10643e+06 1.29601e+06)
(-4.18044e+06 -4.98798e+06 -1.27793e+06)
(-907438 4.7518e+06 1.31272e+06)
(-4.67051e+06 -3.1192e+06 -1.16608e+06)
(-2.17379e+06 -997752 -1.28669e+06)
(-3.12118e+06 752588 534252)
(-3.02761e+06 -4.11645e+06 -1.29538e+06)
(-2.73032e+06 995600 1.11661e+06)
(-2.48275e+06 -2.40106e+06 297371)
(222855 2.32229e+06 908947)
(-1.81001e+06 -5.78985e+06 -1.72123e+06)
(-575487 1.09963e+06 1.44461e+06)
(-1.24393e+06 -1.70596e+06 -276107)
(474161 2.05544e+06 1.21915e+06)
(-2.58238e+06 -2.19527e+06 -643438)
(1.10263e+06 1.61365e+06 2.04462e+06)
(-1.66757e+06 -1.86655e+06 452980)
(-523852 -1.11502e+06 1.05491e+06)
(-1.77779e+06 -1.09506e+06 535815)
(1.93212e+06 844378 -238639)
(1.04675e+06 153287 1.02737e+06)
(946511 -274234 -149717)
(824848 -3236.67 1.0795e+06)
(519288 -583080 -221177)
(1.12847e+06 212816 1.10603e+06)
(-295568 -1.45014e+06 -312460)
(1.24586e+06 424437 1.18339e+06)
(-472412 -620068 -459079)
(367673 -339252 818350)
(-8.1455e+06 -1.57163e+07 -4.82859e+06)
(-1.65122e+06 9.23434e+06 1.60239e+06)
(-5.90903e+06 -9.64023e+06 -3.83416e+06)
(-2.2989e+06 6.74785e+06 1.94136e+06)
(-5.97575e+06 -2.62723e+06 -1.38721e+06)
(-6.46742e+06 -8.72978e+06 -4.57716e+06)
(-3.22776e+06 8.03375e+06 798697)
(-5.51498e+06 -8.47663e+06 -4.51636e+06)
(-2.63059e+06 3.09314e+06 1.34518e+06)
(-3.49419e+06 -4.66942e+06 -2.21846e+06)
(-2.3406e+06 4.00193e+06 1.89914e+06)
(-5.31173e+06 -1.28856e+07 -4.80044e+06)
(-1.70324e+06 3.76437e+06 2.06187e+06)
(-4.1173e+06 -3.72111e+06 -1.94665e+06)
(-549358 6.0872e+06 1.43576e+06)
(-4.51205e+06 -1.39638e+06 -896657)
(-5.20005e+06 -8.57715e+06 -4.45641e+06)
(-3.537e+06 -661817 2.28113e+06)
(-3.31216e+06 -4.64666e+06 -1.68917e+06)
(-3.22242e+06 -369998 1.17812e+06)
(2.25534e+06 2.73679e+06 12562.1)
(367890 2.00456e+06 1.42433e+06)
(-1.08268e+06 -3.48752e+06 -1.79473e+06)
(-650181 1.15676e+06 1.43961e+06)
(-1.51103e+06 -1.90773e+06 -1.24277e+06)
(1.38613e+06 3.34355e+06 1.15427e+06)
(-2.5118e+06 -1.706e+06 -660919)
(-1.04068e+06 -4.23446e+06 -1.19757e+06)
(-2.74676e+06 -3.7971e+06 2995.3)
(-1.11386e+06 -273285 1.99456e+06)
(1.35086e+06 622152 1.06437e+06)
(1.53828e+06 1.11234e+06 -303486)
(788702 598578 1.16026e+06)
(412255 94776.4 -454453)
(578554 731749 1.25333e+06)
(-356903 -1.70089e+06 -1.15943e+06)
(1.59228e+06 939883 1.22076e+06)
(-1.48305e+06 -2.46611e+06 -759134)
(588745 -328327 1.68605e+06)
(-1.6929e+06 -1.01031e+06 -1.19568e+06)
)
;

boundaryField
{
    inlet
    {
        type            calculated;
        value           nonuniform 0();
    }
    outlet
    {
        type            calculated;
        value           nonuniform 0();
    }
    bottom
    {
        type            calculated;
        value           uniform (0 0 0);
    }
    top
    {
        type            symmetryPlane;
    }
    side1
    {
        type            symmetryPlane;
    }
    side2
    {
        type            symmetryPlane;
    }
    procBoundary4to3
    {
        type            processor;
        value           nonuniform List<vector> 
20
(
(-1.47879e+06 3.52605e+06 -455696)
(-2.47357e+06 269656 -397483)
(-358057 697042 360845)
(94715.9 2.11558e+06 83334.4)
(-4.63048e+06 -6.80437e+06 -3.10273e+06)
(589380 4.85502e+06 914784)
(-564744 -135899 34918.1)
(744311 -245824 992152)
(-708422 9.89431e+06 -1.03395e+06)
(-5.30179e+06 -1.02838e+07 -4.51273e+06)
(416433 1.41899e+06 1.25723e+06)
(1.33165e+06 612475 163401)
(-1.22549e+07 -2.0975e+07 -5.43451e+06)
(-2.90689e+06 4.83277e+06 1.20336e+06)
(2.29196e+06 3.1021e+06 -248098)
(1.36375e+06 224042 1.03177e+06)
(-4.6548e+06 3.53151e+06 2.32799e+06)
(582406 4.55436e+06 567475)
(1.27253e+06 1.87837e+06 1.10652e+06)
(591713 1.62583e+06 -205051)
)
;
    }
    procBoundary4to5
    {
        type            processor;
        value           nonuniform List<vector> 
20
(
(-1.48356e+06 2.7373e+06 202128)
(-1.37996e+06 -1.76883e+06 81974.7)
(-1.08354e+06 247866 180913)
(1.9542e+06 -624163 -354903)
(-1.814e+06 -2.43147e+06 80958.8)
(-1.74891e+06 1.96128e+06 488020)
(-804624 -1.33297e+06 -27196.7)
(-137458 338812 63034.3)
(-1.46753e+06 2.88147e+06 499270)
(-2.06783e+06 -2.13431e+06 112653)
(-1.6192e+06 514969 584540)
(1.16564e+06 45206.9 543479)
(-2.51052e+06 -3.07141e+06 -665405)
(-2.28267e+06 1.19265e+06 954032)
(-1.22395e+06 -1.4836e+06 562292)
(-1.11334e+06 -91201.3 62349.8)
(-2.02225e+06 1.69326e+06 1.03811e+06)
(-2.99322e+06 -2.14334e+06 148793)
(-2.25947e+06 -1.08176e+06 76410.2)
(-664710 -277498 916653)
)
;
    }
    procBoundary4to12
    {
        type            processor;
        value           nonuniform List<vector> 
50
(
(566432 781896 158731)
(898770 -148042 485474)
(811764 770379 255070)
(1.16863e+06 69602.2 332920)
(1.019e+06 94351.9 380001)
(1.42472e+06 -973047 275011)
(1.1688e+06 -339747 253571)
(1.72027e+06 -898446 181229)
(1.58226e+06 72714.9 408188)
(2.4566e+06 -914405 -8966.15)
(1.15522e+06 -129501 657301)
(1.19763e+06 100108 518653)
(1.19482e+06 -267418 745872)
(1.16352e+06 -64532.5 571191)
(1.32889e+06 -448475 686231)
(1.36674e+06 -198193 544826)
(1.68297e+06 -505613 621297)
(1.44837e+06 -15900.9 515255)
(2.20707e+06 -356136 555976)
(1.39104e+06 451906 261753)
(1.23222e+06 -116577 385120)
(1.40229e+06 -233828 593066)
(1.31615e+06 -285128 468746)
(1.48247e+06 -226922 589602)
(1.38829e+06 -322183 533076)
(1.66128e+06 -256485 628805)
(1.48858e+06 -193043 428610)
(1.95006e+06 -185072 843862)
(1.34792e+06 280465 -2435.29)
(1.96443e+06 14834.4 985350)
(1.30816e+06 197407 763542)
(1.32957e+06 119278 -240885)
(1.35948e+06 -8309.95 751458)
(1.32432e+06 133803 -324267)
(1.40986e+06 194436 761183)
(1.20718e+06 73158.4 -489848)
(1.4267e+06 326523 877193)
(789795 26102.5 -852461)
(1.3003e+06 314171 956066)
(165483 -39406.1 -1.25463e+06)
(577154 977292 -505044)
(1.10551e+06 698565 1.12006e+06)
(985619 996474 -409208)
(1.00165e+06 656874 1.17823e+06)
(999693 775289 -522533)
(934199 630267 1.25925e+06)
(83323.7 -762187 -1.09152e+06)
(603075 414157 1.22819e+06)
(-1.33105e+06 -2.16788e+06 -1.10193e+06)
(-215932 92650.8 969922)
)
;
    }
}


// ************************************************************************* //
