/*--------------------------------*- C++ -*----------------------------------*\
| =========                 |                                                 |
| \\      /  F ield         | OpenFOAM: The Open Source CFD Toolbox           |
|  \\    /   O peration     | Version:  2.4.0                                 |
|   \\  /    A nd           | Web:      www.OpenFOAM.org                      |
|    \\/     M anipulation  |                                                 |
\*---------------------------------------------------------------------------*/
FoamFile
{
    version     2.0;
    format      ascii;
    class       volVectorField;
    location    "0.04";
    object      Ua;
}
// * * * * * * * * * * * * * * * * * * * * * * * * * * * * * * * * * * * * * //

dimensions      [0 1 -1 0 0 0 0];

internalField   nonuniform List<vector> 
200
(
(1.469 -6.19242 -3.97129)
(19.9901 11.7034 -0.776506)
(20.0702 12.3214 -0.517923)
(18.6874 11.5223 -0.483664)
(17.1028 10.544 -0.44261)
(18.9286 11.2759 -0.421228)
(37.4773 -0.750304 3.84009)
(40.7779 -1.01 4.50337)
(42.1159 -1.22141 4.85979)
(43.4794 -1.49174 5.28713)
(1.42111 -6.23184 -3.97388)
(1.43468 -6.22283 -3.97614)
(14.312 7.00032 -1.34924)
(16.938 10.4878 -0.485217)
(14.6778 9.31773 -0.667994)
(-0.757382 5.18012 -6.03526)
(-0.996425 5.6104 -6.64729)
(-1.09896 6.18142 -7.32391)
(-1.22335 6.87903 -8.15049)
(-1.377 7.75045 -9.18286)
(1.4233 -6.23187 -3.97504)
(1.43049 -6.23065 -3.98027)
(5.98124 -1.35942 -2.97603)
(14.6229 9.36697 -0.758105)
(9.57847 7.61242 -2.07661)
(-0.952728 5.42906 -6.41971)
(-1.05623 5.88419 -6.97259)
(-1.15414 6.42815 -7.61718)
(-1.27133 7.08078 -8.39051)
(-1.41382 7.87811 -9.33526)
(1.40278 -6.15839 -3.97343)
(1.41226 -6.15462 -3.98063)
(2.67092 -4.69812 -3.6943)
(10.7119 7.92385 -1.75313)
(3.6677 6.14772 -4.31311)
(-1.01728 5.60739 -6.72042)
(-1.10196 6.05112 -7.24845)
(-1.19498 6.56988 -7.86175)
(-1.30456 7.18265 -8.58612)
(-1.43567 7.91698 -9.4549)
(1.42112 -6.23184 -3.97388)
(1.43038 -6.22735 -3.97704)
(12.8649 4.54219 -1.90189)
(18.6772 9.67366 -0.504293)
(17.6735 5.73346 -0.237193)
(22.8677 -0.765875 0.998992)
(30.2144 -0.102819 2.09498)
(34.5365 -0.015239 2.83068)
(36.7332 -0.301489 3.34482)
(39.1759 -0.713872 4.02635)
(1.41834 -6.23178 -3.97178)
(1.41837 -6.23183 -3.97179)
(1.40405 -6.15782 -3.97505)
(-0.670526 3.97667 -4.77461)
(-0.779135 4.38771 -5.19681)
(-0.858345 4.79507 -5.68203)
(-0.947129 5.28506 -6.26253)
(-1.05509 5.88362 -6.9718)
(-1.18964 6.63163 -7.85819)
(-1.36196 7.5931 -8.99747)
(1.41835 -6.23179 -3.97177)
(1.41838 -6.23184 -3.97178)
(1.40163 -6.15076 -3.97864)
(-0.767137 4.30561 -5.1886)
(-0.851004 4.73321 -5.60863)
(-0.924517 5.13609 -6.08635)
(-1.01051 5.61229 -6.65063)
(-1.11357 6.18365 -7.3277)
(-1.2394 6.88189 -8.15514)
(-1.39641 7.75453 -9.18922)
(1.3754 -6.15557 -3.96645)
(1.37892 -6.15268 -3.96693)
(1.36344 -6.06182 -3.97765)
(-0.825602 4.54107 -5.54243)
(-0.906982 4.97343 -5.96152)
(-0.978338 5.3684 -6.42931)
(-1.06133 5.82916 -6.9748)
(-1.15931 6.37357 -7.61927)
(-1.27677 7.02663 -8.39257)
(-1.42047 7.8241 -9.33765)
(1.41834 -6.23178 -3.97178)
(1.41847 -6.23178 -3.97175)
(2.31018 -5.75025 -3.61689)
(8.10985 -2.10856 -1.31325)
(7.24623 -1.46105 -1.71416)
(5.3103 0.0762892 -2.71983)
(1.73404 3.11828 -4.82894)
(-1.05809 5.88303 -6.97216)
(-1.1946 6.63263 -7.85976)
(-1.36773 7.59445 -8.99952)
(1.4183 -6.23173 -3.9718)
(1.4183 -6.23172 -3.9718)
(1.40457 -6.16646 -3.97179)
(-0.639266 3.57048 -4.31002)
(-0.716924 3.97915 -4.71609)
(-0.791587 4.38798 -5.20014)
(-0.881986 4.8871 -5.79147)
(-0.994613 5.51073 -6.53047)
(-1.13931 6.31245 -7.48054)
(-1.33223 7.38135 -8.74723)
(1.4183 -6.23172 -3.9718)
(1.41829 -6.23172 -3.9718)
(1.40295 -6.15859 -3.97523)
(-0.713298 3.96715 -4.78475)
(-0.791757 4.38806 -5.20017)
(-0.865607 4.79636 -5.68394)
(-0.954075 5.2862 -6.2644)
(-1.06213 5.88484 -6.97381)
(-1.19719 6.6331 -7.86053)
(-1.37081 7.59507 -9.0005)
(1.29872 -6.13238 -3.95694)
(1.30782 -6.13151 -3.95812)
(1.29854 -6.05006 -3.96598)
(-0.775438 4.25894 -5.19234)
(-0.854474 4.68631 -5.61121)
(-0.927241 5.08894 -6.0885)
(-1.01319 5.56478 -6.65256)
(-1.11632 6.13583 -7.32942)
(-1.24235 6.83383 -8.15662)
(-1.39983 7.70641 -9.19041)
(1.41833 -6.23178 -3.97177)
(1.41785 -6.2299 -3.96628)
(1.24722 -3.80333 2.44034)
(8.03439 -2.03259 -1.32628)
(7.13135 -1.32247 -1.8416)
(5.10528 0.331634 -2.96803)
(1.56666 3.43255 -5.19262)
(-1.01756 6.06589 -7.28667)
(-1.14501 6.76515 -8.1148)
(-1.30195 7.63713 -9.14837)
(1.41823 -6.2317 -3.9718)
(1.41823 -6.23169 -3.9718)
(1.40289 -6.15845 -3.97491)
(-0.710071 3.965 -4.78354)
(-0.790453 4.38716 -5.19967)
(-0.865204 4.79609 -5.68379)
(-0.954001 5.28617 -6.2644)
(-1.06214 5.88487 -6.97384)
(-1.19719 6.63312 -7.86055)
(-1.37081 7.59508 -9.00052)
(0.642121 -5.95117 -3.87545)
(0.700826 -5.97358 -3.88303)
(0.733316 -5.91222 -3.89622)
(-0.778887 4.30695 -5.1893)
(-0.854063 4.73468 -5.60892)
(-0.926998 5.13772 -6.08633)
(-1.01304 5.61397 -6.65045)
(-1.11621 6.1855 -7.32728)
(-1.2423 6.88415 -8.15425)
(-1.39984 7.75781 -9.18719)
(-82.5707 23.9165 6.48562)
(-82.3574 23.7893 6.45614)
(-82.1094 23.6525 6.42258)
(-20.6001 11.9925 -0.669446)
(-1.23227 9.22675 -2.69275)
(-1.33015 10.2593 -2.34557)
(-1.43633 11.4348 -1.82629)
(-1.54437 12.7306 -1.09297)
(-1.64498 14.0766 -0.12779)
(-1.72489 15.334 1.0178)
(-0.381452 -5.5817 -3.7355)
(-0.248473 -5.63706 -3.74207)
(1.26097 -6.33827 1.53632)
(10.4386 -9.37732 -0.263167)
(11.2786 -10.1995 -0.275945)
(12.2524 -11.1161 -0.29403)
(13.3981 -12.1698 -0.318628)
(14.7672 -13.4167 -0.349669)
(16.4377 -14.934 -0.388068)
(18.5262 -16.8307 -0.436052)
(-3.41657 -4.47726 -3.36041)
(-3.06746 -4.611 -3.40447)
(-2.78534 -4.64943 -3.44689)
(-0.403667 3.84254 -4.99865)
(-0.449214 4.2553 -5.41859)
(-0.521516 4.6556 -5.89358)
(-0.60634 5.12879 -6.45451)
(-0.708033 5.69724 -7.12707)
(-0.83255 6.39318 -7.94775)
(-0.988579 7.26517 -8.96907)
(-83.293 24.509 6.54042)
(-83.2614 24.4712 6.53087)
(-83.2203 24.4315 6.52057)
(-36.4667 18.2686 3.23368)
(-1.57732 14.3175 1.07232)
(-1.62888 14.9168 1.38004)
(-1.67709 15.4684 1.69856)
(-1.71714 15.9528 2.01704)
(-1.74763 16.3521 2.32106)
(-1.7679 16.6526 2.59229)
(-83.4223 24.2732 6.56216)
(-83.4223 24.222 6.55675)
(-83.4189 24.1706 6.55119)
(-42.6008 20.3368 4.73211)
(-1.78451 16.5892 2.92104)
(-1.78112 16.6241 2.92338)
(-1.78113 16.6593 2.92586)
(-1.78113 16.6945 2.92833)
(-1.78113 16.7298 2.93078)
(-1.78114 16.7652 2.93322)
)
;

boundaryField
{
    inlet
    {
        type            calculated;
        value           nonuniform 0();
    }
    outlet
    {
        type            calculated;
        value           nonuniform 0();
    }
    bottom
    {
        type            calculated;
        value           uniform (0 0 0);
    }
    top
    {
        type            symmetryPlane;
    }
    side1
    {
        type            symmetryPlane;
    }
    side2
    {
        type            symmetryPlane;
    }
    procBoundary25to17
    {
        type            processor;
        value           nonuniform List<vector> 
50
(
(23.6883 14.4479 -0.65146)
(22.9539 14.1244 -0.593375)
(21.8639 13.4804 -0.565875)
(20.5945 12.6968 -0.532999)
(19.0436 11.7406 -0.492858)
(20.6184 12.6128 -0.518777)
(41.3196 -1.57842 5.03125)
(53.9091 -2.71085 7.56331)
(53.9163 -2.71116 7.56473)
(53.9165 -2.7112 7.56479)
(1.49474 -6.19849 -3.98716)
(21.5101 12.2841 -0.897278)
(22.0149 12.9679 -0.609615)
(20.4622 11.5032 -0.581676)
(18.2181 8.29832 -0.477066)
(18.0648 -2.68479 0.758869)
(35.0344 -2.7169 3.98276)
(53.9038 -2.71103 7.56231)
(53.9159 -2.71111 7.56464)
(53.9163 -2.71117 7.56474)
(1.43571 -6.23195 -3.98123)
(3.99074 -5.04367 -2.96302)
(8.97528 -2.72187 -0.957535)
(8.97594 -2.72365 -0.960729)
(8.97509 -2.72471 -0.960758)
(8.97482 -2.72511 -0.960772)
(8.97537 -2.72488 -0.96078)
(10.8097 -2.07274 -0.939227)
(26.861 1.96611 -0.13707)
(32.3203 1.36322 1.02478)
(1.42931 -6.19648 -3.88003)
(-0.0787109 -1.16562 10.584)
(0.418802 -1.07685 10.4086)
(8.90375 -2.71291 -0.862461)
(8.97655 -2.73059 -0.960212)
(8.98093 -2.74096 -0.959529)
(9.00953 -2.7985 -0.955846)
(14.4528 -12.6946 -0.397296)
(16.4749 -14.8194 -0.39702)
(18.5892 -16.6974 -0.437367)
(0.166763 -5.8307 -3.64396)
(-14.087 -2.75492 7.0566)
(-7.7594 -4.15049 5.1311)
(9.62634 -8.54856 -0.242089)
(10.4754 -9.42738 -0.251188)
(11.4634 -10.3886 -0.265145)
(12.6451 -11.4884 -0.288737)
(14.0809 -12.8001 -0.320835)
(15.8702 -14.4266 -0.361952)
(18.1705 -16.5177 -0.414815)
)
;
    }
    procBoundary25to24
    {
        type            processor;
        value           nonuniform List<vector> 
20
(
(1.41861 -6.23176 -3.97208)
(1.41831 -6.23174 -3.97181)
(1.41831 -6.23175 -3.97181)
(1.39256 -6.16154 -3.96861)
(1.41831 -6.23174 -3.97181)
(1.4183 -6.23173 -3.9718)
(1.4183 -6.23172 -3.9718)
(1.37045 -6.15792 -3.96584)
(1.4183 -6.23173 -3.9718)
(1.4183 -6.23173 -3.9718)
(1.41829 -6.23172 -3.9718)
(1.28596 -6.13195 -3.95531)
(1.41827 -6.23171 -3.9718)
(1.41823 -6.2317 -3.9718)
(0.559981 -5.92024 -3.86494)
(-82.7632 24.0368 6.51265)
(-0.581583 -5.50282 -3.71007)
(-3.90082 -4.29439 -3.29947)
(-83.3208 24.5456 6.54963)
(-83.4222 24.3245 6.56757)
)
;
    }
    procBoundary25to26
    {
        type            processor;
        value           nonuniform List<vector> 
20
(
(44.8348 -1.84495 5.81122)
(-1.56663 8.86818 -10.5064)
(-1.5888 8.87334 -10.5143)
(-1.59472 8.81264 -10.516)
(41.8784 -1.32281 4.95934)
(-1.58889 8.87386 -10.5149)
(-1.59711 8.87572 -10.5177)
(-1.59932 8.82044 -10.5178)
(-1.5975 8.87624 -10.5184)
(-1.60227 8.8775 -10.5202)
(-1.60224 8.87734 -10.52)
(-1.60223 8.82815 -10.5185)
(-1.503 8.75785 -10.4765)
(-1.60224 8.87733 -10.52)
(-1.60233 8.88235 -10.5112)
(-1.77068 16.3011 2.15746)
(21.2072 -19.2684 -0.49771)
(-1.19021 8.40129 -10.2604)
(-1.77833 16.8478 2.80701)
(-1.78113 16.8006 2.93565)
)
;
    }
}


// ************************************************************************* //
