/*--------------------------------*- C++ -*----------------------------------*\
| =========                 |                                                 |
| \\      /  F ield         | OpenFOAM: The Open Source CFD Toolbox           |
|  \\    /   O peration     | Version:  2.4.0                                 |
|   \\  /    A nd           | Web:      www.OpenFOAM.org                      |
|    \\/     M anipulation  |                                                 |
\*---------------------------------------------------------------------------*/
FoamFile
{
    version     2.0;
    format      ascii;
    class       volVectorField;
    location    "0.04";
    object      Uc;
}
// * * * * * * * * * * * * * * * * * * * * * * * * * * * * * * * * * * * * * //

dimensions      [0 1 -1 0 0 0 0];

internalField   nonuniform List<vector> 
200
(
(1.16493e-19 -4.91064e-19 -3.14926e-19)
(2.31697e-19 1.35649e-19 -9.00013e-21)
(1.19492e-17 7.33577e-18 -3.08355e-19)
(4.40862e-16 2.71829e-16 -1.14103e-17)
(8.7001e-15 5.36367e-15 -2.25153e-16)
(4.55329e-16 2.71242e-16 -1.01327e-17)
(1.4938e-15 -2.99061e-17 1.53061e-16)
(1.43239e-13 -3.5478e-15 1.58188e-14)
(1.22302e-11 -3.5469e-13 1.41126e-12)
(8.59653e-10 -2.9494e-11 1.04534e-10)
(8.23768e-18 -3.61237e-17 -2.30351e-17)
(7.5825e-20 -3.28886e-19 -2.10145e-19)
(2.58103e-20 1.26244e-20 -2.43323e-21)
(8.50993e-19 5.26927e-19 -2.43782e-20)
(1.52268e-17 9.66624e-18 -6.9298e-19)
(-4.4384e-18 3.03565e-17 -3.53677e-17)
(-5.71791e-16 3.21948e-15 -3.8145e-15)
(-5.4358e-14 3.05753e-13 -3.62265e-13)
(-4.30338e-12 2.41983e-11 -2.86709e-11)
(-2.55208e-10 1.43644e-09 -1.70191e-09)
(1.12945e-19 -4.94527e-19 -3.15437e-19)
(1.11291e-21 -4.84739e-21 -3.09662e-21)
(5.92658e-23 -1.34699e-23 -2.94884e-23)
(1.5314e-21 9.80969e-22 -7.93936e-23)
(2.45683e-20 1.95255e-20 -5.3264e-21)
(-7.59725e-20 4.32924e-19 -5.11921e-19)
(-7.66936e-18 4.27257e-17 -5.06287e-17)
(-6.62179e-16 3.68809e-15 -4.37028e-15)
(-4.71585e-14 2.62654e-13 -3.11237e-13)
(-2.48681e-12 1.3857e-11 -1.64201e-11)
(8.24927e-22 -3.62154e-21 -2.33664e-21)
(8.71769e-24 -3.79917e-23 -2.45719e-23)
(1.74694e-25 -3.07286e-25 -2.4163e-25)
(2.58285e-24 1.91059e-24 -4.22713e-25)
(3.40617e-23 5.70934e-23 -4.00556e-23)
(-6.00704e-22 3.31117e-21 -3.96842e-21)
(-5.50633e-20 3.02365e-19 -3.62193e-19)
(-4.35502e-18 2.39435e-17 -2.86516e-17)
(-2.81797e-16 1.55152e-15 -1.85468e-15)
(-1.33697e-14 7.37272e-14 -8.80491e-14)
(4.20977e-17 -1.84605e-16 -1.17718e-16)
(3.86177e-19 -1.68127e-18 -1.07373e-18)
(7.44742e-20 2.62945e-20 -1.10099e-20)
(2.66356e-18 1.37956e-18 -7.19173e-20)
(7.29155e-17 2.36545e-17 -9.78586e-19)
(2.88717e-15 -9.66956e-17 1.26128e-16)
(2.99864e-13 -1.02043e-15 2.07917e-14)
(3.10739e-11 -1.37112e-14 2.54688e-12)
(2.9139e-09 -2.39159e-11 2.65332e-10)
(2.27041e-07 -4.1372e-09 2.33344e-08)
(3.32668e-15 -1.46165e-14 -9.31575e-15)
(2.80658e-17 -1.23312e-16 -7.85915e-17)
(2.19265e-19 -9.61641e-19 -6.20768e-19)
(-1.04948e-19 6.22414e-19 -7.47304e-19)
(-1.54262e-17 8.68732e-17 -1.02893e-16)
(-2.01367e-15 1.12492e-14 -1.333e-14)
(-2.39423e-13 1.336e-12 -1.58309e-12)
(-2.52917e-11 1.41037e-10 -1.67122e-10)
(-2.2536e-09 1.25626e-08 -1.48862e-08)
(-1.52931e-07 8.52606e-07 -1.0103e-06)
(4.20976e-17 -1.84964e-16 -1.17885e-16)
(3.84749e-19 -1.69045e-18 -1.07739e-18)
(3.23296e-21 -1.41871e-20 -9.177e-21)
(-1.7702e-21 9.93538e-21 -1.19729e-20)
(-2.30883e-19 1.28415e-18 -1.52166e-18)
(-2.7443e-17 1.52457e-16 -1.80665e-16)
(-2.96292e-15 1.64558e-14 -1.95003e-14)
(-2.81481e-13 1.56306e-12 -1.85225e-12)
(-2.22827e-11 1.23727e-10 -1.46618e-10)
(-1.32282e-09 7.34586e-09 -8.70493e-09)
(2.81353e-19 -1.25919e-18 -8.11382e-19)
(2.77707e-21 -1.23911e-20 -7.98916e-21)
(2.50369e-23 -1.11313e-22 -7.30416e-23)
(-1.51479e-23 8.33182e-23 -1.01691e-22)
(-1.82498e-21 1.00073e-20 -1.19955e-20)
(-1.99954e-19 1.0972e-18 -1.31403e-18)
(-1.97743e-17 1.08607e-16 -1.29952e-16)
(-1.70663e-15 9.38261e-15 -1.12164e-14)
(-1.21514e-13 6.68745e-13 -7.98746e-13)
(-6.40886e-12 3.53007e-11 -4.21295e-11)
(8.51568e-15 -3.74155e-14 -2.38465e-14)
(7.18481e-17 -3.15652e-16 -2.01177e-16)
(1.048e-18 -2.60857e-18 -1.64078e-18)
(3.52481e-17 -9.16449e-18 -5.70783e-18)
(2.06587e-15 -4.1654e-16 -4.88698e-16)
(8.56036e-14 1.2298e-15 -4.38444e-14)
(1.53815e-12 2.76601e-12 -4.28342e-12)
(-6.49313e-11 3.6102e-10 -4.27857e-10)
(-5.79231e-09 3.216e-08 -3.81101e-08)
(-3.93091e-07 2.18267e-06 -2.5865e-06)
(7.34104e-13 -3.22549e-12 -2.05578e-12)
(5.67724e-15 -2.49446e-14 -1.58985e-14)
(4.09359e-17 -1.7972e-16 -1.15757e-16)
(-1.86381e-17 1.04099e-16 -1.2566e-16)
(-2.87016e-15 1.59303e-14 -1.88806e-14)
(-4.09738e-13 2.27129e-12 -2.69168e-12)
(-5.41113e-11 2.99832e-10 -3.55316e-10)
(-6.42932e-09 3.56221e-08 -4.22138e-08)
(-6.54732e-07 3.62759e-06 -4.29886e-06)
(-5.186e-05 0.000287334 -0.000340504)
(8.51562e-15 -3.7416e-14 -2.38472e-14)
(7.18417e-17 -3.15659e-16 -2.01186e-16)
(5.60825e-19 -2.46187e-18 -1.58908e-18)
(-2.85158e-19 1.58596e-18 -1.91282e-18)
(-4.01067e-17 2.22278e-16 -2.63416e-16)
(-5.19728e-15 2.87983e-14 -3.41275e-14)
(-6.17283e-13 3.42015e-12 -4.05304e-12)
(-6.51657e-11 3.61056e-10 -4.27867e-10)
(-5.80457e-09 3.21606e-08 -3.81118e-08)
(-3.93952e-07 2.18272e-06 -2.58662e-06)
(4.9636e-17 -2.34374e-16 -1.51231e-16)
(4.56932e-19 -2.14225e-18 -1.3829e-18)
(3.85881e-21 -1.79786e-20 -1.17855e-20)
(-2.30189e-21 1.26426e-20 -1.54134e-20)
(-2.98185e-19 1.63538e-18 -1.95814e-18)
(-3.53914e-17 1.94237e-16 -2.32389e-16)
(-3.81859e-15 2.09729e-14 -2.50726e-14)
(-3.62569e-13 1.99286e-12 -2.38052e-12)
(-2.86885e-11 1.57808e-10 -1.88354e-10)
(-1.70263e-09 9.37341e-09 -1.11784e-08)
(4.20968e-17 -1.84963e-16 -1.17885e-16)
(3.84746e-19 -1.69054e-18 -1.07628e-18)
(5.47143e-21 -1.66848e-20 1.07055e-20)
(1.88653e-19 -4.77266e-20 -3.11419e-20)
(1.02036e-17 -1.8922e-18 -2.63497e-18)
(3.86636e-16 2.51155e-17 -2.24776e-16)
(6.17203e-15 1.35229e-14 -2.0457e-14)
(-2.58743e-13 1.54243e-12 -1.85285e-12)
(-2.06937e-11 1.22265e-10 -1.46657e-10)
(-1.23914e-09 7.26871e-09 -8.70705e-09)
(3.32652e-15 -1.46167e-14 -9.31598e-15)
(2.80643e-17 -1.23315e-16 -7.8595e-17)
(2.19089e-19 -9.61766e-19 -6.20763e-19)
(-1.10933e-19 6.19447e-19 -7.47327e-19)
(-1.56443e-17 8.68287e-17 -1.02909e-16)
(-2.02947e-15 1.125e-14 -1.33322e-14)
(-2.41124e-13 1.33608e-12 -1.58333e-12)
(-2.54567e-11 1.41045e-10 -1.67145e-10)
(-2.2675e-09 1.25633e-08 -1.48881e-08)
(-1.53892e-07 8.52655e-07 -1.01043e-06)
(1.92346e-17 -1.78266e-16 -1.16088e-16)
(1.91726e-19 -1.6342e-18 -1.06229e-18)
(1.70482e-21 -1.37448e-20 -9.05795e-21)
(-1.79718e-21 9.93772e-21 -1.19736e-20)
(-2.31727e-19 1.28463e-18 -1.52183e-18)
(-2.75191e-17 1.52519e-16 -1.8068e-16)
(-2.97057e-15 1.64621e-14 -1.95014e-14)
(-2.82171e-13 1.56365e-12 -1.85229e-12)
(-2.23368e-11 1.23779e-10 -1.46615e-10)
(-1.32631e-09 7.35031e-09 -8.70461e-09)
(-1.67761e-15 4.85918e-16 1.3177e-16)
(-1.31582e-17 3.80081e-18 1.0315e-18)
(-9.72517e-20 2.80144e-20 7.60701e-21)
(-7.14573e-22 4.15992e-22 -2.32216e-23)
(-3.90944e-21 2.92722e-20 -8.54288e-21)
(-4.8122e-19 3.7116e-18 -8.48575e-19)
(-5.56233e-17 4.42823e-16 -7.07248e-17)
(-5.94968e-15 4.90446e-14 -4.21066e-15)
(-5.78088e-13 4.94687e-12 -4.49084e-14)
(-4.96451e-11 4.41336e-10 2.9294e-11)
(-3.10273e-20 -4.54016e-19 -3.03846e-19)
(-1.98797e-22 -4.51007e-21 -2.99394e-21)
(5.56339e-23 -2.79644e-22 6.77822e-23)
(3.14876e-20 -2.82863e-20 -7.93834e-22)
(3.98328e-18 -3.60217e-18 -9.74558e-20)
(4.70422e-16 -4.26794e-16 -1.12891e-17)
(5.06629e-14 -4.60181e-14 -1.20484e-15)
(4.80813e-12 -4.36842e-12 -1.13851e-13)
(3.80423e-10 -3.45624e-10 -8.9812e-12)
(2.25761e-08 -2.05099e-08 -5.31374e-10)
(-2.1039e-17 -2.75706e-17 -2.06931e-17)
(-1.71879e-19 -2.58368e-19 -1.90762e-19)
(-1.32261e-21 -2.20776e-21 -1.63674e-21)
(-1.88679e-22 1.79605e-21 -2.33643e-21)
(-2.46283e-20 2.33298e-19 -2.97076e-19)
(-3.12101e-18 2.78615e-17 -3.52702e-17)
(-3.57614e-16 3.02491e-15 -3.80682e-15)
(-3.59205e-14 2.89037e-13 -3.61576e-13)
(-2.99792e-12 2.30211e-11 -2.8619e-11)
(-1.87256e-10 1.37616e-09 -1.69891e-09)
(-4.2773e-15 1.2586e-15 3.35866e-16)
(-3.3539e-17 9.85742e-18 2.63074e-18)
(-2.47815e-19 7.27524e-20 1.9417e-20)
(-1.78632e-21 8.94888e-22 1.58402e-22)
(-5.9287e-21 5.38152e-20 4.03055e-21)
(-7.85342e-19 7.19193e-18 6.65365e-19)
(-9.82405e-17 9.06109e-16 9.94984e-17)
(-1.14176e-14 1.06074e-13 1.34118e-14)
(-1.20764e-12 1.12996e-11 1.60389e-12)
(-1.12615e-10 1.06077e-09 1.65128e-10)
(-3.39825e-13 9.8878e-14 2.67313e-14)
(-2.46099e-15 7.14558e-16 1.93426e-16)
(-1.68941e-17 4.89507e-18 1.32676e-18)
(-1.13389e-19 5.41296e-20 1.25953e-20)
(-3.61412e-19 3.35977e-18 5.9159e-19)
(-5.25447e-17 4.90425e-16 8.62425e-17)
(-7.2556e-15 6.78631e-14 1.19188e-14)
(-9.36832e-13 8.7809e-12 1.54023e-12)
(-1.10883e-10 1.0415e-09 1.82453e-10)
(-1.16659e-08 1.09807e-07 1.92117e-08)
)
;

boundaryField
{
    inlet
    {
        type            calculated;
        value           nonuniform 0();
    }
    outlet
    {
        type            calculated;
        value           nonuniform 0();
    }
    bottom
    {
        type            calculated;
        value           uniform (0 0 0);
    }
    top
    {
        type            symmetryPlane;
    }
    side1
    {
        type            symmetryPlane;
    }
    side2
    {
        type            symmetryPlane;
    }
    procBoundary25to17
    {
        type            processor;
        value           nonuniform List<vector> 
50
(
(1.30072e-18 7.93333e-19 -3.57715e-20)
(9.12287e-17 5.61362e-17 -2.35832e-18)
(5.15557e-15 3.17873e-15 -1.33435e-16)
(2.09278e-13 1.29023e-13 -5.41626e-15)
(4.58942e-12 2.82943e-12 -1.18776e-13)
(2.1067e-13 1.28871e-13 -5.30063e-15)
(1.38876e-13 -5.3051e-15 1.69101e-14)
(1.36585e-11 -6.86827e-13 1.91626e-12)
(1.2949e-09 -6.51136e-11 1.81681e-10)
(1.02309e-07 -5.14461e-09 1.43545e-08)
(2.96146e-19 -1.22808e-18 -7.89957e-19)
(5.1866e-19 2.96198e-19 -2.16355e-20)
(2.74916e-17 1.6194e-17 -7.6127e-19)
(1.07105e-15 6.02111e-16 -3.04466e-17)
(2.52657e-14 1.15085e-14 -6.61615e-16)
(3.58678e-13 -5.33068e-14 1.50674e-14)
(3.12723e-11 -2.42516e-12 3.55508e-12)
(3.30798e-09 -1.66371e-10 4.64086e-10)
(3.48524e-07 -1.75252e-08 4.88995e-08)
(3.09844e-05 -1.55805e-06 4.34728e-06)
(5.38987e-17 -2.33956e-16 -1.49461e-16)
(2.05211e-18 -2.59354e-18 -1.52364e-18)
(1.42159e-16 -4.31116e-17 -1.51664e-17)
(1.12309e-14 -3.40788e-15 -1.20208e-15)
(7.2608e-13 -2.20427e-13 -7.77248e-14)
(3.44311e-11 -1.04547e-11 -3.68592e-12)
(9.07608e-10 -2.75545e-10 -9.7156e-11)
(4.77051e-11 -9.14737e-12 -4.14498e-12)
(1.26501e-09 9.25936e-11 -6.45527e-12)
(1.00456e-07 4.23708e-09 3.18514e-09)
(2.88225e-19 -1.24954e-18 -7.82423e-19)
(-4.1301e-21 -6.11624e-20 5.55363e-19)
(4.45681e-19 -1.14597e-18 1.10767e-17)
(5.55221e-17 -1.69172e-17 -5.37814e-18)
(3.29342e-15 -1.00183e-15 -3.52293e-16)
(1.42224e-13 -4.34063e-14 -1.51953e-14)
(3.40533e-12 -1.05775e-12 -3.61281e-13)
(3.91915e-12 -3.44241e-12 -1.07735e-13)
(2.99163e-10 -2.69101e-10 -7.20936e-12)
(1.77895e-08 -1.59791e-08 -4.18551e-10)
(9.90477e-23 -3.46309e-21 -2.1643e-21)
(-5.54261e-21 -1.08394e-21 2.77645e-21)
(-7.62702e-20 -4.07968e-20 5.04356e-20)
(4.00506e-18 -3.55665e-18 -1.00722e-19)
(5.42972e-16 -4.88649e-16 -1.30198e-17)
(6.95794e-14 -6.30554e-14 -1.60935e-15)
(8.22815e-12 -7.47549e-12 -1.87881e-13)
(8.67473e-10 -7.88564e-10 -1.97654e-11)
(7.72321e-08 -7.02068e-08 -1.76143e-09)
(5.23917e-06 -4.7626e-06 -1.19605e-07)
)
;
    }
    procBoundary25to24
    {
        type            processor;
        value           nonuniform List<vector> 
20
(
(1.02972e-17 -4.52343e-17 -2.8832e-17)
(8.13589e-16 -3.57473e-15 -2.27836e-15)
(1.02972e-17 -4.52434e-17 -2.8836e-17)
(6.9677e-20 -3.08294e-19 -1.98571e-19)
(4.15838e-15 -1.8271e-14 -1.16451e-14)
(3.58473e-13 -1.57506e-12 -1.00387e-12)
(4.15837e-15 -1.82711e-14 -1.16451e-14)
(2.55558e-17 -1.14832e-16 -7.39542e-17)
(9.17634e-13 -4.0319e-12 -2.56974e-12)
(8.70146e-11 -3.82324e-10 -2.43675e-10)
(9.17628e-13 -4.03189e-12 -2.56974e-12)
(4.85393e-15 -2.31453e-14 -1.49295e-14)
(4.1583e-15 -1.8271e-14 -1.16451e-14)
(3.58456e-13 -1.57505e-12 -1.00386e-12)
(1.65861e-15 -1.75352e-14 -1.14476e-14)
(-1.9861e-13 5.76821e-14 1.56286e-14)
(-4.32427e-18 -4.09154e-17 -2.75857e-17)
(-2.38732e-15 -2.62819e-15 -2.01929e-15)
(-5.0653e-13 1.4922e-13 3.9817e-14)
(-4.38778e-11 1.2794e-11 3.45436e-12)
)
;
    }
    procBoundary25to26
    {
        type            processor;
        value           nonuniform List<vector> 
20
(
(4.46246e-08 -1.8363e-09 5.78399e-09)
(-8.60969e-09 4.87366e-08 -5.77399e-08)
(-7.36582e-11 4.11376e-10 -4.87451e-10)
(-3.52207e-13 1.94634e-12 -2.32254e-12)
(1.32113e-05 -4.17305e-07 1.56451e-06)
(-6.04503e-06 3.37611e-05 -4.00045e-05)
(-4.48576e-08 2.4929e-07 -2.95408e-07)
(-1.90135e-10 1.04862e-09 -1.25041e-09)
(-1.55553e-05 8.64303e-05 -0.00010242)
(-0.00246498 0.0136574 -0.0161846)
(-1.55999e-05 8.64325e-05 -0.000102426)
(-5.77611e-08 3.18259e-07 -3.79198e-07)
(-4.23896e-08 2.47001e-07 -2.95473e-07)
(-6.09387e-06 3.37636e-05 -4.00114e-05)
(-4.50269e-08 2.49603e-07 -2.95374e-07)
(-3.60231e-09 3.31633e-08 4.38919e-09)
(7.658e-07 -6.95788e-07 -1.79725e-08)
(-6.68405e-09 4.71803e-08 -5.76207e-08)
(-8.77815e-09 8.31637e-08 1.38559e-08)
(-1.03561e-06 9.76842e-06 1.70688e-06)
)
;
    }
}


// ************************************************************************* //
