/*--------------------------------*- C++ -*----------------------------------*\
| =========                 |                                                 |
| \\      /  F ield         | OpenFOAM: The Open Source CFD Toolbox           |
|  \\    /   O peration     | Version:  2.4.0                                 |
|   \\  /    A nd           | Web:      www.OpenFOAM.org                      |
|    \\/     M anipulation  |                                                 |
\*---------------------------------------------------------------------------*/
FoamFile
{
    version     2.0;
    format      ascii;
    class       volScalarField;
    location    "0.03";
    object      p;
}
// * * * * * * * * * * * * * * * * * * * * * * * * * * * * * * * * * * * * * //

dimensions      [1 -1 -2 0 0 0 0];

internalField   nonuniform List<scalar> 
200
(
12006.5
12010.9
12004.1
12064.1
11969.5
11970.2
11969.5
11987
11994.4
12001.7
12006.3
12002.6
12022.2
11958.4
11919.4
11908.3
11920.4
11960.8
11980.2
11990.8
11997.1
11992.8
11965.2
11924.7
11946.5
11925.2
11963.1
11977.1
11979.1
11986.2
11993.8
11983.9
11975
11981.3
11999.5
11992.5
11971.8
11974.8
11974.6
11992.2
11998.1
12001.4
12012.7
12008.7
11984.6
11985.3
11988.1
11987.8
11993
11995.1
11990.1
11981.5
11961
11953.1
11935.5
11943.7
11963.6
11972.2
11979.7
11982.9
11987.2
11984.2
11976
11952.1
11959.2
11980.7
11977.8
11977.8
11986.5
11983.5
11990.1
11990.2
11981.8
11976.4
11989.1
11993.6
11993.3
11993.6
11992.9
12012.3
11982.1
11979.9
11994.3
11990.8
11998.9
11992
11989.7
11983.5
11977.7
11969.9
11994
11990.3
11989.4
11985.4
11981.7
11981.1
11978.2
11971
11961.8
11965.4
12000
11996.5
11993.9
11992.5
11987
11978.4
11973.3
11967.1
11956.4
11974.5
12003.5
11999.3
11997.1
11996
11991.5
11989.9
11977
11972.3
11977.7
11955.9
11934.5
11961.5
11994.1
11986.5
11982
11981
11973.4
11970.5
11946.1
11943.9
11984.2
11993.3
11989.1
11985.1
11984.5
11979.4
11982.1
11968.9
11965.2
11943.3
12000.1
11997.5
11999
11996.9
11990.3
11990.8
11983.9
11981.1
11969.8
12004.1
12023.8
12017.3
12026.1
12014.7
12005.5
11992.2
11984.6
11980.1
12000.3
12034.8
12059.4
12039.9
12047.2
12034.2
12027.8
12023.9
12030.5
12036.9
12061.2
12036
12056.7
12056.5
12043
12034.8
12026.7
12030.5
12037.8
12071.7
12079.9
12113.6
12054
12056.4
12044.9
12035.9
12032.1
12030.8
12047.6
12072.7
12108.1
12127.6
12045.5
12047.4
12046.4
12046.2
12043.1
12041.6
12042.8
12062.9
12096.6
12140.6
)
;

boundaryField
{
    inlet
    {
        type            zeroGradient;
    }
    outlet
    {
        type            fixedValue;
        value           nonuniform 0();
    }
    bottom
    {
        type            zeroGradient;
    }
    top
    {
        type            symmetryPlane;
    }
    side1
    {
        type            symmetryPlane;
    }
    side2
    {
        type            symmetryPlane;
    }
    procBoundary17to9
    {
        type            processor;
        value           nonuniform List<scalar> 
50
(
12012.6
12020.6
12043.3
12032
12034.3
12016
12006.6
12006.6
12009.6
12012.5
12013.4
12015.9
12037.7
12040.1
12046.2
12009.4
12001.5
11991.2
11993.8
11997.4
11991.9
11983.9
11967.5
11994
11990.1
11989.6
11984.8
11976.2
11970.7
11966.5
11970.5
11978.2
11981.7
11964.5
11971.7
11967.7
11972.1
11952
11926.4
11855
12045.7
12033.4
12031.9
12024.5
12019.3
12017.2
12016.3
12030.2
12024.7
12021.3
)
;
    }
    procBoundary17to16
    {
        type            processor;
        value           nonuniform List<scalar> 
20
(
12005.2
12005.1
12001.3
12000.5
12002.4
11994
11992.6
11994
11991.9
11995.6
11997.2
12012.7
11973.4
11977.3
11991.5
12023
12085.9
12050.6
12047
12041.9
)
;
    }
    procBoundary17to18
    {
        type            processor;
        value           nonuniform List<scalar> 
20
(
12006.3
11997.4
11989
11994.2
11995.1
11983.3
11985.8
11969.6
11979
11984.5
11967
11982.9
11928.5
11986.2
12034.2
12087.9
12086.8
12097.4
12141.2
12167.1
)
;
    }
    procBoundary17to25
    {
        type            processor;
        value           nonuniform List<scalar> 
50
(
12005.1
12001.3
11996.5
11999.6
12000.5
11984.7
11980
11976.8
11993.4
12012.1
12003.2
11994.2
11993.7
11992.9
11994.2
12004.5
11996.1
11989.9
12010.5
12000.9
12006.5
12003.3
11994.6
11995.8
12003.3
11995
12001.4
11988.4
11987.2
11996.4
12024.7
12025.1
12024
12024.3
12015.3
12008.3
11991.9
11991.9
12006.7
12030.5
12045.1
12050.1
12059.9
12058.6
12055.4
12051
12048.2
12049.1
12058.7
12079.7
)
;
    }
}


// ************************************************************************* //
