/*--------------------------------*- C++ -*----------------------------------*\
| =========                 |                                                 |
| \\      /  F ield         | OpenFOAM: The Open Source CFD Toolbox           |
|  \\    /   O peration     | Version:  2.4.0                                 |
|   \\  /    A nd           | Web:      www.OpenFOAM.org                      |
|    \\/     M anipulation  |                                                 |
\*---------------------------------------------------------------------------*/
FoamFile
{
    version     2.0;
    format      ascii;
    class       volVectorField;
    location    "0.05";
    object      Ua;
}
// * * * * * * * * * * * * * * * * * * * * * * * * * * * * * * * * * * * * * //

dimensions      [0 1 -1 0 0 0 0];

internalField   nonuniform List<vector> 
200
(
(14.8612 14.9413 -6.19991)
(15.4719 15.7869 -6.88394)
(15.4722 15.7874 -6.88453)
(15.4855 15.801 -6.88476)
(15.5097 15.8257 -6.88488)
(15.5417 15.8583 -6.88497)
(15.5787 15.8961 -6.88504)
(15.6188 15.9369 -6.8851)
(15.6604 15.9794 -6.88514)
(15.7028 16.0226 -6.88518)
(-3.92932 -11.0696 14.8257)
(0.770295 -4.56442 9.56748)
(3.63978 -0.594161 6.36226)
(5.57834 2.08351 4.20866)
(6.98341 4.0178 2.66045)
(8.05566 5.4874 1.49117)
(8.90619 6.64738 0.574835)
(9.60109 7.59035 -0.163899)
(10.181 8.37287 -0.778593)
(10.6683 9.02351 -1.327)
(-3.94154 -11.0866 14.8395)
(-3.94155 -11.0871 14.8403)
(-3.94125 -11.0869 14.8403)
(-3.94073 -11.0864 14.84)
(-3.94088 -11.088 14.8396)
(-3.94208 -11.0929 14.839)
(-3.94436 -11.1011 14.8382)
(-3.94752 -11.1124 14.8371)
(-3.88815 -11.0572 14.5347)
(-3.4491 -10.5954 12.4441)
(-3.93224 -11.0798 14.8341)
(-0.308155 -8.32494 12.6344)
(2.71183 -6.25131 11.1431)
(5.2654 -4.63157 10.0814)
(7.46222 -3.3372 9.30002)
(9.38163 -2.29386 8.7128)
(11.0767 -1.46157 8.2682)
(12.2583 -0.83925 6.35102)
(5.26874 -1.20905 -28.0224)
(5.2197 -1.22964 -28.4355)
(14.5688 14.5366 -5.87297)
(15.4716 15.7865 -6.88361)
(15.4723 15.7874 -6.88429)
(15.4725 15.7877 -6.88452)
(15.4727 15.788 -6.88464)
(15.4729 15.7881 -6.88472)
(15.473 15.7882 -6.88477)
(15.4731 15.7883 -6.8848)
(15.4732 15.7884 -6.88483)
(15.4734 15.7887 -6.88485)
(-3.93491 -11.0775 14.8321)
(-0.525515 -6.35825 11.0177)
(1.86594 -3.04788 8.34177)
(3.63559 -0.598192 6.36162)
(4.99854 1.28787 4.83603)
(6.08133 2.78538 3.62338)
(6.9629 4.0038 2.63546)
(7.69498 5.01497 1.81456)
(8.31225 5.86653 1.1157)
(8.8362 6.58571 0.48552)
(-3.94161 -11.0868 14.8398)
(-3.94176 -11.0874 14.8406)
(-3.94168 -11.0874 14.8408)
(-3.94152 -11.0872 14.8407)
(-3.94129 -11.0869 14.8405)
(-3.94098 -11.0866 14.8402)
(-3.9406 -11.0861 14.8399)
(-3.9401 -11.0854 14.8393)
(-3.89473 -11.0361 14.6251)
(-3.57668 -10.6946 13.1242)
(-3.94154 -11.0866 14.8395)
(-3.94177 -11.0874 14.8406)
(-3.94178 -11.0876 14.8409)
(-3.94172 -11.0876 14.841)
(-3.93263 -11.0925 14.8399)
(-3.89675 -11.1121 14.8356)
(-3.80836 -11.1616 14.824)
(-3.006 -10.5411 11.694)
(5.09626 -1.28703 -28.2233)
(5.18599 -1.23995 -28.4666)
(13.7448 13.396 -4.95108)
(15.4707 15.7853 -6.88259)
(15.4716 15.7865 -6.88361)
(15.4719 15.7869 -6.88392)
(15.472 15.787 -6.88406)
(15.472 15.7871 -6.88413)
(15.4721 15.7871 -6.88416)
(15.4721 15.7872 -6.88417)
(15.4721 15.7872 -6.88418)
(15.4722 15.7873 -6.88417)
(-3.93896 -11.0832 14.8368)
(-2.0692 -8.49521 12.7452)
(-0.52743 -6.36102 11.02)
(0.765335 -4.57149 9.57347)
(1.86485 -3.04945 8.34311)
(2.81141 -1.73913 7.28389)
(3.63486 -0.59924 6.36242)
(4.35774 0.401438 5.55349)
(4.99744 1.28656 4.83272)
(5.56712 2.07221 4.16178)
(-3.94168 -11.087 14.8401)
(-3.94185 -11.0876 14.8408)
(-3.94186 -11.0877 14.841)
(-3.9418 -11.0876 14.8411)
(-3.94171 -11.0875 14.841)
(-3.94157 -11.0874 14.8409)
(-3.9414 -11.0871 14.8407)
(-3.94117 -11.0868 14.8405)
(-3.91686 -11.0604 14.7255)
(-3.74363 -10.8741 13.9071)
(-3.94161 -11.0868 14.8398)
(-3.94185 -11.0875 14.8407)
(-3.94191 -11.0877 14.841)
(-3.94193 -11.0878 14.8411)
(-3.93743 -11.0903 14.8407)
(-3.91951 -11.1001 14.8385)
(-3.87501 -11.1249 14.8328)
(-3.42819 -10.7749 13.0801)
(5.06077 -1.32424 -28.0577)
(5.17384 -1.2435 -28.443)
(-3.93918 -11.0835 14.8371)
(-2.21329 -8.69467 12.9064)
(-0.768689 -6.695 11.29)
(0.457856 -4.99713 9.91756)
(1.51219 -3.53764 8.73775)
(2.42819 -2.26963 7.71273)
(3.2314 -1.15776 6.81392)
(3.94144 -0.174859 6.01937)
(4.57363 0.700275 5.31192)
(5.14015 1.48446 4.67805)
(-3.94168 -11.087 14.8401)
(-3.94187 -11.0876 14.8408)
(-3.9419 -11.0877 14.8411)
(-3.94188 -11.0877 14.8411)
(-3.94183 -11.0877 14.8411)
(-3.94175 -11.0876 14.8411)
(-3.94165 -11.0875 14.841)
(-3.94152 -11.0873 14.8409)
(-3.94136 -11.0871 14.8407)
(-3.94119 -11.0869 14.8405)
(-3.94175 -11.0872 14.8403)
(-3.94193 -11.0877 14.841)
(-3.94199 -11.0879 14.8412)
(-3.94202 -11.088 14.8413)
(-3.94204 -11.088 14.8414)
(-3.94205 -11.0881 14.8414)
(-3.94206 -11.0881 14.8415)
(-3.94206 -11.0881 14.8415)
(-3.94207 -11.0881 14.8415)
(-3.94206 -11.0881 14.8415)
(-3.94168 -11.087 14.8401)
(-3.94189 -11.0876 14.8409)
(-3.94197 -11.0878 14.8411)
(-3.942 -11.0879 14.8413)
(-3.94202 -11.088 14.8413)
(-3.94204 -11.088 14.8414)
(-3.94204 -11.0881 14.8414)
(-3.94204 -11.0881 14.8414)
(-3.91276 -11.0565 14.7024)
(-3.70364 -10.8329 13.7176)
(-3.94003 -11.0845 14.7829)
(-3.03771 -9.83586 13.7716)
(-2.21517 -8.69734 12.8494)
(-1.46261 -7.65564 12.0057)
(-0.771523 -6.699 11.231)
(-0.134692 -5.81747 10.5173)
(0.454025 -5.00252 9.85766)
(0.99988 -4.24691 9.24616)
(1.50739 -3.54439 8.67775)
(1.98047 -2.88956 8.14809)
(-3.94161 -11.0868 14.791)
(-3.94184 -11.0875 14.7858)
(-3.9419 -11.0877 14.78)
(-3.94191 -11.0878 14.774)
(-3.94189 -11.0878 14.768)
(-3.94185 -11.0877 14.7619)
(-3.9418 -11.0877 14.7558)
(-3.94173 -11.0876 14.7497)
(-3.94165 -11.0875 14.7435)
(-3.94156 -11.0874 14.7374)
(-3.94168 -11.087 14.7973)
(-3.94189 -11.0876 14.792)
(-3.94197 -11.0878 14.7862)
(-3.942 -11.0879 14.7803)
(-3.94202 -11.088 14.7742)
(-3.94204 -11.088 14.7682)
(-3.94205 -11.0881 14.7622)
(-3.94205 -11.0881 14.7561)
(-3.94206 -11.0881 14.7501)
(-3.94206 -11.0881 14.744)
(-3.94161 -11.0868 14.791)
(-3.94186 -11.0875 14.7858)
(-3.94194 -11.0878 14.78)
(-3.94198 -11.0879 14.7741)
(-3.94201 -11.0879 14.7681)
(-3.94202 -11.088 14.7621)
(-3.94203 -11.088 14.756)
(-3.94204 -11.088 14.75)
(-3.92846 -11.0735 14.6802)
(-3.82994 -10.9695 14.2174)
)
;

boundaryField
{
    inlet
    {
        type            calculated;
        value           nonuniform 0();
    }
    outlet
    {
        type            calculated;
        value           nonuniform 0();
    }
    bottom
    {
        type            calculated;
        value           uniform (0 0 0);
    }
    top
    {
        type            symmetryPlane;
    }
    side1
    {
        type            symmetryPlane;
    }
    side2
    {
        type            symmetryPlane;
    }
    procBoundary11to3
    {
        type            processor;
        value           nonuniform List<vector> 
50
(
(15.4732 15.7887 -6.88529)
(15.4732 15.7887 -6.88531)
(15.4732 15.7887 -6.88531)
(15.4732 15.7887 -6.88531)
(15.4732 15.7887 -6.88532)
(15.4732 15.7887 -6.88533)
(15.4733 15.7888 -6.88534)
(15.4733 15.7888 -6.88536)
(15.4734 15.7889 -6.88537)
(15.4735 15.789 -6.88539)
(15.4732 15.7887 -6.88529)
(15.4732 15.7887 -6.88531)
(15.4732 15.7887 -6.88531)
(15.4732 15.7887 -6.88531)
(15.4732 15.7887 -6.88531)
(15.4732 15.7887 -6.88531)
(15.4732 15.7886 -6.88531)
(15.4732 15.7886 -6.88531)
(15.4732 15.7886 -6.88531)
(15.4732 15.7887 -6.88531)
(15.4732 15.7887 -6.88528)
(15.4732 15.7887 -6.88531)
(15.4732 15.7887 -6.88531)
(15.4732 15.7887 -6.88531)
(15.4732 15.7887 -6.88531)
(15.4732 15.7887 -6.88531)
(15.4732 15.7887 -6.88531)
(15.4732 15.7887 -6.88531)
(15.4732 15.7887 -6.88531)
(15.4732 15.7887 -6.88531)
(13.6006 13.1965 -4.7899)
(15.4706 15.785 -6.88234)
(15.4716 15.7864 -6.88345)
(15.4719 15.7868 -6.88379)
(15.472 15.787 -6.88395)
(15.4721 15.7871 -6.88402)
(15.4721 15.7872 -6.88406)
(15.4721 15.7872 -6.88408)
(15.4721 15.7872 -6.88408)
(15.4721 15.7872 -6.88408)
(12.0551 11.0571 -3.05575)
(15.4666 15.7795 -6.86091)
(15.4692 15.7831 -6.8619)
(15.47 15.7842 -6.86093)
(15.4703 15.7847 -6.85946)
(15.4705 15.785 -6.85779)
(15.4706 15.7851 -6.85603)
(15.4707 15.7852 -6.85421)
(15.4707 15.7852 -6.85236)
(15.4707 15.7853 -6.85049)
)
;
    }
    procBoundary11to10
    {
        type            processor;
        value           nonuniform List<vector> 
20
(
(14.4208 14.3195 -5.63122)
(-3.53607 -9.95655 13.3322)
(-3.49891 -9.84162 13.173)
(-3.53747 -9.96246 13.3371)
(13.829 13.5437 -5.07927)
(-3.49491 -9.83616 13.1687)
(-3.44351 -9.6858 12.9645)
(-3.49889 -9.84155 13.1729)
(12.3713 11.5986 -3.60744)
(-3.44189 -9.68361 12.9628)
(-3.37234 -9.48561 12.6966)
(-3.44351 -9.6858 12.9645)
(-3.44203 -9.6838 12.9629)
(-3.37234 -9.48559 12.6965)
(-3.27744 -9.21867 12.3393)
(-3.37234 -9.4856 12.6965)
(-3.49807 -9.84058 13.1174)
(-3.44361 -9.68608 12.9161)
(-3.37246 -9.48593 12.6543)
(-3.44361 -9.68608 12.9161)
)
;
    }
    procBoundary11to12
    {
        type            processor;
        value           nonuniform List<vector> 
20
(
(16.494 16.829 -6.88554)
(11.4504 9.86787 -1.84686)
(-2.03649 -9.27137 5.83132)
(5.49596 -1.2999 -28.4907)
(15.9399 16.2641 -6.88522)
(9.48287 7.33929 -0.137646)
(-2.49994 -9.64811 8.12432)
(5.44746 -1.29348 -28.4983)
(15.4741 15.7893 -6.88458)
(6.10093 2.77522 3.42693)
(-3.10376 -10.2173 10.9918)
(5.40244 -1.28444 -28.492)
(5.67459 2.20053 4.06177)
(-3.94111 -11.087 14.8405)
(-3.94204 -11.0881 14.8414)
(-2.9503 -10.0734 10.3349)
(2.43843 -2.29316 7.60596)
(-3.9416 -11.0877 14.7314)
(-3.94205 -11.0881 14.7379)
(-3.4591 -10.6063 12.5935)
)
;
    }
    procBoundary11to19
    {
        type            processor;
        value           nonuniform List<vector> 
50
(
(19.6956 5.27823 2.95802)
(18.8608 5.32972 2.40932)
(20.3974 5.76419 2.60518)
(21.6547 6.11957 2.76586)
(22.7155 6.38922 2.91264)
(23.6076 6.55111 3.06616)
(24.3348 6.57739 3.24254)
(22.923 5.67658 0.263471)
(5.2556 -1.18239 -28.3388)
(5.16861 -1.21501 -28.4799)
(-3.93627 -11.0833 14.8368)
(-1.5885 -9.45801 13.6576)
(0.569945 -8.06048 12.7112)
(2.70286 -7.12465 11.9672)
(9.36386 -18.0713 13.153)
(9.49186 -18.3458 13.1915)
(9.53713 -18.4303 13.0989)
(5.9998 -4.51951 -20.6079)
(5.15244 -1.22388 -28.497)
(5.1523 -1.22136 -28.5039)
(-3.94162 -11.0869 14.8395)
(-3.94185 -11.0875 14.8406)
(-3.94184 -11.0878 14.841)
(-3.72983 -11.204 14.8155)
(9.0431 -18.189 13.2678)
(9.4033 -18.3862 13.2243)
(9.48187 -18.4205 13.121)
(5.94106 -4.32507 -21.0374)
(5.15225 -1.22318 -28.4986)
(5.15213 -1.22117 -28.5042)
(-3.94165 -11.0869 14.8398)
(-3.94186 -11.0875 14.8407)
(-3.94193 -11.0877 14.841)
(-3.94196 -11.0878 14.8412)
(-3.93376 -11.0924 14.8403)
(-3.90102 -11.1104 14.8364)
(-3.81986 -11.1552 14.8257)
(-2.94367 -10.4287 11.2797)
(5.1094 -1.27089 -28.2913)
(5.17172 -1.23387 -28.4758)
(-3.94162 -11.0868 14.7846)
(-3.94184 -11.0875 14.7796)
(-3.94191 -11.0877 14.7738)
(-3.94195 -11.0878 14.7679)
(-3.93786 -11.0901 14.7615)
(-3.92152 -11.0992 14.7535)
(-3.88085 -11.122 14.7423)
(-3.44299 -10.7728 13.0114)
(5.07171 -1.3462 -27.882)
(5.21462 -1.25571 -28.3176)
)
;
    }
}


// ************************************************************************* //
