/*--------------------------------*- C++ -*----------------------------------*\
| =========                 |                                                 |
| \\      /  F ield         | OpenFOAM: The Open Source CFD Toolbox           |
|  \\    /   O peration     | Version:  2.4.0                                 |
|   \\  /    A nd           | Web:      www.OpenFOAM.org                      |
|    \\/     M anipulation  |                                                 |
\*---------------------------------------------------------------------------*/
FoamFile
{
    version     2.0;
    format      ascii;
    class       volScalarField;
    location    "0.05";
    object      p;
}
// * * * * * * * * * * * * * * * * * * * * * * * * * * * * * * * * * * * * * //

dimensions      [1 -1 -2 0 0 0 0];

internalField   nonuniform List<scalar> 
200
(
-6899.97
-6224.7
-4705.83
-3398.08
-4228.5
-3198.08
86.7355
6106.92
4357
36.7987
-6281.11
-3638.66
-827.153
2184.54
6133.58
11801.6
15958.4
25697.8
20177.2
22066.3
-4885.47
-4867.6
-3515.85
84.4961
5766.15
11171.7
18806.6
15348.1
20497.5
5466.74
-6070.05
-6061.47
-9526.65
-7339
-2705.37
4152.8
3170.05
4481.54
-19.7273
1021.37
-8520.57
-10716.5
-12213.1
-16780.8
-22102.3
-28168.6
-23316.7
-19269.5
-14220.9
-11714.5
5207.95
4981.42
3031.03
642.322
-5483.81
-13009.3
-12513.2
-1845.19
-4267.03
-12472
-4264.4
-74.8769
3720.87
6936.8
10025.9
12953.7
9542.86
21358.7
13670.1
24665
-5933.81
-1590.44
2675.7
4743.6
8887.37
13061.7
19963.4
13261.7
23298.7
3417.98
-32369.2
-27047.4
-25542.3
-24657.3
-28141.5
-24852.8
-23571
-12450.1
-18037.5
-5584.65
22314.8
19974.9
3078.4
-10461.1
-19473.9
-28657.9
-22880.7
-14952.3
-7437.84
-5483.67
8639.31
4661.6
1820.26
553.313
-9108.13
-20067.9
-25926.3
-5171.87
-2062.98
-15028.5
-7458.25
-2427.8
121.825
4507
8371.01
9852.71
3701.98
17663.1
13804.1
28180.9
-58868.7
-65162
-40498.4
-32741.2
-29571.6
-35336.7
-14983.5
-18345.1
-10779.3
-8685.17
-21984.9
-29840.6
-26255.9
-23495.9
-29644.8
-22008.2
-18214
-4012.94
-7363.13
418.634
-29167.1
-32531.1
-28801
-29392.2
-28855.9
-40682.4
-30605.8
-15209.5
-2067.83
-18480.3
-47421.4
-36535.2
-30412.1
-23842.8
-22637.6
-22150
-30641.5
-17895.3
-9673.92
-12791.4
-51207.2
-51686.8
-44486.4
17281.5
-12035.6
12452.4
3405.94
12779.9
8644.14
1083.1
-13669
-18915.4
815.297
-15632
5039.32
-8721.71
-2176.45
-6589.08
-3701.86
-8392.28
-17309
-9760.99
-18186.6
-8573.51
-19955.3
-20585.7
-16832.1
-14771.1
-27939.1
-7470.34
-22553.8
-18821.6
-19520.8
-22736.3
-26283.1
-19691
-20231.1
-17950.2
-7731.27
-22386.2
)
;

boundaryField
{
    inlet
    {
        type            zeroGradient;
    }
    outlet
    {
        type            fixedValue;
        value           uniform 0;
    }
    bottom
    {
        type            zeroGradient;
    }
    top
    {
        type            symmetryPlane;
    }
    side1
    {
        type            symmetryPlane;
    }
    side2
    {
        type            symmetryPlane;
    }
    procBoundary15to7
    {
        type            processor;
        value           nonuniform List<scalar> 
50
(
-13431.5
-12713.7
-12662.6
-13697.5
-15488.2
-19076.6
-17006.2
-15855.3
-10579.4
-5226.52
-28045.6
-26455.9
-27642.2
-27958.6
-31842.3
-31789.5
-31807.5
-23992
-23132.8
-8419.42
-66878.9
-49723.1
-44123.1
-38531.2
-32140
-31039.9
-24421.5
-24048.9
-15479.8
-11601.5
-65953.5
-101339
-126962
-56584.3
-39824.1
-38267.4
-44212.7
-19023
-21908.1
-11529.2
-75354.4
-90475.2
-73315.7
-71126.7
40937.2
-3814.89
19298.7
11101.6
14019.3
5989.45
)
;
    }
    procBoundary15to14
    {
        type            processor;
        value           nonuniform List<scalar> 
20
(
-7658.53
-9338.43
-5891.31
-4568.94
2429.71
686.161
-12318.8
-11207.7
-19006.7
56029.6
-4307.1
-10677.3
-59221.6
-25291.9
-31084.8
-42090.4
-45110.6
-18891.2
-15585.9
-27121.7
)
;
    }
    procBoundary15to23
    {
        type            processor;
        value           nonuniform List<scalar> 
50
(
-7266.08
-2712.4
-8989.4
-14501.1
-9902.55
-23314
-12949.1
-23068.2
-17318.2
-6292.45
-11264.7
-9267.82
-3347.32
375.142
-3399.61
7440.36
12621.6
20056.7
10106.9
5783.01
-16599.3
-13801.6
-2782.27
4079.49
8851.99
13561.1
19179.4
13618.8
25410.8
4050.83
-41562.7
-31147.2
-26712.8
-22128.3
-19080
-15822.4
-14374.1
3720.99
9946.66
19706.9
-34787
-34982.2
-29537.6
-30069.1
-24336.3
-28953.8
-24479.5
-14045.2
-21965.2
-11786.4
)
;
    }
}


// ************************************************************************* //
