/*--------------------------------*- C++ -*----------------------------------*\
| =========                 |                                                 |
| \\      /  F ield         | OpenFOAM: The Open Source CFD Toolbox           |
|  \\    /   O peration     | Version:  2.4.0                                 |
|   \\  /    A nd           | Web:      www.OpenFOAM.org                      |
|    \\/     M anipulation  |                                                 |
\*---------------------------------------------------------------------------*/
FoamFile
{
    version     2.0;
    format      ascii;
    class       volSymmTensorField;
    location    "0.05";
    object      B;
}
// * * * * * * * * * * * * * * * * * * * * * * * * * * * * * * * * * * * * * //

dimensions      [0 2 -2 0 0 0 0];

internalField   nonuniform List<symmTensor> 
200
(
(8174.79 -423.614 -62.1821 8634.47 52.8653 9660.04)
(15548.4 -4.93508 -738.778 15943.6 -38.9555 15902.4)
(3685.09 -78.4178 -228.135 3096.27 -79.0155 2887.5)
(665.565 -291.9 9.34532 34.692 70.0236 89.1015)
(1884.32 -220.652 -231.15 1519.86 -155.128 1533.7)
(2805.8 286.118 -581.675 1266.99 561.507 2015.06)
(1113.69 185.304 -47.9542 321.839 -194.492 440.665)
(9499.09 1274.79 -797.565 9381.17 -227.625 7983.85)
(731.594 -179.08 -132.035 454.152 72.9273 174.227)
(10479.9 960.283 -139.105 6465.06 -240.53 5204.8)
(5584.38 -97.9431 -386.551 5796.51 -401.013 5788.34)
(2098.13 -17.4543 -257.263 1807.18 88.8953 1880.69)
(1637.8 -1336.66 378.729 -251.22 366.581 -148.103)
(2467.2 -254.529 -600.501 1933.24 -518.423 2272.51)
(6999.13 -2426.57 3942.6 1176.88 1886.96 4435.28)
(5799.3 -836.783 -604.699 5115.42 -944.436 6756.8)
(27540.4 1857.06 -2762.83 26922.5 -479.938 26406.6)
(2776.16 280.411 12.9838 476.842 217.362 359.136)
(11381 864.379 -519.983 6868.95 -322.381 6204.58)
(20629 160.496 868.18 20498 371.559 20166.9)
(8377.42 -13.5769 -1510.7 7873.09 138.037 9555.01)
(1175.33 -315.448 -89.2563 317.105 -10.5984 744.359)
(3596.19 155.401 -589.312 2841.51 -305.136 3644.93)
(6882.71 -2099.18 2881.17 2549.32 799.978 4544.8)
(5599.15 -538.252 -329.21 5064.82 -496.541 6088.12)
(24465.4 1306.87 -2451.69 25841.7 -1511.37 24457.7)
(2235.44 154.325 -81.3645 1276.21 26.1474 559.965)
(17332.8 849.922 -1016.41 12737.7 -485.578 12581.6)
(11539.7 110.94 877.708 11191.5 268.881 10921.6)
(2321.19 -246.445 338.704 854.543 151.957 2507.43)
(1789.48 -20.4926 -361.352 1217.9 -107.469 1619.5)
(3012.15 308.422 -729.35 2411.43 -414.03 3236.47)
(4660.39 -1040.01 1202.43 3213.66 -140.444 3476.2)
(3652.25 -100.88 -80.9349 3463.56 -124.184 3718.17)
(14682.1 541.035 -1192.12 15631.4 -954.712 14752.9)
(280.611 78.4431 -78.993 236.594 -69.9934 -89.0627)
(8395.04 412.248 -845.547 6112.27 -318.507 6092.21)
(5570.79 -90.9878 1031.82 4739.19 -76.9569 4275.17)
(2586.4 103.26 -64.2868 976.884 -100.794 1770.23)
(1541.48 869.611 671.94 1191.54 -1374.03 653.633)
(695.913 -155.745 -96.8789 601.785 58.825 -510.312)
(1967.45 -279.063 -63.2175 1943.39 88.5146 2121.92)
(588.99 -109.6 -243.444 670.76 -190.365 493.251)
(1124.3 -168.52 69.5541 691.409 -120.093 895.475)
(485.266 -74.8418 120.482 91.8785 -52.6723 73.2563)
(1800.12 130.926 -22.4064 960.024 -141.084 1260.29)
(1211.45 233.498 -321.416 919.626 -15.0602 975.157)
(606.937 0.613242 -87.7924 568.966 -41.9322 521.395)
(2106.08 260.779 -95.6358 1629.62 -199.446 1991.53)
(121.647 -88.3717 -40.7649 122.99 -11.3626 227.25)
(9088.53 -38.2858 -1646.18 9213.39 864.206 10960.2)
(824.677 -60.2348 -145.03 804.443 -100.662 744.458)
(1687.92 -374.797 -210.741 963.864 146.943 1535.31)
(1131.52 -277.177 492.521 629.838 62.1111 334.151)
(3145.79 -169.983 -279.308 2486.55 -221.026 2699.89)
(1987.04 141.767 -206.374 842.295 343.312 -656.913)
(1305.56 423.061 63.2131 1039.12 -46.007 1156)
(2785.15 240.037 -195.765 2641.91 -107.453 2726.52)
(701.356 -193.598 -27.0454 586.732 -1.44422 726.03)
(9661.54 819.61 -848.635 7761.37 -509.129 8336.19)
(5368.78 -276.598 -592.229 5111.18 -46.6907 4816.62)
(3439.03 -463.353 -1598.71 3040.43 267.446 4509.16)
(752.422 -158.904 187.069 404.141 122.177 50.0474)
(4185.47 -51.9989 -361.525 3742.5 -205.825 3906.25)
(1957.45 27.138 18.3914 1134.95 186.035 -109.142)
(293.805 112.388 21.0231 336.752 47.5012 254.907)
(1483.32 214.119 -330.485 1430.17 -198.768 1297.19)
(602.077 -156.268 27.3141 280.795 2.35716 461.329)
(5548.95 538.636 -388.275 4497.08 -228.195 4913.55)
(4124.09 78.791 282.892 4110.25 73.2127 3850.52)
(464.666 -243.593 -899.448 851.522 -444.216 2167.76)
(1449.46 -165.178 17.4251 1025.22 112.213 694.615)
(2528.81 28.2669 -446.847 2338.16 -212.468 2489.75)
(1644.56 -39.3451 51.6823 1415.2 50.2321 1002.03)
(362.765 -20.184 30.1908 302.381 50.7429 272.446)
(250.763 76.5376 -105.119 355.549 -88.235 146.099)
(276.815 -63.8959 38.9029 63.8159 54.3104 115.532)
(2247.39 209.832 -144.042 1689 -32.9803 1910.57)
(1741.15 6.10725 249.214 1723.97 48.3856 1465.17)
(1596.45 629.26 235.092 672.741 22.9998 1286.07)
(23755.6 -697.004 -3488 24047 1853.34 27772.5)
(812.067 -17.5702 -341.023 651.845 -215.352 447.391)
(3215.75 -296.255 -139.648 2342.26 78.9142 3325.21)
(614.962 -20.9702 141.525 472.8 -19.2753 447.738)
(1328.25 102.266 -92.7338 831.25 -245.32 1474.61)
(390.418 102.916 -25.379 364.68 -20.2307 368.924)
(857.514 168.884 -168.401 713.448 -169.276 1089.63)
(219.028 10.2343 14.3498 118.126 -15.8131 237.323)
(357.314 53.9679 -64.9549 267.553 -138.466 647.854)
(1187.07 170.197 -63.3716 1189.82 -106.9 1264.92)
(6247.66 -406.786 461.782 5453.14 -706.46 3814.93)
(5873.91 -271.609 -1691.33 5696.71 298.03 6636.33)
(754.181 3.97482 227.126 696.667 -43.9504 477.469)
(1063.92 103.415 89.8447 736.198 -140.162 1352.51)
(252.927 79.0292 127.826 273.424 -7.95088 170.436)
(2278.39 280.064 -210.622 2194.07 -114.036 2445.64)
(214.291 93.4956 -35.3328 112.113 4.42879 132.099)
(417.277 -21.5452 -36.4167 317.237 -177.186 515.226)
(1020.74 188.329 -18.3252 1055.63 -80.991 1124.49)
(7.63316 -0.559481 8.93944 16.3126 7.12501 40.3418)
(1237.69 -930.911 -1894.09 2600.37 -542.857 2021.46)
(1662.16 -529.625 582.554 2104.29 -84.0755 503.439)
(340.848 -248.374 -685.949 1023.48 -161.569 890.673)
(1546.89 -14.0622 294.481 1549.54 8.1594 1366.91)
(1191.15 132.936 -242.819 1376.41 -148.893 1474.65)
(262.38 126.637 -22.1729 289.204 -7.96817 179.561)
(156.041 40.4692 17.0455 82.8127 -51.9199 222.48)
(377.955 104.267 21.1027 348.96 -31.8308 432.001)
(130.056 -3.49113 13.8465 143.092 7.85315 147.845)
(3014.59 569.841 -84.3402 2596.19 -127.013 2833.6)
(7811.44 -1823.28 -977.845 7126.13 -146.105 3357.81)
(290.201 -492.151 -568.594 932.432 -520.327 712.485)
(3610.23 -198.635 513.948 3514.27 93.0927 3148.01)
(432.513 -43.2942 -117.363 658.651 -97.8781 691.273)
(208.081 74.4481 147.304 485.145 6.64052 172.789)
(70.7822 18.3092 26.0329 87.6969 11.9733 109.776)
(76.3625 16.4561 51.5612 95.1895 14.3527 113.813)
(141.777 -2.5752 20.2623 163.487 13.5912 163.702)
(1371.2 318.305 44.932 1115.97 -24.8791 1336.65)
(841.958 43.065 187.184 852.447 42.1226 702.441)
(32479.6 -2862.46 17780.2 28795.9 4891.22 20369.9)
(13161.7 -1030.96 -4354.75 12698.1 292.16 15623.3)
(1501.87 1040.57 168.931 1273.5 -315.869 -773.446)
(676.058 224.514 4.3001 596.499 60.9847 1697.84)
(785.294 182.168 438.294 766.898 193.985 740.734)
(488.39 308.053 30.3196 572.909 19.4853 878.849)
(165.836 134.206 96.671 177.617 20.2623 322.707)
(132.865 186.377 -67.7099 159.633 -96.2743 275.663)
(61.9799 40.012 81.5651 44.2014 40.6956 142.786)
(209.986 50.503 -48.6445 243.405 -41.6083 258.523)
(9109.74 -2837.41 -5191.21 8697.52 -1762.7 10965.4)
(7267.15 1430.8 -443.934 5792.15 -994.556 -1251.54)
(173.79 -19.9834 -417.764 1176.06 46.0558 2055.58)
(2135.93 31.3183 1094.01 2600.67 282.435 2381.39)
(277.771 252.793 -120.455 707.837 2.12158 832.892)
(89.5943 197.577 176.225 318.972 93.9224 342.161)
(126.277 234.048 -111.186 431.217 -130.324 446.837)
(170.36 45.6589 51.6677 156.996 22.213 225.871)
(81.0987 59.4873 -26.9204 159.082 -28.064 163.362)
(698.618 248.486 27.421 758.848 11.9861 790.732)
(17693.5 -652.633 -1932.81 11495 -1416.59 -666.378)
(-22.059 -769.149 -906.823 1868.33 -520.365 2054.78)
(2900.57 -165.445 1433.92 3574.29 644.031 3156.36)
(309.858 112.844 -256.339 1131.66 -65.6577 1104.06)
(256.701 106.465 382.746 824.857 206.377 600.068)
(124.996 185.401 -97.8035 620.752 -42.8959 594.129)
(110.377 22.1221 78.5409 213.228 53.558 253.492)
(44.8151 39.1297 9.95606 155.838 -4.54024 150.363)
(460.817 166.243 48.8691 469.529 26.8513 548.702)
(117.653 -0.36279 27.2487 146.522 19.9424 153.236)
(1038.36 -936.631 -886.344 2229.86 -771.31 2561.74)
(3931.95 -520.169 1943.63 4824.96 766.287 4030.93)
(483.509 -157.511 -201.869 1688.4 -98.9197 1644.48)
(558.242 -64.8363 599.593 1417.65 351.165 1111.53)
(152.258 29.8494 -100.652 797.011 64.7119 820.748)
(327.962 -9.96533 150 673.242 129.086 645.704)
(-19.6535 28.8809 11.6278 128.081 19.3611 134.619)
(352.478 40.0708 86.5057 606.028 125.864 589.184)
(147.253 -1.29775 38.1074 181.354 17.8347 194.534)
(780.567 449.457 200.957 1221.87 197.387 1290.02)
(3778.32 -3634.94 -7724.75 6376.85 0.706942 8282.34)
(7716.37 346.233 7191.92 6713.28 194.606 1879.46)
(3033.49 -218.919 -1440.24 3923.11 300.733 5525.53)
(5217.36 327.38 2160.47 5546.36 359.61 5245.29)
(1522.3 430.268 -515.445 2111.15 16.4781 1926.46)
(1140.65 402.555 482.509 1135.25 262.448 1116.76)
(446.518 298.14 -379.176 736.035 -43.0304 579.803)
(346.705 65.2236 -6.29831 344.381 -33.5649 631.017)
(66.3875 -1.33803 15.7206 72.5662 36.8739 162.017)
(332.774 50.1954 10.0158 493.979 -36.3066 779.632)
(23421 -1703.98 15216.7 19227.1 2285.55 12054.2)
(4492.24 -1125.53 -2436.58 6072.1 93.313 7974.18)
(7695.13 -58.1295 3908.66 8646.64 957.347 8554.55)
(1481.51 367.025 -984.058 2765.76 141.715 2439.61)
(1009.39 263.075 818.896 1304.32 272.871 1107.13)
(723.969 219.843 -547.21 1155.22 16.1607 1080.88)
(292.467 3.89978 -5.56089 424.513 1.18631 647.011)
(117.114 -29.4173 -6.15032 166.634 50.2897 420.67)
(348.754 39.9098 0.243399 479.746 -15.4513 828.744)
(560.97 -61.3119 130.929 682.391 120.876 1043.2)
(5204.66 -1728.9 -2852.3 6660.61 -380.785 9472.81)
(9037.39 -809.981 5489.54 10013.5 1533.17 9765.39)
(1656.64 27.1169 -1269.51 3248.6 107.465 3273.52)
(1176 -8.62244 1280.16 1801.56 384.323 1586.13)
(1136.7 105.464 -718.443 1734.36 67.831 1764.44)
(287.958 -33.5814 22.0683 481.058 42.6087 705.309)
(173.224 -97.3683 -81.2005 320.107 106.732 759.63)
(683.192 -36.8458 -6.16142 1048.82 44.4881 1338.11)
(495.347 -67.837 148.8 678.522 137.122 1070.21)
(342.941 112.611 23.0211 833.812 31.6377 1266.18)
(6301.45 -1359.9 4426.37 6629.02 1516.13 7192.75)
(2101.65 -421.003 -1408.96 3808.32 -131.232 4703.89)
(1682.08 -419.86 1740.11 2417.32 457.679 2258.09)
(1289.25 -48.0402 -740.372 2030.61 101.964 2140.2)
(235.076 -178.076 139.703 589.798 111.755 795.84)
(583.037 -239.668 -226.991 947.298 225.022 1283.91)
(553.473 -29.13 -21.9144 895.191 73.8695 1131.23)
(638.34 -117.745 132.16 1066.7 244.048 1401.84)
(382.764 -13.8537 44.1186 964.511 106.461 1223.36)
(696.005 120.487 270.245 1315.22 298.953 1372.57)
)
;

boundaryField
{
    inlet
    {
        type            calculated;
        value           nonuniform 0();
    }
    outlet
    {
        type            calculated;
        value           nonuniform 0();
    }
    bottom
    {
        type            calculated;
        value           nonuniform List<symmTensor> 
40
(
(-1.82823 -1.69245 0.58827 0.00832364 -0.540101 16.2404)
(-1.38045 -0.758122 -4.48278 0.261505 -2.55965 -0.0445693)
(-0.354383 -0.0350456 -5.18397 -1.65619 0.108403 0.236175)
(1.06241 -0.0950619 -2.72433 -1.58906 -1.54416 2.12503)
(-3.66627 -0.0521045 -9.64137 0.5072 -0.359114 -0.714504)
(1.22195 -0.0857725 -2.24572 -0.20778 0.757819 -0.966451)
(1.23451 -1.0833 -1.46823 -1.71277 -0.0843118 1.16469)
(0.489288 0.785708 -2.70735 -1.04105 -2.09673 0.29851)
(2.17733 -0.262688 -1.65702 0.204889 -0.327487 -0.615123)
(0.986274 -1.59273 -0.454414 -1.26463 0.770103 -0.471)
(1.08993 0.366896 -2.07156 -0.691839 -1.82722 2.18949)
(1.60816 -1.91594 1.13856 -1.05705 -0.426952 -0.332188)
(0.910301 -0.841897 -0.745872 -0.909261 0.393955 -0.416376)
(0.825734 -0.286714 -1.3382 0.224259 -1.64158 2.37935)
(1.89085 -1.98283 1.92267 -2.20235 1.33929 -0.076571)
(0.603448 -1.41781 -1.33515 -2.04841 -4.76463 8.04798)
(1.13831 -0.684978 -1.32744 0.00692297 -1.14127 1.36601)
(1.62766 -1.85845 2.36234 -2.83145 1.776 -0.169687)
(0.213822 -2.08036 -1.32705 -1.85139 -5.0436 10.917)
(-1.20734 2.02283 -5.53163 2.34206 -4.89293 -1.87165)
(1.64293 0.805481 -2.01894 -2.68915 1.28984 -0.716662)
(0.23284 -1.67773 -1.38979 -1.13831 -4.7785 11.4768)
(-0.937274 3.21779 -7.0184 2.45148 -4.90072 -2.41102)
(0.375369 0.311534 -1.1583 0.200556 -0.967942 -1.8209)
(1.3943 0.592484 -0.254254 -1.13753 -0.733607 -1.61414)
(1.60132 4.57661 -7.62458 0.0785193 -2.21307 -2.54058)
(1.88946 0.315194 -0.682709 -0.0696677 0.126904 -3.04222)
(3.79235 0.927076 -2.78893 -1.3412 -1.87855 -1.08253)
(1.81411 2.78373 -1.56902 1.55663 -0.192252 -0.901047)
(2.42963 0.499479 0.502917 -1.666 1.5266 -4.75682)
(5.66196 1.32795 -1.75028 -1.51772 -1.87055 -1.67013)
(2.1201 -0.292828 4.15337 -0.556244 0.0602949 -5.41954)
(0.918354 -1.00222 -0.0707146 -0.634353 2.56901 -5.64807)
(4.61014 1.11115 -0.443334 -1.19006 -1.381 -2.68177)
(1.63018 0.715206 7.6807 -0.614345 3.2752 -6.78343)
(1.7297 0.173846 -0.253097 -0.980052 -1.56035 7.06023)
(4.25776 1.17178 0.261444 -0.641282 -1.2955 -3.46113)
(1.30184 1.30716 9.7662 0.235207 5.1849 -6.83364)
(0.964462 -0.330005 0.724532 -0.999472 -0.469622 11.1325)
(0.356757 0.953017 2.31654 -0.0267417 -0.347973 -5.99126)
)
;
    }
    top
    {
        type            symmetryPlane;
    }
    side1
    {
        type            symmetryPlane;
    }
    side2
    {
        type            symmetryPlane;
    }
    procBoundary9to1
    {
        type            processor;
        value           nonuniform List<symmTensor> 
50
(
(-9.66508 36.2049 -160.172 -68.706 652.365 -63.2092)
(76.6255 -182.726 -76.628 -16.8761 -29.0666 -39.0457)
(11.3868 -70.0341 -102.902 11.2735 -47.8514 -29.5784)
(28.4195 -75.3763 -134.484 -0.506466 -79.2283 -22.9688)
(152.169 -103.613 -30.6494 -102.133 -3.25349 -91.9159)
(376.568 -104.814 -85.8269 -182.235 -138.292 -70.8303)
(258.843 287.973 -575.152 1.7006 -249.444 -281.812)
(213.386 49.0211 -119.632 30.7532 22.2845 -251.291)
(425.37 814.462 -307.82 525.13 -196.053 -481.413)
(22.5897 10.2264 -104.851 -33.4253 31.3376 -223.588)
(-39.27 -109.45 -63.2881 145.127 -9.32444 50.5773)
(33.0057 -59.461 -14.3601 -4.02453 17.2364 -65.0288)
(139.181 -117.069 61.0999 -58.1587 -70.1531 -19.891)
(53.7711 -10.2936 -35.8107 -33.0592 -55.5686 -56.3724)
(177.311 -26.6997 -135.959 -117.224 -101.032 118.667)
(236.922 -23.4678 -202.502 -350.259 -94.5498 -255.246)
(184.898 149.078 -72.8661 -32.8132 4.70091 -59.0676)
(326.249 631.38 -406.996 -188.441 -174.142 -109.284)
(-39.6988 -26.2301 -32.3534 34.3194 -27.2896 -12.0761)
(12.9921 15.9567 -33.5277 182.486 -321.996 102.312)
(59.9203 -166.996 -177.772 -62.938 90.1673 -883.907)
(245.265 -261.413 -123.734 -90.5842 141.417 725.979)
(20.2272 -19.6191 -60.4924 -78.3905 -148.737 -210.991)
(86.9961 -121.881 350.001 -206.785 -49.7945 290.093)
(168.393 19.6403 88.1898 -153.288 -30.5302 -93.3948)
(228.382 84.1487 -271.908 -128.242 -96.304 209.687)
(-20.8391 146.83 -97.2092 -63.2451 -37.5053 8.86587)
(-124.654 21.4968 -99.7686 -146.651 -197.268 367.86)
(-8.39282 -12.0682 -1.50696 -50.7105 -43.3194 46.7097)
(-26.5592 42.2604 -77.972 -184.434 -80.7789 235.519)
(-1065.15 -1629.42 -4668.69 1399.45 3306.91 3986.15)
(225.411 -393.856 2933.84 -108.508 -57.4366 -1857.39)
(449.688 40.9139 -404.83 -200.87 322.289 1402.78)
(-38.44 233.947 190.144 28.4977 -140.531 -431.903)
(90.3283 106.929 11.7607 -207.485 61.3761 425.251)
(88.6992 104.015 175.511 -118.997 44.4329 -130.721)
(-57.3126 198.024 75.2366 -110.52 -56.9735 295.634)
(-64.0492 54.1785 68.1289 -116.352 -8.54393 78.7932)
(-0.865303 42.2944 -12.2674 -68.6157 6.90212 30.5992)
(46.2614 3.87747 107.972 -162.288 5.95375 46.4021)
(-4248.13 -4503.94 23675 -338.488 -2622.56 1149.99)
(-1022.62 -437.817 -2763.15 -58.0197 1609.51 2716.34)
(54.3184 618.282 2150.78 -165.619 -592.717 -875.986)
(-232.784 311.629 -618.652 -190.63 624.039 985.303)
(221.45 341.275 680.25 -100.22 6.06204 -165.231)
(2.67795 433.912 -408.496 62.7648 28.0533 200.106)
(352.199 342.747 607.206 -245.577 72.938 -6.01716)
(33.4566 266.865 -386.03 -6.76275 70.3125 -89.0976)
(-32.2721 50.5687 1.53442 -54.5647 -81.2587 184.396)
(-20.0978 0.189128 27.6199 -11.647 34.3921 16.8275)
)
;
    }
    procBoundary9to8
    {
        type            processor;
        value           nonuniform List<symmTensor> 
20
(
(1178.16 -739.86 3288.39 -261.706 761.903 -42.5616)
(-980.18 -129.522 -1260.36 -364.693 495.114 1055.38)
(-336.704 -181.398 -633.751 -180.897 -75.7016 734.704)
(-571.49 14.2591 -1147.01 -650.202 -638.774 1092.71)
(-534.817 148.059 -859.771 -141.697 902.017 1565.06)
(-118.531 -296.195 -800.766 90.7538 396.119 -732.149)
(-2663.02 -680.552 -1142.23 -184.605 343.688 1878.73)
(624.97 -680.865 -1320.63 77.3308 -47.1218 -92.8664)
(109.955 -121.286 -1730.69 -37.0741 -513.169 -3528.72)
(-4331.14 -2664.37 -5929.68 1485.37 1646.11 3350.75)
(7894.58 -2729.17 1017.42 3320.24 1947.03 -4661.85)
(403.838 95.4647 141.303 -563.096 -496.449 -144.27)
(-4090.87 -6508.76 -15981.2 2100.22 1919.77 4308.16)
(10926.2 -7326.83 40002 1416.42 16994.1 -20062.3)
(1148.26 -1551.14 -2425.98 -1667.54 -2435.47 -48.4822)
(10390.4 -1565.1 -3993.87 860.197 -2649.72 -10295.7)
(-1003.21 -7730.14 41592.7 -1296.68 7706.25 5948.73)
(-4943.59 -5857.38 -10211.2 -1426.8 -2658.46 4638.62)
(6564.77 -2277.02 14646.6 383.904 5449.02 -6276.6)
(-1409.78 -1589.69 -2244.93 -847.89 -702.866 2974.35)
)
;
    }
    procBoundary9to10
    {
        type            processor;
        value           nonuniform List<symmTensor> 
20
(
(120.608 305.598 1187.78 114.047 599.419 -405.018)
(529.767 -195.429 535.42 -856.195 355.017 1358.33)
(-468.945 665.714 1154.79 -440.355 -1123.44 288.287)
(-337.617 -28.4071 527.075 39.4202 454.785 365.287)
(1908.52 1101.11 -1070.05 -59.0364 -786.784 423.791)
(40.7719 122.043 419.188 45.8561 150.719 -340.785)
(220.651 564.178 343.675 9.55519 198.813 384.956)
(459.219 758.377 -131.226 108.211 -853.773 -956.356)
(-63.7587 -6.89852 -8.38162 -79.7396 7.13168 50.9233)
(638.18 643.658 -277.558 117.529 -205.212 301.534)
(25.0957 89.2834 199.114 29.2522 56.8337 -187.15)
(-40.4572 542.867 441.164 108.003 130.511 152.7)
(10.5697 132.257 21.6881 7.11392 -13.3364 34.5433)
(-45.8982 1.52457 24.5363 -11.6339 17.2515 11.86)
(-106.23 492.238 96.0173 135.872 168.176 225.811)
(-123.181 200.822 223.631 150.67 161.001 -80.5007)
(-104.943 -28.2465 70.66 -50.5496 70.5038 157.929)
(-336.457 85.0018 1.61927 -19.8826 -65.2521 393.496)
(-391.589 24.3815 264.004 143.17 294.933 312.646)
(-266.34 88.4426 95.8578 60.7307 44.0728 135)
)
;
    }
    procBoundary9to17
    {
        type            processor;
        value           nonuniform List<symmTensor> 
50
(
(-72.0543 233.703 -457.128 -95.1368 -382.56 269.665)
(334.855 -156.619 201.18 -192.742 -248.863 -183.515)
(62.3064 -29.9379 -127.613 -150.44 -162.346 88.0784)
(-240.553 240.292 -658.428 571.857 -734.892 -297.329)
(0.808927 49.9537 -26.8196 83.9333 -71.6376 -104.999)
(153.397 12.953 -176.869 -3.8178 -157.394 -169.423)
(135.556 -91.9789 -104.094 53.0937 -154.798 -247.724)
(854.836 275.325 -503.878 -338.977 -123.538 -407.171)
(316.481 345.135 694.97 103.244 -653.155 -541.894)
(4.40211 86.9492 223.431 -245.235 117.231 -13.5108)
(448.784 -282.283 -88.8178 -255.057 205.779 -425.507)
(68.961 42.2499 -298.28 -15.0267 -171.132 111.517)
(209.04 -29.8551 6.644 -4.4782 26.4333 -307.786)
(38.807 -17.9937 15.8867 2.29239 74.5737 21.3541)
(5.46195 2.62393 53.517 92.5609 -12.6784 -120.383)
(40.6588 -22.1166 32.4382 -26.1773 40.0438 -28.779)
(140.22 -42.3342 1.34953 3.29924 51.8541 -109.746)
(3.5326 -16.7007 48.7353 9.97927 39.7842 -30.544)
(261.996 203.497 -19.9516 -177.761 24.2616 40.9505)
(297.058 269.74 453.292 80.1363 -377.631 -462.486)
(132.945 -34.7349 -353.717 29.0289 -403.631 -278.326)
(161.105 -565.016 756.2 92.9762 215.286 -343.959)
(-99.2811 -87.2218 5.18752 59.4733 -25.665 30.3714)
(-98.7492 -122.852 431.369 326.196 118.389 -141.91)
(-38.922 -10.4943 24.345 15.0415 19.558 9.43682)
(-82.8122 -17.1928 131.61 100.854 58.1848 0.056926)
(-22.1347 9.44209 15.0646 6.14332 22.0705 -4.38711)
(5.76034 25.5903 74.2008 20.0632 70.9839 39.0132)
(-26.8341 -14.3344 80.5871 19.5924 23.2366 -17.3213)
(47.5507 531.847 354.451 -51.0684 126.687 187.748)
(-364.833 -1011.77 2471.09 55.3423 955.607 -684.339)
(-806.741 -399.155 -11.1651 513.016 -116.85 492.132)
(-635.265 -446.129 827.172 447.218 545.731 -55.8631)
(-501.405 -205.13 -69.0094 345.202 107.275 283.752)
(-387.419 -117.922 244.439 182.287 214.928 138.279)
(-248.081 -39.3829 -13.9585 100.294 124.102 103.892)
(-216.287 -68.8356 80.9407 120.997 162.161 143.71)
(-125.364 -27.188 76.9204 8.63836 50.6728 54.2165)
(-230.827 117.489 114.042 115.621 169.755 174.584)
(-170.138 89.8387 248.254 80.1861 108.536 25.6743)
(-1325.85 -708.117 -1438.93 122.694 -409.319 1924.39)
(-384.068 -656.717 1662.11 -6.27424 462.061 138.27)
(-540.229 -147.031 -636.916 308.695 -19.1128 679.136)
(-397.086 -357.054 383.489 74.2564 166.201 199.834)
(-254.646 -221.915 -208.932 159.793 205.198 291.825)
(-309.184 -118.538 45.0351 64.0645 89.8123 190.804)
(-382.756 -160.408 -1.79769 250.789 272.129 297.532)
(-313.843 -40.0108 -3.78775 34.9174 93.5287 223.356)
(-413.019 78.1941 144.834 373.73 270.363 260.02)
(-182.544 39.2269 20.2544 29.2753 27.6586 111.372)
)
;
    }
}


// ************************************************************************* //
