/*--------------------------------*- C++ -*----------------------------------*\
| =========                 |                                                 |
| \\      /  F ield         | OpenFOAM: The Open Source CFD Toolbox           |
|  \\    /   O peration     | Version:  2.4.0                                 |
|   \\  /    A nd           | Web:      www.OpenFOAM.org                      |
|    \\/     M anipulation  |                                                 |
\*---------------------------------------------------------------------------*/
FoamFile
{
    version     2.0;
    format      ascii;
    class       surfaceScalarField;
    location    "0.05";
    object      phia;
}
// * * * * * * * * * * * * * * * * * * * * * * * * * * * * * * * * * * * * * //

dimensions      [0 3 -1 0 0 0 0];

internalField   nonuniform List<scalar> 
490
(
-3.15594e-05
-7.34256e-06
1.37324e-05
-3.20211e-05
-1.31644e-05
1.23915e-05
-3.20211e-05
-1.57997e-05
1.13102e-05
-3.13342e-05
-9.31331e-06
4.6789e-06
-2.3319e-05
7.27554e-06
-4.1214e-06
-1.62573e-05
2.81754e-05
1.32822e-06
-1.66194e-05
2.85583e-05
1.51196e-06
-1.67146e-05
2.86744e-05
1.28195e-05
-1.6714e-05
2.8674e-05
1.56348e-05
2.86725e-05
1.56353e-05
-1.0889e-05
5.95434e-07
1.5876e-05
-2.68669e-05
-6.85145e-06
1.31414e-05
-3.00204e-05
-9.46615e-06
9.89317e-06
-2.05918e-05
-2.37979e-06
6.47508e-07
-1.41923e-05
1.70051e-05
5.95258e-07
-1.57808e-05
1.74815e-05
1.14446e-06
-1.65247e-05
1.77903e-05
1.44413e-06
-1.67147e-05
2.82737e-05
1.09402e-05
-1.67142e-05
2.86738e-05
1.56341e-05
2.86725e-05
1.56356e-05
-2.92058e-05
-4.68885e-06
1.59473e-05
-6.20688e-05
-3.14564e-06
-9.99972e-07
-6.19185e-05
-3.11682e-06
-5.74798e-06
-1.08691e-05
-2.51646e-06
-6.73543e-06
3.65241e-05
1.89912e-06
-1.25261e-05
3.6513e-05
6.62524e-06
-1.25232e-05
1.07804e-05
7.01558e-06
-1.24161e-05
-1.57312e-05
2.75006e-05
1.01708e-06
-1.67137e-05
2.86732e-05
6.23963e-06
2.8672e-05
1.56233e-05
-3.19822e-05
-6.84493e-06
-7.04669e-05
-5.6785e-06
-7.05733e-05
-5.67549e-06
-7.01344e-05
-5.67552e-06
-1.91992e-05
-5.75394e-06
3.39124e-05
-1.22857e-05
1.18026e-05
-1.24742e-05
-1.48175e-05
5.35807e-07
-1.6713e-05
4.35756e-06
1.56051e-05
-4.82107e-06
6.5592e-07
1.58778e-05
-2.07779e-05
-1.86994e-06
1.37195e-05
-2.28564e-05
-7.89615e-06
7.03368e-06
3.0207e-06
-3.84898e-06
-1.20316e-05
2.83135e-05
3.65911e-06
-2.04138e-05
3.68045e-05
6.81917e-06
-1.25928e-05
1.5392e-05
6.85104e-06
-1.25425e-05
-1.13574e-05
2.2853e-05
-1.28456e-06
-1.67111e-05
2.86709e-05
2.53176e-06
2.8672e-05
1.55372e-05
-2.65486e-08
6.56339e-07
1.55889e-05
-5.04806e-06
-5.93118e-07
1.37248e-05
-1.27471e-05
-1.25075e-06
9.88846e-06
1.07051e-05
3.96405e-07
-1.08334e-05
3.68629e-05
6.80683e-06
-1.25694e-05
3.68742e-05
6.82131e-06
-1.25688e-05
1.89986e-05
6.82774e-06
-1.25605e-05
-7.78355e-06
1.41094e-05
-3.16421e-06
-1.67097e-05
2.13919e-05
2.04865e-06
2.86627e-05
1.54795e-05
-2.34156e-05
-1.16514e-06
1.58704e-05
-5.53385e-05
-2.4295e-06
6.80091e-06
-5.69507e-05
-2.78768e-06
-9.28339e-06
-6.64635e-06
-2.14453e-06
-9.78458e-06
3.67956e-05
1.92447e-06
-1.25656e-05
3.69043e-05
6.70085e-06
-1.25725e-05
3.69e-05
6.81834e-06
-1.25725e-05
2.79512e-05
6.82123e-06
-1.25703e-05
1.16959e-06
1.26556e-05
-7.86457e-06
2.8639e-05
1.6197e-06
-6.95857e-05
5.46522e-06
-7.05732e-05
-9.20299e-07
-7.05732e-05
-6.10655e-06
-6.97882e-05
-6.85193e-06
-1.73241e-05
-9.1712e-06
3.56292e-05
-1.24908e-05
3.69008e-05
-1.25725e-05
3.15293e-05
-1.25711e-05
4.78057e-06
-9.74633e-06
1.5516e-06
-2.36183e-08
6.45657e-07
1.55889e-05
1.8306e-06
5.6837e-07
1.37229e-05
8.92154e-06
2.40406e-07
2.61889e-06
1.53282e-05
2.59914e-06
-2.24462e-05
2.66553e-05
3.04296e-06
-2.19768e-05
3.68593e-05
6.80174e-06
-1.76908e-05
3.69034e-05
6.81839e-06
-1.34049e-05
3.50001e-05
6.81886e-06
-1.29156e-05
8.37811e-06
7.99636e-06
-1.14241e-05
2.8475e-05
1.51728e-05
-2.34035e-08
6.4567e-07
1.52091e-05
4.64707e-07
6.55762e-07
1.31467e-05
1.8848e-05
3.72561e-06
1.12498e-05
3.68237e-05
6.8038e-06
-2.27961e-06
3.69034e-05
6.81805e-06
-1.68533e-05
3.69043e-05
6.8184e-06
-1.25931e-05
3.6904e-05
6.8184e-06
-1.25726e-05
3.59174e-05
6.81853e-06
-1.25723e-05
9.40518e-06
7.22056e-06
-1.18762e-05
1.77021e-05
1.4912e-05
4.91944e-07
6.57077e-07
1.55889e-05
1.88673e-05
-1.24055e-07
1.33539e-05
3.68117e-05
2.47177e-06
-3.07944e-07
3.69012e-05
3.55258e-06
-1.22681e-05
3.69043e-05
6.81381e-06
-1.25732e-05
3.69043e-05
6.8184e-06
-1.25725e-05
3.69043e-05
6.8184e-06
-1.25725e-05
3.69042e-05
6.8184e-06
-1.25725e-05
3.67134e-05
6.81845e-06
-1.25725e-05
6.93522e-06
-1.24385e-05
-1.65654e-05
1.58746e-05
-4.5059e-05
8.90667e-06
-4.54723e-05
2.6501e-06
1.44795e-06
-8.61522e-06
3.68545e-05
-1.25677e-05
3.69043e-05
-1.25725e-05
3.69043e-05
-1.25725e-05
3.69043e-05
-1.25725e-05
3.68085e-05
-1.25725e-05
-1.25053e-05
-2.3043e-08
6.29926e-07
1.55595e-05
1.69167e-06
5.44413e-07
1.36937e-05
7.96544e-06
1.12032e-07
2.68484e-06
1.25299e-05
-9.56803e-07
-2.27421e-05
1.25782e-05
-1.5148e-06
-2.27668e-05
2.27822e-05
2.30868e-06
-2.26894e-05
3.41044e-05
6.08529e-06
-1.50048e-05
3.49919e-05
6.51593e-06
-1.36675e-05
9.67982e-06
7.04955e-06
-1.27071e-05
2.79491e-05
1.43669e-05
-2.25808e-08
6.29926e-07
1.51835e-05
-1.94093e-08
5.44506e-07
1.31213e-05
4.22083e-07
4.92261e-07
1.1547e-05
8.50199e-06
3.46492e-06
8.29817e-06
2.64738e-05
2.99277e-06
-2.13778e-05
3.6855e-05
6.8002e-06
-1.26224e-05
3.69041e-05
6.81838e-06
-1.25571e-05
3.65671e-05
6.81845e-06
-1.25552e-05
1.08366e-05
6.9558e-06
-1.22873e-05
1.73315e-05
1.37468e-05
-2.3453e-08
6.45657e-07
1.55595e-05
5.51126e-08
5.6847e-07
1.36964e-05
1.80265e-05
4.98243e-07
1.21488e-05
3.6411e-05
4.42077e-06
-1.15845e-05
3.69027e-05
6.81513e-06
-1.25573e-05
3.69043e-05
6.8184e-06
-1.2557e-05
3.69043e-05
6.8184e-06
-1.25587e-05
3.69043e-05
6.8184e-06
-1.2557e-05
3.68404e-05
6.81842e-06
-1.25553e-05
6.8575e-06
-1.25032e-05
-2.44428e-08
1.58452e-05
-8.33786e-07
1.41484e-05
-7.30923e-06
1.22654e-05
1.1937e-05
-9.45336e-06
3.68762e-05
-1.25509e-05
3.69043e-05
-1.25553e-05
3.69043e-05
-1.2557e-05
3.69043e-05
-1.25553e-05
3.68723e-05
-1.25536e-05
-1.25266e-05
-2.36266e-08
6.45678e-07
1.69108e-06
5.68406e-07
7.96432e-06
1.3694e-07
1.25289e-05
-9.46537e-07
1.24723e-05
-1.78787e-06
2.06643e-05
2.29207e-06
3.09814e-05
5.36911e-06
3.34975e-05
6.12426e-06
1.02232e-05
6.59315e-06
2.69615e-05
-2.34632e-08
6.45678e-07
-2.05421e-08
5.6852e-07
3.89501e-07
5.14774e-07
7.71843e-06
3.37881e-06
2.56585e-05
2.71897e-06
3.67913e-05
6.77691e-06
3.69041e-05
6.81836e-06
3.67346e-05
6.81841e-06
1.24183e-05
6.88748e-06
1.67419e-05
-2.41326e-08
6.57659e-07
2.01891e-08
5.87393e-07
1.74369e-05
5.35889e-07
3.58539e-05
4.89594e-06
3.69007e-05
6.81493e-06
3.69043e-05
6.8184e-06
3.69043e-05
6.8184e-06
3.69043e-05
6.8184e-06
3.68723e-05
6.81841e-06
6.83796e-06
-2.47889e-08
-2.63736e-07
-3.378e-07
1.83451e-05
3.68831e-05
3.69043e-05
3.69043e-05
3.69043e-05
3.68883e-05
)
;

boundaryField
{
    inlet
    {
        type            calculated;
        value           nonuniform 0();
    }
    outlet
    {
        type            calculated;
        value           nonuniform 0();
    }
    bottom
    {
        type            calculated;
        value           uniform 0;
    }
    top
    {
        type            symmetryPlane;
        value           uniform 0;
    }
    side1
    {
        type            symmetryPlane;
        value           nonuniform 0();
    }
    side2
    {
        type            symmetryPlane;
        value           nonuniform 0();
    }
    procBoundary9to1
    {
        type            processor;
        value           nonuniform List<scalar> 
50
(
1.55687e-05
1.58063e-05
1.58064e-05
1.58061e-05
1.42103e-05
-6.5421e-06
-2.83529e-05
-2.86742e-05
-2.86737e-05
-2.8672e-05
6.84142e-06
1.00612e-05
1.5787e-05
1.08375e-05
8.61405e-07
-2.34278e-06
-6.47632e-06
-2.48617e-05
-2.86715e-05
-2.86715e-05
-6.56322e-07
6.1642e-07
1.27132e-06
1.89479e-06
1.46484e-06
-2.31176e-06
-6.13787e-06
-6.54066e-06
-8.5409e-06
-2.85315e-05
-6.44902e-07
4.41347e-07
1.21862e-06
2.19723e-06
2.19793e-06
2.18129e-06
-1.57748e-06
-2.00888e-06
-2.40688e-06
-1.36971e-05
-6.5674e-07
4.28776e-07
1.20943e-06
2.19703e-06
2.19787e-06
2.14685e-06
-9.11828e-07
-1.68654e-06
-2.1034e-06
-1.27591e-05
)
;
    }
    procBoundary9to8
    {
        type            processor;
        value           nonuniform List<scalar> 
20
(
1.59029e-05
4.4089e-08
-5.07579e-08
-1.29372e-05
3.09783e-08
2.74275e-08
5.25462e-08
3.48603e-05
2.74266e-08
2.71627e-08
2.7349e-08
3.89284e-08
2.71626e-08
2.68105e-08
2.71627e-08
2.74269e-08
2.74269e-08
2.71631e-08
2.74271e-08
2.76326e-08
)
;
    }
    procBoundary9to10
    {
        type            processor;
        value           nonuniform List<scalar> 
20
(
-1.5507e-05
-1.5306e-05
-1.5507e-05
-1.56576e-05
-1.56574e-05
-1.55067e-05
-1.56278e-05
-1.57008e-05
-1.55336e-05
-1.52715e-05
3.59926e-05
3.64415e-05
-1.49906e-05
-1.43693e-05
3.65947e-05
3.67485e-05
-1.38645e-05
-1.26013e-05
3.67486e-05
3.68261e-05
)
;
    }
    procBoundary9to17
    {
        type            processor;
        value           nonuniform List<scalar> 
50
(
-1.01181e-05
-3.11746e-06
-3.09425e-06
-3.09422e-06
-3.05365e-06
1.63328e-06
4.27781e-06
2.63175e-05
2.86724e-05
2.86715e-05
-3.04341e-06
-3.09423e-06
-3.09424e-06
-3.09421e-06
-3.02183e-06
1.74912e-06
5.12755e-06
6.19676e-06
1.0237e-05
2.86032e-05
-1.10637e-06
-2.04789e-06
-2.47035e-06
-1.4034e-06
1.97503e-06
6.74598e-06
6.81836e-06
6.81839e-06
6.81843e-06
6.88351e-06
6.57366e-07
7.96361e-09
-1.30802e-06
-4.49657e-07
2.11324e-06
6.77792e-06
6.81837e-06
6.81839e-06
6.81841e-06
6.84015e-06
6.67051e-07
4.04632e-07
-1.27325e-06
1.21865e-07
2.26512e-06
6.78867e-06
6.81838e-06
6.81839e-06
6.8184e-06
6.82927e-06
)
;
    }
}


// ************************************************************************* //
