/*--------------------------------*- C++ -*----------------------------------*\
| =========                 |                                                 |
| \\      /  F ield         | OpenFOAM: The Open Source CFD Toolbox           |
|  \\    /   O peration     | Version:  2.4.0                                 |
|   \\  /    A nd           | Web:      www.OpenFOAM.org                      |
|    \\/     M anipulation  |                                                 |
\*---------------------------------------------------------------------------*/
FoamFile
{
    version     2.0;
    format      ascii;
    class       volVectorField;
    location    "0.05";
    object      Ua;
}
// * * * * * * * * * * * * * * * * * * * * * * * * * * * * * * * * * * * * * //

dimensions      [0 1 -1 0 0 0 0];

internalField   nonuniform List<vector> 
200
(
(-5.80779 3.54463 -26.649)
(-5.81521 3.55478 -26.67)
(-5.8152 3.55478 -26.6699)
(-5.8152 3.55478 -26.6699)
(-5.8152 3.55478 -26.6699)
(-5.81518 3.55478 -26.6699)
(-5.75458 3.5554 -26.2197)
(1.01936 3.06947 21.0228)
(1.24643 3.41518 24.2313)
(1.40448 3.84819 27.3037)
(-5.79621 3.52619 -26.6071)
(-5.81513 3.55473 -26.6702)
(-5.81522 3.55479 -26.67)
(-5.8152 3.55478 -26.6699)
(-5.81517 3.55489 -26.6692)
(-5.6552 3.75616 -24.4382)
(-0.474784 4.29916 16.6504)
(1.06798 2.90758 20.6399)
(1.20129 3.29146 23.3536)
(1.37546 3.76868 26.7396)
(-5.12265 5.20504 -24.7131)
(-5.81979 3.55863 -26.6681)
(-5.81533 3.55559 -26.6667)
(-5.81547 3.55737 -26.6585)
(-6.09316 6.23798 -14.7989)
(-6.61855 11.7103 9.64765)
(-6.47184 11.4798 9.32796)
(1.94052 -2.04957 -10.365)
(1.25753 3.33973 23.7668)
(1.4044 3.84835 27.3033)
(2.6508 26.6487 -4.39819)
(-0.630838 17.9818 -13.1324)
(-5.81121 3.57229 -26.6381)
(-5.81682 3.57032 -26.6013)
(-6.41049 9.37084 -0.898158)
(-6.60108 11.6873 9.62943)
(-6.43751 11.4246 9.23826)
(1.83912 -1.85119 -10.5858)
(-1.10487 8.94118 19.6553)
(-1.29666 10.1877 22.5275)
(4.43482 -10.3073 2.19645)
(-5.33838 2.93108 -25.2772)
(-5.81507 3.55459 -26.6695)
(-5.8152 3.55478 -26.6699)
(-5.81507 3.55491 -26.6672)
(-5.44518 3.96533 -20.8125)
(-0.98428 4.9206 16.0884)
(1.06894 2.90092 20.5976)
(1.20121 3.29122 23.3519)
(1.37541 3.76854 26.7386)
(4.53023 -10.48 2.33489)
(-4.50264 1.82468 -22.8461)
(-5.81503 3.55791 -26.651)
(-5.81605 3.56741 -26.6106)
(-5.91915 8.84177 0.0407555)
(-4.95959 9.58136 10.9688)
(-2.34751 6.40347 13.7437)
(1.00515 2.69751 19.1714)
(1.14314 3.13211 22.223)
(1.33671 3.6625 25.9862)
(2.51149 21.7686 -3.55573)
(-3.28271 14.4757 1.25675)
(-6.65 11.2656 7.22968)
(-6.68671 11.6942 9.17972)
(-6.68209 11.8201 9.83654)
(-6.63857 11.7495 9.72936)
(-6.51031 11.5411 9.41309)
(1.99942 -2.25884 -11.4066)
(1.23609 3.07396 22.0259)
(1.37529 3.76876 26.7378)
(2.61652 26.2922 -4.3507)
(2.66449 26.7856 -4.38982)
(-2.09933 19.2962 2.60708)
(-6.68989 11.8099 9.72165)
(-6.66967 11.8 9.80594)
(-6.62016 11.7196 9.68338)
(-6.47476 11.4837 9.32381)
(1.92477 -2.10465 -11.3456)
(-2.21363 11.1707 15.8229)
(-2.70884 13.2638 19.2031)
(4.42944 -10.2319 2.34302)
(3.93041 -9.07975 2.07695)
(2.05316 -6.30528 -2.63266)
(-5.77968 3.52987 -26.2545)
(-5.06067 5.98993 10.0502)
(-5.72919 8.72256 11.4492)
(-6.47372 11.4787 9.32648)
(1.97201 -2.24586 -11.5966)
(1.42375 2.21349 16.8552)
(1.40445 3.84757 27.2986)
(4.50017 -10.3899 2.37882)
(4.03565 -9.32096 2.14307)
(-5.03918 8.52352 8.27393)
(-6.70105 11.8301 9.7808)
(-6.68217 11.8202 9.83693)
(-6.63878 11.7497 9.72918)
(-6.5111 11.5421 9.41213)
(2.00875 -2.31057 -11.7274)
(1.51697 1.32912 11.3939)
(1.3753 3.76802 26.7316)
(2.51634 20.2791 -3.29974)
(-2.86616 15.1298 4.53915)
(-6.72397 11.8902 9.94156)
(-6.71347 11.8712 9.91459)
(-6.69469 11.8406 9.86793)
(-6.65736 11.7799 9.7752)
(-6.54725 11.6008 9.50167)
(2.04561 -2.37356 -11.8438)
(2.15396 -2.54742 -12.1079)
(-0.611956 5.91833 2.78187)
(2.57781 25.9033 -4.29739)
(2.61836 26.3201 -4.34844)
(-2.07016 19.2141 2.82452)
(-6.70297 11.8576 9.88958)
(-6.6822 11.8203 9.83692)
(-6.6388 11.7498 9.72911)
(-6.51114 11.5423 9.41197)
(1.9929 -2.27067 -11.7157)
(-5.16995 17.1217 4.11864)
(-7.58771 24.0904 8.40815)
(4.33796 -10.0206 2.29268)
(3.78865 -8.75169 2.0014)
(3.35988 -7.76264 1.77773)
(-1.52912 -0.223276 9.53401)
(-5.00678 6.20208 13.1188)
(-5.74473 8.74533 11.4963)
(-6.50996 11.5381 9.41449)
(2.00953 -2.31494 -11.7541)
(2.13715 -2.52232 -12.0701)
(2.12782 -2.13787 -9.38484)
(4.4293 -10.2294 2.33963)
(3.92738 -9.07157 2.07809)
(-3.85765 6.2857 7.6846)
(-6.71296 11.8701 9.91429)
(-6.69466 11.8405 9.86798)
(-6.65735 11.7799 9.77522)
(-6.54725 11.6008 9.50168)
(2.04561 -2.37357 -11.8438)
(2.15571 -2.55257 -12.1169)
(2.16439 -2.37864 -10.7752)
(2.61838 17.2178 -2.74789)
(-2.53654 13.6979 4.43671)
(-6.73154 11.9021 9.96043)
(-6.72289 11.8865 9.938)
(-6.7072 11.861 9.89902)
(-6.67598 11.8102 9.82147)
(-6.58364 11.66 9.59207)
(2.082 -2.43275 -11.9342)
(2.17434 -2.58293 -12.1636)
(2.20549 -2.63348 -12.2409)
(2.53731 25.4962 -4.22928)
(2.57721 25.9049 -4.29589)
(-2.07868 19.0286 2.82869)
(-6.71256 11.8726 9.91321)
(-6.69468 11.8406 9.86793)
(-6.65736 11.7799 9.7752)
(-6.54725 11.6008 9.50168)
(2.04561 -2.37357 -11.8438)
(2.15515 -2.5511 -12.1161)
(0.548833 1.90347 -8.80641)
(4.21609 -9.73906 2.22255)
(3.60584 -8.32941 1.89897)
(3.14813 -7.27211 1.65628)
(2.79191 -6.44943 1.46791)
(1.17382 -3.66279 3.39759)
(-5.72272 8.71147 11.3955)
(-6.47382 11.4788 9.29173)
(1.9737 -2.25668 -11.622)
(2.11866 -2.49234 -11.9754)
(2.15045 -2.41329 -11.1136)
(4.33812 -10.021 2.28506)
(3.78893 -8.75232 1.99386)
(3.36125 -7.76458 1.76774)
(0.270045 -1.65047 3.92221)
(-6.67903 11.8142 9.7938)
(-6.63876 11.7497 9.69316)
(-6.51111 11.5421 9.38109)
(2.00947 -2.31479 -11.7155)
(2.13713 -2.52239 -12.0264)
(2.1712 -2.51249 -11.6362)
(4.42947 -10.2297 2.33091)
(3.93013 -9.077 2.06759)
(-0.983687 0.668596 5.39642)
(-6.7119 11.8681 9.87256)
(-6.69466 11.8406 9.83142)
(-6.65733 11.7799 9.74304)
(-6.54719 11.6008 9.47432)
(2.04555 -2.37348 -11.8097)
(2.15569 -2.55259 -12.0775)
(2.19298 -2.61317 -12.1647)
(2.91693 19.5116 -3.10861)
(2.95837 17.5933 -2.76247)
(-1.05707 14.3041 2.63574)
(-6.70233 11.8563 9.84437)
(-6.68217 11.8203 9.7965)
(-6.63878 11.7497 9.69313)
(-6.51111 11.5421 9.38109)
(2.00947 -2.31479 -11.7155)
(2.13677 -2.52142 -12.0258)
(1.2625 -0.0585472 -10.2611)
)
;

boundaryField
{
    inlet
    {
        type            calculated;
        value           nonuniform 0();
    }
    outlet
    {
        type            calculated;
        value           nonuniform 0();
    }
    bottom
    {
        type            calculated;
        value           uniform (0 0 0);
    }
    top
    {
        type            symmetryPlane;
    }
    side1
    {
        type            symmetryPlane;
    }
    side2
    {
        type            symmetryPlane;
    }
    procBoundary9to1
    {
        type            processor;
        value           nonuniform List<vector> 
50
(
(-5.81523 3.5548 -26.6699)
(-5.81523 3.5548 -26.6699)
(-5.81523 3.5548 -26.6699)
(-5.81523 3.5548 -26.6699)
(-5.81523 3.5548 -26.6699)
(-5.81523 3.5548 -26.6699)
(-5.81523 3.55479 -26.6699)
(-5.79946 3.55395 -26.5586)
(0.858786 3.51674 21.8526)
(1.42706 3.91028 27.7424)
(-5.72215 3.43303 -26.398)
(-5.81519 3.55475 -26.6698)
(-5.81523 3.5548 -26.6699)
(-5.81523 3.5548 -26.6699)
(-5.81512 3.55449 -26.6694)
(-5.68273 3.17501 -25.9497)
(-5.33991 2.47501 -23.8377)
(1.06229 3.0397 21.2622)
(1.24641 3.41509 24.2302)
(1.4045 3.84826 27.3033)
(3.92794 -9.07666 2.06932)
(-1.14123 -2.31116 -12.4067)
(-5.80314 3.52498 -26.611)
(-5.79279 3.49046 -26.5479)
(2.08725 -19.0989 16.2849)
(5.17412 -27.9476 33.0661)
(4.24871 -24.8091 31.1735)
(2.56662 -7.19711 -2.78171)
(1.45364 2.24818 19.7085)
(1.42696 3.90907 27.7394)
(3.7887 -8.7518 2.00138)
(3.36137 -7.76804 1.78141)
(4.18826 -18.6507 19.0641)
(5.15091 -27.8796 32.9343)
(5.17835 -27.9601 33.0863)
(5.17789 -27.9585 33.0855)
(4.25068 -24.8202 31.1947)
(2.55015 -6.87926 -3.61763)
(2.35213 -4.43516 -8.58203)
(2.217 -2.93903 -6.45626)
(3.60582 -8.32934 1.89895)
(3.14813 -7.2721 1.65627)
(2.79218 -6.45026 1.46827)
(2.84734 -8.61856 5.34733)
(5.17429 -27.9291 32.9075)
(5.17756 -27.9574 32.9623)
(4.24991 -24.8126 31.0521)
(2.57101 -7.2293 -2.84726)
(2.35621 -4.58225 -8.19664)
(2.27193 -3.49277 -8.61342)
)
;
    }
    procBoundary9to8
    {
        type            processor;
        value           nonuniform List<vector> 
20
(
(0.69064 -5.5854 -9.07185)
(2.76921 -8.47833 -3.46169)
(2.40394 22.9001 -3.87735)
(2.61076 26.2345 -4.35173)
(5.06993 -11.7114 2.68352)
(5.06804 -11.6908 2.67911)
(2.40397 22.1768 -3.6553)
(2.57806 25.9058 -4.29727)
(5.07006 -11.7117 2.68274)
(5.06895 -11.7006 2.6799)
(2.38318 21.0241 -3.45303)
(2.53723 25.4956 -4.22925)
(5.07015 -11.7119 2.68095)
(5.06965 -11.7075 2.679)
(2.42869 18.817 -3.05575)
(2.48477 24.9684 -4.14181)
(5.07025 -11.7122 2.67548)
(5.07017 -11.712 2.67324)
(5.06974 -11.7075 2.67019)
(2.782 21.9015 -3.54855)
)
;
    }
    procBoundary9to10
    {
        type            processor;
        value           nonuniform List<vector> 
20
(
(1.60759 4.4047 31.2523)
(1.60762 4.40478 31.2528)
(1.60751 4.40487 31.2521)
(-1.46142 11.4785 25.3777)
(1.60762 4.40478 31.2528)
(1.60765 4.40486 31.2534)
(1.6075 4.40503 31.2526)
(-3.10189 15.1862 21.9826)
(1.60753 4.40482 31.252)
(1.6074 4.40522 31.2522)
(-3.55272 15.4499 18.4163)
(-8.87299 28.1707 9.83305)
(1.61157 4.35558 30.9459)
(1.61376 4.32714 30.7644)
(2.03644 -2.11488 -11.6049)
(-9.10493 28.9167 10.0683)
(1.62208 4.22758 30.0894)
(1.63069 4.12043 29.4239)
(2.11642 -2.36827 -11.9137)
(-9.25939 29.4214 10.1816)
)
;
    }
    procBoundary9to17
    {
        type            processor;
        value           nonuniform List<vector> 
50
(
(2.90441 29.1853 -4.84127)
(2.90604 29.2028 -4.84172)
(2.47589 28.0003 -5.93267)
(-5.73082 3.88036 -26.1916)
(-6.44461 11.6051 5.44056)
(-6.46576 13.9469 8.79883)
(-6.62524 17.8496 8.07238)
(-7.37436 23.4383 8.11535)
(-8.27314 26.2669 9.17066)
(-9.32244 29.5982 10.3332)
(2.90438 29.185 -4.84126)
(2.90435 29.1847 -4.84129)
(2.90591 29.2074 -4.84001)
(-0.883909 22.3549 0.920767)
(-6.54046 12.1964 9.44574)
(-6.43601 13.0025 8.99336)
(-6.39503 16.0163 8.08497)
(-6.98877 22.2262 7.65664)
(-7.97358 25.3154 8.83703)
(-9.13012 28.9872 10.1186)
(2.90436 29.1848 -4.84125)
(2.90438 29.185 -4.84126)
(2.90368 29.1838 -4.84017)
(-0.843176 22.3978 0.890356)
(-6.59265 11.9389 9.62342)
(-6.48404 12.2292 9.29445)
(-6.27557 13.8697 8.38709)
(-6.46417 20.5978 6.98634)
(-7.58845 24.0924 8.40911)
(-8.87354 28.1723 9.83326)
(2.90436 29.1848 -4.84126)
(2.90436 29.1848 -4.84125)
(2.90376 29.1837 -4.84033)
(-0.817686 22.472 0.865737)
(-6.68054 11.8233 9.83444)
(-6.63877 11.7497 9.72913)
(-6.51114 11.5422 9.41203)
(2.00366 -2.29891 -11.7415)
(-3.98235 14.3263 0.582544)
(-9.12813 28.9815 10.1133)
(2.90437 29.1846 -4.8233)
(2.90438 29.1845 -4.82127)
(2.90366 29.1829 -4.81816)
(-0.816603 22.4667 0.854212)
(-6.6677 11.8035 9.75899)
(-6.6203 11.7197 9.64348)
(-6.47529 11.4839 9.28869)
(1.9699 -2.24622 -11.6142)
(-2.38386 9.96819 -2.82647)
(-9.31737 29.5837 10.2941)
)
;
    }
}


// ************************************************************************* //
