/*--------------------------------*- C++ -*----------------------------------*\
| =========                 |                                                 |
| \\      /  F ield         | OpenFOAM: The Open Source CFD Toolbox           |
|  \\    /   O peration     | Version:  2.4.0                                 |
|   \\  /    A nd           | Web:      www.OpenFOAM.org                      |
|    \\/     M anipulation  |                                                 |
\*---------------------------------------------------------------------------*/
FoamFile
{
    version     2.0;
    format      ascii;
    class       volScalarField;
    location    "0.16";
    object      p;
}
// * * * * * * * * * * * * * * * * * * * * * * * * * * * * * * * * * * * * * //

dimensions      [1 -1 -2 0 0 0 0];

internalField   nonuniform List<scalar> 
200
(
-4.03127e+32
-4.03262e+32
-4.0375e+32
-4.04318e+32
-4.04583e+32
-4.05436e+32
-4.06249e+32
-4.07595e+32
-4.08084e+32
-4.09723e+32
-4.03425e+32
-4.03834e+32
-4.04408e+32
-4.04658e+32
-4.05504e+32
-4.06394e+32
-4.07133e+32
-4.07705e+32
-4.08736e+32
-4.08711e+32
-4.04029e+32
-4.04306e+32
-4.04712e+32
-4.0566e+32
-4.06615e+32
-4.07433e+32
-4.08146e+32
-4.08811e+32
-4.09528e+32
-4.11543e+32
-4.04187e+32
-4.03798e+32
-4.05192e+32
-4.06344e+32
-4.07804e+32
-4.08732e+32
-4.09247e+32
-4.1058e+32
-4.13497e+32
-4.14354e+32
-4.03181e+32
-4.03515e+32
-4.03726e+32
-4.04392e+32
-4.05254e+32
-4.0588e+32
-4.06837e+32
-4.07057e+32
-4.07595e+32
-4.08223e+32
-4.03671e+32
-4.03982e+32
-4.04455e+32
-4.05418e+32
-4.05945e+32
-4.06664e+32
-4.07029e+32
-4.07215e+32
-4.07675e+32
-4.0869e+32
-4.04193e+32
-4.04179e+32
-4.05433e+32
-4.05953e+32
-4.07387e+32
-4.07944e+32
-4.08065e+32
-4.08775e+32
-4.09698e+32
-4.10423e+32
-4.0371e+32
-4.05414e+32
-4.06562e+32
-4.08289e+32
-4.09132e+32
-4.09281e+32
-4.09772e+32
-4.1092e+32
-4.12685e+32
-4.14118e+32
-4.03474e+32
-4.03729e+32
-4.04034e+32
-4.04297e+32
-4.04836e+32
-4.052e+32
-4.05648e+32
-4.05596e+32
-4.058e+32
-4.07876e+32
-4.03914e+32
-4.04238e+32
-4.0453e+32
-4.04962e+32
-4.05354e+32
-4.05977e+32
-4.0638e+32
-4.07068e+32
-4.07757e+32
-4.08718e+32
-4.04246e+32
-4.04564e+32
-4.04906e+32
-4.05647e+32
-4.06152e+32
-4.06985e+32
-4.07838e+32
-4.08346e+32
-4.09559e+32
-4.10887e+32
-4.04487e+32
-4.04645e+32
-4.05889e+32
-4.06593e+32
-4.07731e+32
-4.08316e+32
-4.08715e+32
-4.10331e+32
-4.12369e+32
-4.14401e+32
-4.0356e+32
-4.03788e+32
-4.04132e+32
-4.04649e+32
-4.05274e+32
-4.06198e+32
-4.07102e+32
-4.08448e+32
-4.09055e+32
-4.10126e+32
-4.03958e+32
-4.04224e+32
-4.04629e+32
-4.05118e+32
-4.05813e+32
-4.06453e+32
-4.07438e+32
-4.08149e+32
-4.09651e+32
-4.10622e+32
-4.0418e+32
-4.04521e+32
-4.05052e+32
-4.0554e+32
-4.06134e+32
-4.06691e+32
-4.07559e+32
-4.0893e+32
-4.10081e+32
-4.12351e+32
-4.04355e+32
-4.04803e+32
-4.05378e+32
-4.06074e+32
-4.06652e+32
-4.07445e+32
-4.08627e+32
-4.10257e+32
-4.13398e+32
-4.16433e+32
-4.03786e+32
-4.04205e+32
-4.04662e+32
-4.05109e+32
-4.05711e+32
-4.06467e+32
-4.07273e+32
-4.0832e+32
-4.09569e+32
-4.10278e+32
-4.04061e+32
-4.04398e+32
-4.04866e+32
-4.05442e+32
-4.06056e+32
-4.07391e+32
-4.0779e+32
-4.08789e+32
-4.09652e+32
-4.11118e+32
-4.04274e+32
-4.04611e+32
-4.05105e+32
-4.05798e+32
-4.06188e+32
-4.07072e+32
-4.08437e+32
-4.09483e+32
-4.11446e+32
-4.13353e+32
-4.04432e+32
-4.04777e+32
-4.05325e+32
-4.05656e+32
-4.06286e+32
-4.06967e+32
-4.08297e+32
-4.11159e+32
-4.1439e+32
-4.18234e+32
)
;

boundaryField
{
    inlet
    {
        type            zeroGradient;
    }
    outlet
    {
        type            fixedValue;
        value           nonuniform 0();
    }
    bottom
    {
        type            zeroGradient;
    }
    top
    {
        type            symmetryPlane;
    }
    side1
    {
        type            symmetryPlane;
    }
    side2
    {
        type            symmetryPlane;
    }
    procBoundary19to11
    {
        type            processor;
        value           nonuniform List<scalar> 
50
(
-4.02822e+32
-4.03043e+32
-4.03148e+32
-4.0378e+32
-4.04357e+32
-4.05116e+32
-4.06281e+32
-4.07293e+32
-4.08657e+32
-4.09604e+32
-4.02803e+32
-4.02964e+32
-4.03331e+32
-4.0364e+32
-4.04363e+32
-4.05073e+32
-4.05717e+32
-4.06832e+32
-4.06624e+32
-4.08387e+32
-4.02944e+32
-4.03076e+32
-4.03338e+32
-4.03751e+32
-4.04223e+32
-4.048e+32
-4.05254e+32
-4.05325e+32
-4.06468e+32
-4.07947e+32
-4.03067e+32
-4.03236e+32
-4.03607e+32
-4.04106e+32
-4.04836e+32
-4.0581e+32
-4.07128e+32
-4.07355e+32
-4.08731e+32
-4.08921e+32
-4.03544e+32
-4.03992e+32
-4.04627e+32
-4.05233e+32
-4.05723e+32
-4.06228e+32
-4.07379e+32
-4.08401e+32
-4.08706e+32
-4.09038e+32
)
;
    }
    procBoundary19to18
    {
        type            processor;
        value           nonuniform List<scalar> 
20
(
-4.02918e+32
-4.0332e+32
-4.03703e+32
-4.04283e+32
-4.0298e+32
-4.03287e+32
-4.03793e+32
-4.04718e+32
-4.0327e+32
-4.0366e+32
-4.03926e+32
-4.04118e+32
-4.03403e+32
-4.03762e+32
-4.03977e+32
-4.04112e+32
-4.03486e+32
-4.03821e+32
-4.04049e+32
-4.04193e+32
)
;
    }
    procBoundary19to20
    {
        type            processor;
        value           nonuniform List<scalar> 
20
(
-4.09731e+32
-4.12994e+32
-4.11993e+32
-4.16186e+32
-4.09937e+32
-4.09359e+32
-4.11822e+32
-4.13894e+32
-4.09418e+32
-4.10336e+32
-4.12026e+32
-4.15524e+32
-4.1097e+32
-4.12157e+32
-4.14105e+32
-4.18987e+32
-4.10903e+32
-4.12375e+32
-4.15479e+32
-4.21609e+32
)
;
    }
    procBoundary19to27
    {
        type            processor;
        value           nonuniform List<scalar> 
50
(
-4.05508e+32
-4.0593e+32
-4.06381e+32
-4.08113e+32
-4.09286e+32
-4.09366e+32
-4.10525e+32
-4.13152e+32
-4.14724e+32
-4.18267e+32
-4.0547e+32
-4.07701e+32
-4.09113e+32
-4.09971e+32
-4.10585e+32
-4.10826e+32
-4.11062e+32
-4.1344e+32
-4.1911e+32
-4.18456e+32
-4.04646e+32
-4.05761e+32
-4.07551e+32
-4.08743e+32
-4.09152e+32
-4.09442e+32
-4.10333e+32
-4.12164e+32
-4.16213e+32
-4.19209e+32
-4.04478e+32
-4.04779e+32
-4.05646e+32
-4.06532e+32
-4.07425e+32
-4.0851e+32
-4.09718e+32
-4.12785e+32
-4.16398e+32
-4.20481e+32
-4.04554e+32
-4.04908e+32
-4.05307e+32
-4.05843e+32
-4.06658e+32
-4.07756e+32
-4.09906e+32
-4.12594e+32
-4.17178e+32
-4.22182e+32
)
;
    }
}


// ************************************************************************* //
