/*--------------------------------*- C++ -*----------------------------------*\
| =========                 |                                                 |
| \\      /  F ield         | OpenFOAM: The Open Source CFD Toolbox           |
|  \\    /   O peration     | Version:  2.4.0                                 |
|   \\  /    A nd           | Web:      www.OpenFOAM.org                      |
|    \\/     M anipulation  |                                                 |
\*---------------------------------------------------------------------------*/
FoamFile
{
    version     2.0;
    format      ascii;
    class       volVectorField;
    location    "0.01";
    object      U;
}
// * * * * * * * * * * * * * * * * * * * * * * * * * * * * * * * * * * * * * //

dimensions      [0 1 -1 0 0 0 0];

internalField   nonuniform List<vector> 
40
(
(-1.54647e+11 -8.28499e+10 2.16829e+11)
(-1.10344e+11 -2.61252e+10 1.34446e+11)
(-6.82424e+10 -6.76997e+09 8.05079e+10)
(-6.76711e+10 -1.14657e+10 5.06899e+10)
(-7.64761e+10 -1.8218e+10 4.46023e+10)
(-4.74617e+11 -3.07325e+11 4.23604e+11)
(-4.11799e+11 -2.04215e+11 4.38206e+11)
(-1.67603e+11 -4.01652e+10 1.33638e+11)
(-1.87941e+11 -1.46473e+10 9.07464e+10)
(-1.53091e+11 1.57671e+09 1.00719e+11)
(-1.39233e+11 -1.0492e+11 2.14727e+11)
(-1.53019e+11 -1.24285e+11 1.62758e+11)
(-1.00276e+11 -7.03445e+10 1.31943e+11)
(-6.17562e+10 -3.07846e+10 8.95044e+10)
(-4.97759e+10 -5.65021e+09 5.31923e+10)
(-1.35794e+11 -1.05918e+11 1.30339e+11)
(-1.3184e+11 -9.43695e+10 1.3445e+11)
(-1.06066e+11 -8.19992e+10 1.98186e+11)
(-6.1528e+10 -3.51869e+10 1.11162e+11)
(-4.5938e+10 -1.13985e+10 5.4349e+10)
(-4.19542e+11 -7.52618e+10 1.34841e+11)
(-2.47053e+11 -6.25578e+10 4.94418e+10)
(-1.92164e+11 -4.99968e+10 3.35602e+10)
(-1.32607e+11 -3.52191e+10 2.66814e+10)
(-1.16548e+11 -2.63193e+10 2.38724e+10)
(-2.319e+11 -1.26719e+11 1.25372e+11)
(-1.75314e+11 -1.1264e+11 8.12241e+10)
(-1.30494e+11 -8.84247e+10 2.3668e+10)
(-1.23944e+11 -5.77717e+10 1.50647e+10)
(-1.0463e+11 -2.09781e+10 4.13739e+10)
(-2.48751e+11 -1.33262e+11 5.23428e+10)
(-2.26917e+11 -1.14514e+11 1.87753e+10)
(-1.71449e+11 -1.27019e+11 3.02848e+10)
(-1.27936e+11 -6.15859e+10 2.8175e+10)
(-1.03732e+11 -3.48966e+10 2.21384e+10)
(-1.77582e+11 -1.26058e+11 3.44154e+10)
(-1.7155e+11 -1.5025e+11 2.79285e+10)
(-1.39713e+11 -1.05185e+11 4.72334e+10)
(-1.30728e+11 -7.90105e+10 4.0685e+10)
(-1.12696e+11 -4.31732e+10 2.13375e+10)
)
;

boundaryField
{
    inlet
    {
        type            calculated;
        value           nonuniform 0();
    }
    outlet
    {
        type            calculated;
        value           nonuniform 0();
    }
    bottom
    {
        type            calculated;
        value           nonuniform 0();
    }
    top
    {
        type            symmetryPlane;
    }
    side1
    {
        type            symmetryPlane;
    }
    side2
    {
        type            symmetryPlane;
    }
    procBoundary84to20
    {
        type            processor;
        value           nonuniform List<vector> 
20
(
(3.81036e+10 3.45803e+10 2.78911e+11)
(1.7893e+10 4.81553e+10 2.4175e+11)
(1.4241e+10 3.83806e+10 9.39843e+10)
(1.10469e+10 3.20925e+10 5.62755e+10)
(1.0667e+10 2.54094e+10 4.90271e+10)
(2.23214e+10 3.36323e+10 2.87771e+11)
(-2.50126e+08 4.0284e+10 3.57189e+11)
(-2.38238e+10 3.48959e+10 2.66586e+11)
(-1.11282e+10 2.42179e+10 1.79712e+11)
(-5.86577e+09 1.87893e+10 1.51295e+11)
(-6.94064e+09 -2.78831e+10 3.31281e+11)
(-3.01666e+10 -3.40835e+10 2.79049e+11)
(-3.78484e+10 -1.21535e+10 2.60622e+11)
(-1.23099e+10 1.10284e+10 1.23709e+11)
(-9.37961e+09 1.18737e+10 8.18206e+10)
(3.80109e+10 2.48589e+10 1.69423e+11)
(3.32095e+10 2.96787e+10 1.98305e+11)
(-2.07685e+09 2.31583e+09 3.26662e+11)
(-1.5189e+09 7.03771e+09 1.66831e+11)
(-8.63577e+09 1.88348e+10 8.92426e+10)
)
;
    }
    procBoundary84to68
    {
        type            processor;
        value           nonuniform List<vector> 10((-2.7574e+11 -4.71991e+10 2.2481e+11) (-2.25307e+11 1.14358e+10 1.65859e+11) (-1.95661e+11 3.00181e+10 1.70061e+11) (-1.3011e+11 5.84937e+09 1.16428e+11) (-1.07897e+11 -3.65779e+09 6.82576e+10) (-2.21973e+11 -1.83787e+10 9.14609e+10) (-1.83242e+11 -1.2611e+10 6.41713e+10) (-1.62928e+11 8.59656e+08 6.17434e+10) (-1.18435e+11 -2.32006e+09 4.86768e+10) (-7.93633e+10 1.69737e+09 2.06355e+10));
    }
    procBoundary84to83
    {
        type            processor;
        value           nonuniform List<vector> 8((-3.42598e+11 -8.11156e+10 2.9093e+11) (-3.76467e+11 -1.10279e+11 2.84116e+11) (-2.82643e+11 -8.63749e+10 3.64295e+11) (-1.46817e+11 -9.18341e+10 1.30986e+11) (-4.41067e+11 -9.65416e+10 1.56598e+11) (-3.38829e+11 -2.05645e+11 1.76752e+11) (-3.09799e+11 -2.00969e+11 9.54747e+10) (-1.63315e+11 -1.06903e+11 3.60134e+10));
    }
    procBoundary84to85
    {
        type            processor;
        value           nonuniform List<vector> 8((-9.16973e+10 -1.71611e+10 7.02731e+10) (-1.32246e+11 -2.01261e+09 9.53742e+10) (-3.72619e+10 -1.98712e+09 4.25776e+10) (-3.89693e+10 -1.19178e+09 4.16861e+10) (-9.02344e+10 -5.80181e+08 3.26043e+10) (-7.66631e+10 -6.82994e+09 4.12647e+10) (-8.62682e+10 -2.16841e+10 1.84895e+10) (-1.16025e+11 -3.7163e+10 1.91164e+10));
    }
    procBoundary84to100
    {
        type            processor;
        value           nonuniform List<vector> 10((-8.89206e+10 -6.39043e+10 7.27777e+10) (-1.0363e+11 -6.787e+10 1.32481e+11) (-9.20869e+10 -4.07488e+10 1.542e+11) (-8.4299e+10 -3.69422e+10 1.38361e+11) (-5.99599e+10 -1.16309e+10 9.09915e+10) (-1.95728e+11 -7.75713e+10 1.41309e+10) (-1.63718e+11 -1.40629e+11 6.59605e+10) (-1.29556e+11 -7.10611e+10 5.27365e+10) (-1.20116e+11 -4.70991e+10 4.15109e+10) (-9.99786e+10 -3.01443e+10 2.8656e+10));
    }
}


// ************************************************************************* //
