/*--------------------------------*- C++ -*----------------------------------*\
| =========                 |                                                 |
| \\      /  F ield         | OpenFOAM: The Open Source CFD Toolbox           |
|  \\    /   O peration     | Version:  2.4.0                                 |
|   \\  /    A nd           | Web:      www.OpenFOAM.org                      |
|    \\/     M anipulation  |                                                 |
\*---------------------------------------------------------------------------*/
FoamFile
{
    version     2.0;
    format      ascii;
    class       volVectorField;
    location    "0.02";
    object      gradp;
}
// * * * * * * * * * * * * * * * * * * * * * * * * * * * * * * * * * * * * * //

dimensions      [1 -2 -2 0 0 0 0];

internalField   nonuniform List<vector> 
200
(
(-20911.6 9164.3 -8739.21)
(-11512.9 7333.52 -9652.03)
(-8530.78 3826.1 -5738.78)
(-2278.85 5943.34 -6671.18)
(-6362.95 4429.59 -3697.03)
(-8332 5766.54 -4371.09)
(-5361.65 3151.69 -5520.78)
(12480.5 5080.04 -8511.11)
(11612.5 -969.961 -12027.4)
(-8105.12 -10698 -13768.1)
(-26545.6 -301.807 -11971.2)
(-19354.3 -1180.02 -6645.22)
(-7927.53 2894.04 -5946.96)
(-4584.19 862.916 -3685.09)
(135.285 2471.45 -4114.27)
(-986.292 1526.5 -4532.45)
(159.679 2920.44 -3798)
(-7266.45 -1263.62 -7699.08)
(-14095.3 -6194.8 -6858.96)
(-1427.52 -6869.48 -4857.42)
(-10256.4 -6593.41 -5609.86)
(-5121.18 627.247 -6377.57)
(-4444.92 1590.04 -5260.41)
(-3124.03 4795.31 -5863.54)
(-5035.78 3648.28 -4831.6)
(-7434.01 1769.37 -5964.77)
(-10941.9 -760.461 -5343.2)
(-5750.02 -5004.25 -2946.04)
(400.801 -2474.59 -2758.65)
(-1230.58 156.063 -3011.72)
(-2112.84 868.772 -5437.75)
(-2987.44 602.232 -5001.63)
(408.595 1935.64 -5610.45)
(-467.704 3028.99 -5535.95)
(-5916.59 3263.81 -5186.74)
(-9803.77 2588.58 -4723.8)
(-13387.6 2078.93 -4786.91)
(-10694.7 1365.74 -2931.6)
(-3774.68 -393.416 -2664.99)
(2002.47 -721.998 -2742.89)
(-288.927 8772.73 -12443.1)
(-1911.48 6008.07 -12549.3)
(1007.94 7458.02 -9319.35)
(4254.74 7475.84 -9172.23)
(997.332 6908.85 -5068.69)
(-14168 6021.94 -3358.07)
(-18609.7 11157.8 168.721)
(-8340.59 4645.43 -398.133)
(-5209.94 1862.65 -3737.38)
(-10351.7 7504.97 -5147.06)
(-2010.98 4705.15 -16303.9)
(-76.6595 4059.12 -11375.5)
(1544.91 3659.43 -11083.5)
(1280.43 2155.14 -10162.9)
(-2576.29 656.138 -9382.23)
(25.763 -1023.38 -6513.27)
(-9973.54 3204.58 -4849.25)
(-17061.5 7640.49 -3716.26)
(-5001.99 8635.14 -1421.49)
(1820.43 10340.8 639.578)
(-237.303 3860.16 -10656)
(-4002.94 3257 -10232.5)
(-2800.02 2128.46 -10613.3)
(-1751.83 1833.93 -9734.11)
(-5359.71 1932.33 -10035.4)
(-9071.13 1463.22 -9262.55)
(-1281.97 -2342.71 -5286.53)
(2520.53 2623.72 -1335.7)
(190.618 4235.76 -604.866)
(-1613.06 3539.31 -492.702)
(-746.925 1144.14 -7889.11)
(-3540.07 2803.74 -7810.29)
(-1301.24 1375.58 -7807.95)
(888.17 3553.13 -8670.1)
(-3317.69 2695.58 -8543.82)
(-8524.32 4574.14 -8007.22)
(-7652.54 2968.98 -6252.62)
(-3904.57 1388.85 -3008.64)
(-3170.82 -243.564 -1276.91)
(-2336.83 -291.865 -717.661)
(-1110.76 3353.88 -9599.93)
(-1516.84 2622.02 -11648.3)
(2275.75 459.164 -16713.3)
(11323.3 -3879.33 -20246.4)
(12242.4 -5205.9 -15546.6)
(8427.72 -1300.21 -2924.59)
(4110.14 -531.794 3102.97)
(-19.0458 810.785 8540.57)
(-3584.05 1391.65 8039.23)
(-1511.81 1603.99 9908.94)
(1316.44 2557.61 -8433.61)
(-2648.97 2526.76 -12146.5)
(-4047.25 823.801 -17047.2)
(859.779 -36.0831 -24242.4)
(11814.3 -5475.27 -28013.5)
(13519.2 -7920.66 -21763.5)
(9110.11 -5807.96 -5979.06)
(3702.39 -2763.73 2178.04)
(-156.64 -1182.78 6804.25)
(-407.859 577.498 6505.77)
(-2389.18 6870.23 -8643.4)
(-4984.45 6331.63 -8970.71)
(-2849.94 6830.86 -12043.7)
(-1274.89 7183.87 -13341.3)
(-3526.79 4989.73 -20238)
(7762.34 -620.949 -23020.7)
(14424 -3005.85 -17477.2)
(9231.32 -3872.06 -1751.31)
(3098.39 -2243.27 2156.94)
(-559.142 -2015.52 4595.09)
(-693.133 5295.75 -5788.56)
(-2727.72 4477.83 -7049.03)
(-2342.79 6424.12 -7401.74)
(-2822.49 4731.4 -10579.5)
(-3795.37 5650.32 -12244.8)
(-2471.91 4597.11 -15280.1)
(2607.88 533.194 -14218.1)
(5227.55 -1310.96 -11163.2)
(3556.44 -1468.69 -656.054)
(614.288 -1081.93 3408.85)
(-13797.3 2743.64 -1198.74)
(-24674.4 160.039 -1564.01)
(-26505.8 -4598.84 -5742.62)
(7988.26 -18513.3 -9242.53)
(56427 -39311.2 -8894.29)
(45510.6 -31598.5 -8569.96)
(18078.8 -7969.39 -2455.76)
(7455.44 -1102.57 -544.853)
(-831.141 2632.97 2466.74)
(409.923 2512.19 1919.66)
(-15594.8 6235.6 3954.48)
(-27640.1 8343.28 4962.66)
(-37161.8 11130.8 6939.92)
(-33811.7 13203.2 1696)
(5356.17 -6850.05 -3390.59)
(70535.9 -33177.2 -1472.04)
(66639.3 -29723.7 -7081.35)
(23845.1 -8826.52 -1777.29)
(8846.75 -776.525 63.7331)
(635.445 1838.6 3156.35)
(-7723.49 8092.23 5269.19)
(-14884 11413 8820.72)
(-16786 17561.2 11637.3)
(-27973.4 23694.5 14135.9)
(-36333.8 27162.2 4049.93)
(-236.616 11836.6 -3608.87)
(66780.2 -15525.2 -2140.08)
(65349.7 -18722.3 -6800.84)
(20499.1 -7700.72 -489.786)
(7829.89 -1415.76 74.0977)
(-4776.13 5711.88 3754.98)
(-8702.23 5878.43 7269.79)
(-12598.8 8802.78 9932.22)
(-14609.6 7972.01 9327.87)
(-18359.6 15484.7 5161.3)
(-14839 16959.1 -1852.41)
(5521.5 8183.47 -10352.7)
(39494.1 -13670.2 -4287.62)
(43459.8 -4744.36 -3946.79)
(19374.4 -2189.84 4277.54)
(-742.09 15131.7 4697.28)
(-16057.3 19630.3 7187.05)
(-22295.5 25119.1 7390.13)
(1237.92 14349.9 8502.78)
(14394.6 529.933 5280.65)
(29031 -2563.82 -4632.36)
(29790.5 -10502.6 130.778)
(15732.9 -4256.46 -972.448)
(4302.4 -175.757 2717.49)
(1128.94 2609.05 631.783)
(7348.56 12906.3 8055.44)
(6904.42 19142.3 12378.9)
(-14500.6 28631.6 18850.6)
(-32197.8 37369.4 19460.5)
(1676.55 15235.5 19354.9)
(1708.79 17.0847 18310.6)
(8133.3 -5302.89 -2153.54)
(26566.6 -12773.3 27.4912)
(15631 -5913.22 -1303.04)
(7766.2 -2375.41 2147.58)
(19173.3 6551.02 8866.47)
(15393.4 10023 13936.5)
(14158.6 11618.5 18328.2)
(-25554.4 19394.9 23606.7)
(-60310 18672.8 19084.1)
(-12045.7 -1229.54 16114.1)
(4209.73 -8239.94 15393.8)
(14512.3 -7888.58 -3439.19)
(25098.2 -8660.11 -492.941)
(17637.6 -221.609 -2001.97)
(17743.9 2873.01 7092.18)
(17039.5 1996.34 11510.2)
(4243.08 3696.06 15136.5)
(-18089.4 -2961.44 16773.2)
(-39572.3 7428.52 14049)
(-52116.6 7407.46 10144.3)
(-5184.8 -12606.9 2399.76)
(25726.3 2710.19 6798.57)
(30965 -6999.9 -1902.66)
(38903.8 5643.58 2893.92)
)
;

boundaryField
{
    inlet
    {
        type            zeroGradient;
    }
    outlet
    {
        type            zeroGradient;
    }
    bottom
    {
        type            zeroGradient;
    }
    top
    {
        type            symmetryPlane;
    }
    side1
    {
        type            symmetryPlane;
    }
    side2
    {
        type            symmetryPlane;
    }
    procBoundary30to22
    {
        type            processor;
        value           nonuniform List<vector> 
50
(
(-11158.4 13159.1 -11726.5)
(-8677.94 12166.4 -5816.81)
(-5147.17 9050.33 -8216.91)
(-5791.15 8036.73 -4642.89)
(488.883 7746.5 -5663.81)
(1569.5 3694.8 -4692.07)
(1532.69 1220.54 -8801.85)
(976.858 -1103.57 -7427.45)
(17460.8 3407.9 -8629.35)
(5807.98 -2384.46 -16234.3)
(6827.68 14497 -12672.4)
(2552.76 10138.3 -8430.85)
(-1390.63 6828.24 -8979.13)
(2378.78 7212.18 -4023.77)
(331.506 6412.37 -3360.05)
(-8472.22 3558.23 -2096.55)
(-7220.52 -2579.53 -2547.07)
(1528.85 -4275.85 -1047.98)
(-10721.1 -3798.22 -2897.5)
(-18643.1 -7058.99 -7049.18)
(2760.98 5949.88 -4665.42)
(3140.46 3690.21 -8491.5)
(8955.46 1087.03 -9511.65)
(12189.9 83.2944 -7999.14)
(6656.01 2855.64 874.067)
(4171.02 3241.09 1749.28)
(4888.12 3445.31 5975.46)
(-144.504 2433.81 5770.54)
(-1743.05 2506.4 6322.8)
(-3201.53 1852.1 9626.26)
(-7111.24 -1276.75 -3406.65)
(-12955.2 -5676.26 -5667.52)
(184.923 -14603.1 -8472.53)
(35613.1 -28904.9 -9697.3)
(31526.5 -21964.7 -6975.48)
(7852.23 -4018.99 -682.279)
(5647.5 -131.4 -849.576)
(2640.34 3223.03 1389.74)
(1617.23 1402.7 1043.36)
(1931.34 1359.99 2528.19)
(164.892 13568.9 312.901)
(-13070.4 10643.4 209.948)
(-3939.83 1987.35 276.901)
(16980.5 -7802.86 -1079.04)
(35504.1 -13430.3 -5545.79)
(23773.9 -12122.4 163.965)
(11518.6 -2910.62 -570.261)
(5912.9 260.88 1998.67)
(1900 3053.64 452.415)
(4951.19 192.447 2087.04)
)
;
    }
    procBoundary30to29
    {
        type            processor;
        value           nonuniform List<vector> 
20
(
(-31207.6 15027.1 -16096.6)
(-26808.6 -6507.65 -14312.3)
(-5172.32 -11589.1 -9508.52)
(-38.7491 -3469.53 -5428.48)
(1815.22 10427.4 -18737)
(-3079.2 4033.31 -20082.4)
(1096.14 2624.97 -12691)
(6649.67 3058.55 -8253.95)
(-2923.21 3344.29 -7426.95)
(4492.97 3165.97 -7901.58)
(2204.19 7336.42 -6631.27)
(4717.5 3629.81 -5789.9)
(-8540.7 4401.81 -1679.22)
(-7839.95 5306.39 3077.62)
(-6141.24 6003.66 2082.43)
(3219.6 4404.75 1508.23)
(5874.14 16038.5 3107.31)
(9218.31 9184.61 5209.08)
(13470.9 4825.39 5531.19)
(14706.5 2711.08 4472.65)
)
;
    }
    procBoundary30to31
    {
        type            processor;
        value           nonuniform List<vector> 
20
(
(-15520 -4587.71 -12729.4)
(1848.9 -2757.53 -5843.98)
(1776.57 -759.594 -2878.18)
(9756.05 1223.11 -4021.03)
(2236.04 12094.4 -1676.97)
(1933.13 13004.5 -1102.85)
(-1244.93 2157.13 -395.043)
(-693.68 -605.45 -1710.72)
(1715.81 2788.49 11402.2)
(-474.417 -706.449 6433.94)
(-1966.86 -1732.19 5107.86)
(-883.103 -881.973 6128.71)
(1924.29 1985.03 3291.97)
(1832.69 2933.46 2618.13)
(5271.58 1668.76 5196.71)
(18490.4 1027.9 8018.67)
(7069.84 1231.75 2942.19)
(4427.17 2341.13 925.321)
(27306.2 6908.68 2571.98)
(27925.3 3633.17 4200.27)
)
;
    }
}


// ************************************************************************* //
