/*--------------------------------*- C++ -*----------------------------------*\
| =========                 |                                                 |
| \\      /  F ield         | OpenFOAM: The Open Source CFD Toolbox           |
|  \\    /   O peration     | Version:  2.4.0                                 |
|   \\  /    A nd           | Web:      www.OpenFOAM.org                      |
|    \\/     M anipulation  |                                                 |
\*---------------------------------------------------------------------------*/
FoamFile
{
    version     2.0;
    format      ascii;
    class       surfaceScalarField;
    location    "0.02";
    object      phia;
}
// * * * * * * * * * * * * * * * * * * * * * * * * * * * * * * * * * * * * * //

dimensions      [0 3 -1 0 0 0 0];

internalField   nonuniform List<scalar> 
490
(
5.81088e-06
2.08085e-06
3.12898e-07
5.82041e-06
2.09678e-06
3.2167e-07
5.83412e-06
2.11701e-06
3.31281e-07
5.8599e-06
2.14826e-06
3.41997e-07
5.93323e-06
2.21597e-06
3.5457e-07
6.27291e-06
2.42332e-06
3.7221e-07
7.56318e-06
2.97147e-06
4.13934e-07
8.57146e-06
3.41713e-06
5.14998e-07
8.57326e-06
3.51587e-06
5.15181e-07
3.61284e-06
5.15178e-07
5.82546e-06
3.69884e-06
3.19655e-07
5.84503e-06
3.74797e-06
3.27901e-07
5.88581e-06
3.78e-06
3.37127e-07
5.99493e-06
3.81102e-06
3.47938e-07
6.35005e-06
3.87203e-06
3.62065e-07
7.31865e-06
4.06789e-06
3.84207e-07
8.44624e-06
4.59312e-06
4.13606e-07
8.89332e-06
4.9909e-06
4.1911e-07
8.92059e-06
5.08953e-06
4.10771e-07
5.18648e-06
4.02538e-07
8.90845e-06
5.31506e-06
3.77096e-07
8.96544e-06
5.36259e-06
3.78522e-07
8.99214e-06
5.38713e-06
3.79126e-07
9.00313e-06
5.39929e-06
3.79342e-07
9.007e-06
5.40558e-06
3.79404e-07
9.0081e-06
5.40947e-06
3.79415e-07
9.00832e-06
5.41256e-06
3.79415e-07
9.00835e-06
5.41544e-06
3.79414e-07
9.00835e-06
5.41829e-06
3.79413e-07
5.42114e-06
3.79412e-07
8.99758e-06
3.79178e-07
9.00376e-06
3.79322e-07
9.00661e-06
3.79382e-07
9.00778e-06
3.79403e-07
9.0082e-06
3.79408e-07
9.00832e-06
3.79408e-07
9.00835e-06
3.79407e-07
9.00835e-06
3.79405e-07
9.00836e-06
3.79403e-07
3.794e-07
5.811e-06
2.08073e-06
3.12653e-07
5.82081e-06
2.09699e-06
3.21462e-07
5.8352e-06
2.11798e-06
3.31135e-07
5.863e-06
2.15129e-06
3.41959e-07
5.94391e-06
2.22537e-06
3.54767e-07
6.31586e-06
2.45136e-06
3.7311e-07
7.59773e-06
3.00934e-06
4.17354e-07
8.57142e-06
3.42539e-06
5.14992e-07
8.57326e-06
3.52076e-06
5.15179e-07
3.61472e-06
5.15175e-07
5.82654e-06
3.70139e-06
3.19375e-07
5.84755e-06
3.7492e-06
3.27687e-07
5.89208e-06
3.78133e-06
3.37023e-07
6.01224e-06
3.81415e-06
3.48037e-07
6.39855e-06
3.88134e-06
3.62585e-07
7.39398e-06
4.09548e-06
3.8545e-07
8.487e-06
4.62933e-06
4.1421e-07
8.89511e-06
4.99913e-06
4.1856e-07
8.9215e-06
5.09439e-06
4.10436e-07
5.18832e-06
4.02404e-07
8.91165e-06
5.31508e-06
3.77136e-07
8.9665e-06
5.36083e-06
3.78532e-07
8.99241e-06
5.38465e-06
3.79128e-07
9.00317e-06
5.39655e-06
3.79344e-07
9.00699e-06
5.40274e-06
3.79405e-07
9.00808e-06
5.40659e-06
3.79417e-07
9.0083e-06
5.40965e-06
3.79416e-07
9.00833e-06
5.41254e-06
3.79415e-07
9.00834e-06
5.41542e-06
3.79413e-07
5.41829e-06
3.79412e-07
8.99765e-06
3.79178e-07
9.00375e-06
3.79322e-07
9.00658e-06
3.79382e-07
9.00776e-06
3.79403e-07
9.00818e-06
3.79408e-07
9.0083e-06
3.79408e-07
9.00833e-06
3.79407e-07
9.00834e-06
3.79405e-07
9.00835e-06
3.79402e-07
3.79399e-07
5.81101e-06
2.08044e-06
3.12323e-07
5.8211e-06
2.09701e-06
3.21189e-07
5.83617e-06
2.1187e-06
3.30942e-07
5.86591e-06
2.1538e-06
3.4189e-07
5.95417e-06
2.23339e-06
3.5494e-07
6.35638e-06
2.47485e-06
3.73976e-07
7.63013e-06
3.03787e-06
4.20561e-07
8.57137e-06
3.42994e-06
5.14986e-07
8.57326e-06
3.5237e-06
5.15176e-07
3.61603e-06
5.15171e-07
5.82742e-06
3.70198e-06
3.19037e-07
5.84971e-06
3.7495e-06
3.27429e-07
5.89756e-06
3.78215e-06
3.36884e-07
6.02752e-06
3.81669e-06
3.48103e-07
6.44076e-06
3.88926e-06
3.6306e-07
7.45623e-06
4.11852e-06
3.8661e-07
8.51899e-06
4.65631e-06
4.14856e-07
8.89612e-06
5.00365e-06
4.18285e-07
8.92207e-06
5.0973e-06
4.10257e-07
5.18959e-06
4.02324e-07
8.91234e-06
5.31295e-06
3.77125e-07
8.96651e-06
5.35812e-06
3.78523e-07
8.99231e-06
5.38182e-06
3.79125e-07
9.0031e-06
5.39372e-06
3.79344e-07
9.00695e-06
5.39992e-06
3.79406e-07
9.00806e-06
5.40376e-06
3.79418e-07
9.00829e-06
5.40681e-06
3.79417e-07
9.00832e-06
5.40969e-06
3.79415e-07
9.00833e-06
5.41257e-06
3.79414e-07
5.41544e-06
3.79412e-07
8.99752e-06
3.79173e-07
9.00366e-06
3.7932e-07
9.00653e-06
3.79382e-07
9.00773e-06
3.79403e-07
9.00816e-06
3.79408e-07
9.00829e-06
3.79408e-07
9.00832e-06
3.79406e-07
9.00833e-06
3.79404e-07
9.00835e-06
3.79401e-07
3.79397e-07
5.81096e-06
2.08001e-06
3.11368e-07
5.82132e-06
2.09688e-06
3.20317e-07
5.83702e-06
2.1192e-06
3.30173e-07
5.86864e-06
2.15589e-06
3.41265e-07
5.96401e-06
2.24025e-06
3.54567e-07
6.39455e-06
2.49466e-06
3.74279e-07
7.66048e-06
3.05958e-06
4.22981e-07
8.57131e-06
3.43178e-06
5.14257e-07
8.57325e-06
3.52498e-06
5.14492e-07
3.61664e-06
5.14532e-07
5.82811e-06
3.70123e-06
3.18059e-07
5.85153e-06
3.74916e-06
3.26548e-07
5.90235e-06
3.78258e-06
3.36138e-07
6.04106e-06
3.81876e-06
3.47569e-07
6.47777e-06
3.89603e-06
3.62922e-07
7.50853e-06
4.1379e-06
3.871e-07
8.54457e-06
4.67656e-06
4.14893e-07
8.89653e-06
5.00548e-06
4.1759e-07
8.92231e-06
5.09855e-06
4.09631e-07
5.19016e-06
4.01775e-07
8.9113e-06
5.30937e-06
3.7635e-07
8.96583e-06
5.35478e-06
3.77801e-07
8.99197e-06
5.37874e-06
3.78444e-07
9.00296e-06
5.39081e-06
3.78697e-07
9.0069e-06
5.39709e-06
3.7879e-07
9.00803e-06
5.40095e-06
3.78829e-07
9.00827e-06
5.40399e-06
3.78858e-07
9.00831e-06
5.40686e-06
3.78885e-07
9.00832e-06
5.40975e-06
3.78915e-07
5.41261e-06
3.78945e-07
8.99724e-06
3.78404e-07
9.00351e-06
3.78584e-07
9.00646e-06
3.78675e-07
9.0077e-06
3.78726e-07
9.00814e-06
3.78759e-07
9.00828e-06
3.78787e-07
9.00831e-06
3.78813e-07
9.00832e-06
3.78841e-07
9.00834e-06
3.78869e-07
3.78897e-07
5.81084e-06
2.07948e-06
5.82147e-06
2.09664e-06
5.83779e-06
2.11953e-06
5.87121e-06
2.15762e-06
5.97345e-06
2.2462e-06
6.43061e-06
2.5116e-06
7.689e-06
3.07637e-06
8.57124e-06
3.43174e-06
8.57324e-06
3.52497e-06
3.61658e-06
5.82863e-06
3.69947e-06
5.85308e-06
3.74834e-06
5.90656e-06
3.78271e-06
6.05315e-06
3.82045e-06
6.51064e-06
3.90188e-06
7.55332e-06
4.15442e-06
8.5655e-06
4.69198e-06
8.8965e-06
5.00541e-06
8.92228e-06
5.09851e-06
5.19006e-06
8.909e-06
5.30473e-06
8.96463e-06
5.35099e-06
8.99144e-06
5.3755e-06
9.00277e-06
5.38785e-06
9.00684e-06
5.39424e-06
9.00801e-06
5.39814e-06
9.00826e-06
5.40118e-06
9.00829e-06
5.40404e-06
9.00831e-06
5.40692e-06
5.40979e-06
8.99684e-06
9.00332e-06
9.00638e-06
9.00766e-06
9.00813e-06
9.00826e-06
9.0083e-06
9.00831e-06
9.00834e-06
)
;

boundaryField
{
    inlet
    {
        type            calculated;
        value           nonuniform 0();
    }
    outlet
    {
        type            calculated;
        value           nonuniform 0();
    }
    bottom
    {
        type            calculated;
        value           uniform 0;
    }
    top
    {
        type            symmetryPlane;
        value           uniform 0;
    }
    side1
    {
        type            symmetryPlane;
        value           nonuniform 0();
    }
    side2
    {
        type            symmetryPlane;
        value           uniform 0;
    }
    procBoundary30to22
    {
        type            processor;
        value           nonuniform List<scalar> 
50
(
-2.06625e-06
-2.08152e-06
-2.09817e-06
-2.11645e-06
-2.13686e-06
-2.16131e-06
-2.20118e-06
-2.30758e-06
-2.30795e-06
-2.30799e-06
-2.06601e-06
-2.0813e-06
-2.09799e-06
-2.11635e-06
-2.13697e-06
-2.16195e-06
-2.20374e-06
-2.3076e-06
-2.30797e-06
-2.30802e-06
-2.06559e-06
-2.08094e-06
-2.09771e-06
-2.11621e-06
-2.13705e-06
-2.16257e-06
-2.2062e-06
-2.30762e-06
-2.30799e-06
-2.30805e-06
-2.06506e-06
-2.08049e-06
-2.09738e-06
-2.11602e-06
-2.1371e-06
-2.16317e-06
-2.20856e-06
-2.30762e-06
-2.30801e-06
-2.30808e-06
-2.06443e-06
-2.07998e-06
-2.097e-06
-2.11581e-06
-2.13714e-06
-2.16376e-06
-2.21083e-06
-2.30762e-06
-2.30803e-06
-2.30812e-06
)
;
    }
    procBoundary30to29
    {
        type            processor;
        value           nonuniform List<scalar> 
20
(
-5.8033e-06
-5.81389e-06
-8.80956e-06
-8.9863e-06
-5.80321e-06
-5.81433e-06
-8.81722e-06
-8.98644e-06
-5.80303e-06
-5.8146e-06
-8.81859e-06
-8.98611e-06
-5.80278e-06
-5.81474e-06
-8.81604e-06
-8.98544e-06
-5.80249e-06
-5.81477e-06
-8.81073e-06
-8.9845e-06
)
;
    }
    procBoundary30to31
    {
        type            processor;
        value           nonuniform List<scalar> 
20
(
8.5733e-06
8.947e-06
9.00836e-06
9.00838e-06
8.5733e-06
8.94726e-06
9.00835e-06
9.00837e-06
8.57331e-06
8.94747e-06
9.00835e-06
9.00837e-06
8.57331e-06
8.94757e-06
9.00834e-06
9.00837e-06
8.57331e-06
8.94756e-06
9.00833e-06
9.00837e-06
)
;
    }
}


// ************************************************************************* //
