/*--------------------------------*- C++ -*----------------------------------*\
| =========                 |                                                 |
| \\      /  F ield         | OpenFOAM: The Open Source CFD Toolbox           |
|  \\    /   O peration     | Version:  2.4.0                                 |
|   \\  /    A nd           | Web:      www.OpenFOAM.org                      |
|    \\/     M anipulation  |                                                 |
\*---------------------------------------------------------------------------*/
FoamFile
{
    version     2.0;
    format      ascii;
    class       volVectorField;
    location    "0.15";
    object      Ur;
}
// * * * * * * * * * * * * * * * * * * * * * * * * * * * * * * * * * * * * * //

dimensions      [0 1 -1 0 0 0 0];

internalField   nonuniform List<vector> 
200
(
(-1.44483e+15 -5.41319e+14 -7.91438e+14)
(1.05719e+15 3.0815e+14 7.462e+14)
(-3.25782e+14 -7.64626e+14 -4.7803e+14)
(6.66194e+14 -2.60804e+14 -5.68694e+13)
(4.23367e+14 -4.80847e+14 -1.80628e+14)
(5.18534e+14 -2.2204e+14 3.74882e+13)
(5.19778e+14 -3.61454e+14 -6.85126e+13)
(4.92271e+14 -2.75446e+14 9.8898e+13)
(4.93629e+14 -3.78005e+14 -2.87139e+13)
(4.7527e+14 -2.26234e+14 1.57861e+14)
(1.47542e+15 9.12116e+13 5.09873e+14)
(-6.47434e+13 -1.0276e+15 -5.12056e+14)
(1.10205e+15 -1.82182e+14 -5.62176e+13)
(5.40602e+14 -6.32905e+14 -2.0658e+14)
(7.41739e+14 -1.64724e+14 -3.55617e+13)
(6.66794e+14 -3.60929e+14 -1.01364e+14)
(4.98573e+14 -2.12114e+14 4.14511e+13)
(6.08184e+14 -2.58045e+14 -2.3689e+13)
(5.92686e+14 -2.76827e+14 1.25116e+14)
(5.70029e+14 -3.11014e+14 -3.77319e+13)
(4.14971e+14 -1.09559e+15 -6.53028e+14)
(1.45208e+15 7.27109e+13 -2.57303e+13)
(7.37552e+14 -7.51657e+14 -2.29254e+14)
(1.0609e+15 4.80936e+13 -6.79451e+13)
(8.79576e+14 -3.74351e+14 -5.47835e+13)
(7.57969e+14 1.39145e+14 -7.36612e+13)
(8.97635e+14 -9.57544e+13 -5.56871e+13)
(3.36215e+14 -8.60365e+14 9.29036e+14)
(6.61292e+14 -2.45276e+14 -1.54076e+13)
(5.56648e+14 -2.31754e+14 2.77423e+14)
(1.58007e+15 7.00146e+14 -2.54214e+13)
(9.78844e+14 -8.95974e+14 -2.64523e+14)
(1.28054e+15 3.76239e+14 -8.37326e+13)
(9.68144e+14 -5.24885e+14 5.92194e+12)
(9.79709e+14 3.07644e+14 -2.98715e+13)
(9.72226e+14 -1.86281e+14 3.25424e+13)
(9.58191e+14 3.12202e+14 -5.35602e+13)
(1.34278e+15 -4.35559e+13 1.67336e+13)
(2.50815e+14 -1.25782e+15 1.50623e+15)
(1.29486e+14 -8.74096e+13 -6.80413e+13)
(1.56957e+15 -1.32312e+14 1.90559e+14)
(-3.86281e+14 -9.49016e+14 -8.83019e+14)
(9.67073e+14 -2.26167e+14 -1.88178e+14)
(3.21604e+14 -6.05522e+14 -4.38221e+14)
(5.82104e+14 -2.50882e+14 -2.9584e+13)
(4.69681e+14 -4.58189e+14 -1.43715e+14)
(4.76405e+14 -2.50368e+14 1.10237e+14)
(4.42351e+14 -4.18696e+14 -3.84832e+12)
(4.61548e+14 -2.51689e+14 1.69464e+14)
(4.10894e+14 -3.23773e+14 7.09573e+13)
(-1.71065e+14 -1.17242e+15 -1.09475e+15)
(1.49622e+15 -1.7801e+14 -1.36099e+14)
(4.13358e+14 -8.1503e+14 -5.13631e+14)
(9.40037e+14 -1.71354e+14 -3.99526e+13)
(6.51595e+14 -4.72441e+14 -1.86693e+14)
(6.06393e+14 -2.3306e+14 9.49148e+13)
(5.56899e+14 -3.9897e+14 1.01968e+12)
(5.19418e+14 -3.1103e+14 1.99641e+14)
(5.52761e+14 -3.79924e+14 9.86798e+13)
(5.37958e+14 -2.56422e+14 1.87657e+14)
(1.92016e+15 5.8908e+13 -1.17154e+14)
(7.43456e+14 -9.48373e+14 -6.02081e+14)
(1.38092e+15 7.4142e+12 3.64515e+12)
(8.72225e+14 -4.94875e+14 -2.20419e+14)
(8.81617e+14 9.66285e+13 1.18957e+14)
(7.06999e+14 -2.7492e+14 -1.18931e+14)
(5.31769e+14 -7.36355e+13 1.8353e+14)
(7.83783e+14 -5.72599e+14 -4.9512e+13)
(5.66858e+14 -2.78855e+14 2.29909e+14)
(6.47132e+14 -3.09889e+14 6.82649e+13)
(1.21452e+15 -1.05653e+15 -7.25122e+14)
(1.69227e+15 2.63947e+14 -1.68098e+14)
(1.09167e+15 -5.94553e+14 -2.1435e+14)
(1.13002e+15 2.53353e+14 2.16237e+14)
(1.00812e+15 -2.06546e+14 -7.70961e+13)
(1.02014e+15 4.75067e+14 -6.87799e+13)
(1.10522e+15 -8.70683e+14 -2.35437e+14)
(5.35894e+14 4.09419e+13 2.82507e+14)
(8.51534e+14 -5.01919e+14 -7.84654e+13)
(5.18355e+14 -1.57664e+14 1.63411e+14)
(-5.6953e+14 -1.06691e+15 -9.37185e+14)
(1.34839e+15 -3.42178e+14 -2.01498e+14)
(-6.0367e+13 -8.40679e+14 -6.77188e+14)
(7.80595e+14 -3.28998e+14 -9.66239e+13)
(2.74255e+14 -5.8367e+14 -2.97355e+14)
(5.20244e+14 -4.17205e+14 4.58422e+13)
(3.30688e+14 -4.97318e+14 -5.35865e+13)
(4.50795e+14 -4.26162e+14 1.1014e+14)
(2.33083e+14 -3.53437e+14 4.31671e+13)
(3.72567e+14 -3.12917e+14 1.23432e+14)
(1.97542e+15 -4.17745e+14 -9.40637e+13)
(1.58492e+14 -1.01629e+15 -7.91946e+14)
(1.28577e+15 -1.94196e+14 -4.20869e+13)
(5.01713e+14 -6.46458e+14 -3.69096e+14)
(6.90641e+14 -2.70158e+14 1.30127e+14)
(5.06979e+14 -5.18006e+14 -6.35328e+13)
(5.72897e+14 -3.71489e+14 1.51791e+14)
(3.8434e+14 -3.44244e+14 1.57902e+14)
(5.86684e+14 -2.3447e+14 2.28429e+14)
(3.94635e+14 -2.77287e+14 1.17109e+14)
(7.7658e+14 -1.08947e+15 -9.83142e+14)
(1.8418e+15 4.27589e+13 1.17322e+14)
(8.88945e+14 -7.56904e+14 -4.43718e+14)
(1.09292e+15 4.11498e+14 6.18776e+14)
(8.38914e+14 -4.63643e+14 -1.50919e+14)
(7.61681e+14 -6.51371e+13 2.01421e+14)
(7.25885e+14 -4.07195e+14 5.54117e+13)
(6.00008e+14 -2.72583e+14 2.22186e+14)
(5.63127e+14 -2.62358e+14 2.35037e+14)
(5.74996e+14 -1.51962e+14 2.25934e+14)
(2.19277e+15 2.2503e+14 -3.67036e+14)
(1.26345e+15 -8.0301e+14 -6.2989e+14)
(1.45176e+15 6.29958e+14 6.63565e+14)
(1.19655e+15 -5.32298e+14 -1.11703e+13)
(1.28664e+15 3.53885e+14 2.30966e+14)
(1.08089e+15 -8.1625e+14 -2.79153e+13)
(8.09736e+14 1.50947e+14 5.10266e+13)
(8.16078e+14 -4.93633e+14 2.55466e+13)
(5.55154e+14 -3.90207e+13 1.75541e+14)
(5.73284e+14 -2.55577e+14 9.36095e+13)
(1.55011e+15 -7.48142e+14 -4.78381e+13)
(-4.8912e+14 -1.05281e+15 -5.3251e+14)
(1.03252e+15 -6.08793e+14 -6.10521e+13)
(-1.01866e+14 -7.76556e+14 -4.37943e+14)
(6.0675e+14 -5.25366e+14 1.74381e+13)
(2.34495e+14 -6.23632e+14 -1.94628e+14)
(4.38626e+14 -5.56159e+14 1.8316e+13)
(2.14581e+14 -4.66355e+14 1.14469e+13)
(3.56876e+14 -4.81973e+14 5.08066e+13)
(1.48593e+14 -2.79837e+14 2.37436e+13)
(-1.56998e+14 -1.23489e+15 -6.50106e+14)
(1.67386e+15 -6.78975e+14 2.57634e+13)
(1.10558e+14 -9.53001e+14 -4.56119e+14)
(9.88689e+14 -4.85673e+14 1.35605e+14)
(2.85898e+14 -7.23522e+14 -1.76492e+14)
(6.55485e+14 -5.1069e+14 1.44231e+14)
(2.25599e+14 -4.89679e+14 5.06459e+13)
(5.35856e+14 -4.25575e+14 1.02436e+14)
(1.99206e+14 -2.91187e+14 7.50974e+13)
(4.96797e+14 -4.01029e+14 1.59393e+14)
(2.36213e+15 -3.20234e+14 1.94527e+14)
(6.86252e+14 -1.08364e+15 -5.27624e+14)
(1.39652e+15 1.73196e+13 6.44232e+14)
(7.66846e+14 -7.33664e+14 -1.24167e+14)
(9.22974e+14 -1.46756e+14 5.14705e+14)
(5.59852e+14 -4.64103e+14 1.00099e+14)
(6.34791e+14 -4.45939e+14 2.82577e+14)
(3.57981e+14 -1.98899e+14 3.23675e+14)
(5.82268e+14 -2.86927e+14 2.3811e+14)
(3.36967e+14 -3.03558e+14 -2.53569e+13)
(1.44029e+15 -1.10569e+15 -7.32759e+14)
(1.84277e+15 6.75722e+14 8.49924e+14)
(1.24135e+15 -9.25893e+14 3.73027e+13)
(1.34036e+15 1.03128e+14 6.68799e+14)
(1.10239e+15 -3.75391e+14 4.86129e+13)
(1.01176e+15 2.5955e+13 2.6119e+14)
(8.49434e+14 -4.58058e+14 8.27132e+13)
(6.02271e+14 -1.23649e+14 1.65155e+14)
(5.7443e+14 -2.22448e+14 1.6436e+14)
(4.31532e+14 -7.68353e+13 1.11988e+14)
(-5.36716e+14 -1.47334e+15 -1.36172e+14)
(6.47495e+14 -1.03671e+15 1.67415e+13)
(-1.94302e+14 -9.74796e+14 -4.40871e+14)
(5.05424e+14 -6.7759e+14 6.46052e+13)
(3.31779e+13 -5.66623e+14 -4.79576e+14)
(3.07416e+14 -4.92764e+14 3.98411e+12)
(1.60479e+14 -6.11611e+14 5.33294e+13)
(2.70614e+14 -3.41679e+14 7.5436e+12)
(1.10993e+14 -4.2858e+14 8.74941e+12)
(2.86222e+14 -3.73689e+14 4.57246e+13)
(7.28071e+14 -1.29255e+15 -5.68064e+13)
(-6.39848e+13 -1.45101e+15 -2.74718e+14)
(8.37846e+14 -1.02578e+15 3.91302e+13)
(8.29703e+13 -8.18505e+14 -3.79535e+14)
(5.5244e+14 -5.31898e+14 8.31288e+13)
(2.05484e+14 -6.77243e+14 5.37973e+13)
(4.21786e+14 -3.32704e+14 9.34516e+13)
(1.61687e+14 -3.82199e+14 1.12084e+13)
(4.05763e+14 -4.12317e+14 6.75344e+13)
(1.60999e+14 -3.18669e+14 -1.72936e+13)
(1.73708e+14 -1.68439e+15 -2.46471e+14)
(1.20903e+15 -1.46144e+15 6.44917e+13)
(1.51369e+14 -1.19627e+15 -2.24312e+14)
(8.29946e+14 -6.99003e+14 1.89972e+14)
(1.88841e+14 -5.59909e+14 8.75168e+12)
(5.01637e+14 -2.25421e+14 2.24259e+14)
(1.75987e+14 -3.01909e+14 1.7267e+14)
(4.97333e+14 -2.2649e+14 1.5401e+14)
(2.09405e+14 -3.1945e+14 -5.00631e+13)
(3.32969e+14 -4.311e+14 8.44504e+13)
(2.11605e+15 -3.69569e+14 -1.77468e+13)
(8.72368e+14 -1.22967e+15 -6.05033e+13)
(1.0358e+15 -7.71202e+14 2.06869e+14)
(2.11685e+14 -5.32544e+14 -1.04338e+14)
(5.67754e+14 3.44698e+14 3.69668e+14)
(3.84988e+14 -5.9209e+14 2.83404e+12)
(2.14461e+14 7.43494e+12 1.12241e+14)
(3.09615e+14 -2.24904e+14 1.65467e+14)
(2.00542e+14 -2.74028e+13 9.99154e+13)
(1.32815e+14 -2.71984e+14 -3.1249e+12)
)
;

boundaryField
{
    inlet
    {
        type            calculated;
        value           nonuniform 0();
    }
    outlet
    {
        type            calculated;
        value           nonuniform 0();
    }
    bottom
    {
        type            calculated;
        value           uniform (0 0 0);
    }
    top
    {
        type            symmetryPlane;
    }
    side1
    {
        type            symmetryPlane;
    }
    side2
    {
        type            symmetryPlane;
    }
    procBoundary25to17
    {
        type            processor;
        value           nonuniform List<vector> 
50
(
(8.16713e+14 7.70937e+14 6.79261e+14)
(-1.06781e+15 -5.11044e+14 -5.83382e+14)
(5.4846e+14 1.27357e+14 5.17626e+13)
(5.41292e+13 -4.74398e+14 -2.92512e+14)
(3.77281e+14 -1.82431e+14 5.64876e+13)
(3.82035e+14 -3.85169e+14 -1.1513e+14)
(4.02334e+14 -1.93997e+14 1.32556e+14)
(4.21925e+14 -3.64099e+14 -3.94871e+13)
(4.16961e+14 -1.86362e+14 1.74033e+14)
(4.35814e+14 -2.97239e+14 7.58128e+12)
(-1.21933e+15 -7.12863e+14 -8.30652e+14)
(8.80619e+14 2.69434e+13 -1.16646e+14)
(-1.80123e+14 -6.31842e+14 -6.61318e+14)
(4.82115e+14 -2.37948e+14 -1.29392e+14)
(2.54942e+14 -5.01052e+14 -3.44973e+14)
(3.91697e+14 -2.67777e+14 2.78062e+13)
(3.23469e+14 -4.80734e+14 -1.46884e+14)
(3.68122e+14 -2.4506e+14 1.17344e+14)
(3.31516e+14 -4.06965e+14 -2.10271e+13)
(3.71583e+14 -2.39842e+14 1.34783e+14)
(1.08986e+15 -2.22441e+14 -5.73942e+13)
(-7.14801e+14 -8.41467e+14 -7.91025e+14)
(7.68906e+14 -2.40954e+14 -2.2053e+14)
(-4.27627e+13 -5.80203e+14 -5.38558e+14)
(4.39143e+14 -3.89182e+14 -2.3037e+13)
(1.99262e+14 -5.25072e+14 -2.28844e+14)
(3.45965e+14 -5.58823e+14 2.2209e+13)
(2.55598e+14 -4.36902e+14 1.56674e+13)
(3.03184e+14 -5.22909e+14 3.43192e+13)
(2.44994e+14 -4.59052e+14 -3.59019e+13)
(-1.05937e+15 -9.60016e+14 -4.5775e+14)
(8.58564e+14 -5.04712e+14 -1.5877e+14)
(-5.42217e+14 -7.89918e+14 -5.08147e+14)
(5.44425e+14 -4.8848e+14 -3.21736e+13)
(-3.22874e+13 -5.50188e+14 -3.88857e+14)
(3.29118e+14 -5.31529e+14 5.82547e+13)
(2.61762e+14 -6.28804e+14 -8.41426e+13)
(2.77246e+14 -5.36837e+14 6.09194e+12)
(2.00521e+14 -4.46756e+14 1.26089e+13)
(2.46616e+14 -4.62442e+14 3.61934e+13)
(3.1884e+14 -8.40446e+14 -1.07814e+14)
(-3.40682e+14 -9.91559e+14 -2.20151e+14)
(3.89715e+14 -6.48155e+14 6.97907e+13)
(-1.58976e+14 -5.66487e+14 -5.7851e+14)
(1.90679e+14 -4.30854e+14 1.54649e+14)
(-1.81365e+13 -3.10967e+14 -7.3507e+14)
(1.07424e+14 -4.11248e+14 -3.44205e+13)
(6.86499e+13 -6.03304e+14 7.60061e+13)
(1.29486e+14 -2.91993e+14 -4.77171e+13)
(6.924e+13 -4.35685e+14 8.11551e+12)
)
;
    }
    procBoundary25to24
    {
        type            processor;
        value           nonuniform List<vector> 
20
(
(9.28374e+14 7.862e+14 1.09196e+15)
(-1.11415e+15 -4.87544e+14 -9.8459e+14)
(1.62685e+15 4.24969e+14 4.72192e+14)
(8.13889e+14 -1.27723e+15 -7.92537e+14)
(-1.509e+15 -5.35924e+14 -1.00868e+15)
(2.03e+15 -2.50914e+14 3.11514e+13)
(5.13928e+14 -1.20036e+15 -1.30821e+15)
(2.144e+15 7.78429e+14 -9.97903e+13)
(1.94764e+15 -5.44862e+14 8.4522e+13)
(-2.13368e+14 -1.24066e+15 -1.17466e+15)
(2.53445e+15 -9.0894e+13 -7.78464e+13)
(1.56662e+15 -1.19459e+15 -1.30943e+15)
(-7.6458e+14 -1.23351e+15 -5.08049e+14)
(2.40921e+15 -9.02682e+14 1.24623e+14)
(7.64093e+14 -1.25297e+15 -1.12493e+15)
(2.73692e+15 1.86832e+14 -2.85951e+14)
(6.52344e+14 -1.33584e+15 -7.5645e+13)
(-2.89683e+14 -1.73845e+15 -1.54374e+14)
(2.09567e+15 -1.34883e+15 -6.98707e+13)
(1.95582e+15 -1.23622e+15 -5.3338e+14)
)
;
    }
    procBoundary25to26
    {
        type            processor;
        value           nonuniform List<vector> 
20
(
(4.66398e+14 -2.90362e+14 1.17672e+13)
(5.27078e+14 -2.05587e+14 1.20997e+14)
(5.17359e+14 -6.94081e+13 -7.43192e+13)
(2.14287e+14 -2.77854e+14 3.91878e+14)
(4.59704e+14 -2.3967e+14 1.38108e+14)
(4.88572e+14 -3.0702e+14 8.48982e+13)
(5.80718e+14 -1.07162e+14 7.46933e+13)
(5.75116e+14 -2.04305e+14 -7.09739e+13)
(1.53996e+14 -3.28956e+14 1.64455e+14)
(5.09105e+14 -2.60756e+14 1.76059e+14)
(5.26812e+14 -2.15962e+14 1.17153e+14)
(4.38762e+14 -5.16103e+13 9.16806e+13)
(3.72305e+14 -4.18684e+14 9.05868e+13)
(2.41754e+14 -2.92639e+14 1.3668e+14)
(4.76036e+14 -4.04179e+14 5.80665e+13)
(3.69905e+14 -2.25561e+14 -5.57214e+13)
(7.9807e+13 -2.71193e+14 -6.20225e+13)
(5.90418e+14 -4.76149e+14 1.69409e+14)
(1.21898e+14 -3.70438e+14 7.47955e+13)
(-3.72694e+13 -3.86147e+14 4.00831e+13)
)
;
    }
}


// ************************************************************************* //
