/*--------------------------------*- C++ -*----------------------------------*\
| =========                 |                                                 |
| \\      /  F ield         | OpenFOAM: The Open Source CFD Toolbox           |
|  \\    /   O peration     | Version:  2.4.0                                 |
|   \\  /    A nd           | Web:      www.OpenFOAM.org                      |
|    \\/     M anipulation  |                                                 |
\*---------------------------------------------------------------------------*/
FoamFile
{
    version     2.0;
    format      ascii;
    class       volVectorField;
    location    "0.02";
    object      A_Source;
}
// * * * * * * * * * * * * * * * * * * * * * * * * * * * * * * * * * * * * * //

dimensions      [1 -2 -2 0 0 0 0];

internalField   nonuniform List<vector> 
200
(
(-2.54339e-76 -4.69534e-77 -1.549e-76)
(-4.6251e-74 -8.53626e-75 -2.81556e-74)
(-8.39731e-72 -1.54942e-72 -5.10942e-72)
(-1.51383e-69 -2.79243e-70 -9.20621e-70)
(-2.70974e-67 -4.99683e-68 -1.64696e-67)
(-4.81618e-65 -8.87814e-66 -2.92546e-65)
(-8.49963e-63 -1.56625e-63 -5.15949e-63)
(-1.48906e-60 -2.74285e-61 -9.03266e-61)
(-2.5872e-58 -4.76362e-59 -1.56823e-58)
(-4.44686e-56 -8.18379e-57 -2.69321e-56)
(-1.18105e-78 -2.17501e-79 -7.16077e-79)
(-2.10091e-76 -3.86789e-77 -1.27314e-76)
(-3.73219e-74 -6.86899e-75 -2.26041e-74)
(-6.58742e-72 -1.21197e-72 -3.98722e-72)
(-1.15617e-69 -2.12634e-70 -6.99335e-70)
(-2.02028e-67 -3.71404e-68 -1.22114e-67)
(-3.52027e-65 -6.46887e-66 -2.12623e-65)
(-6.12737e-63 -1.12549e-63 -3.69817e-63)
(-1.06681e-60 -1.95873e-61 -6.43414e-61)
(-1.85741e-58 -3.40901e-59 -1.1195e-58)
(-4.97111e-81 -9.13449e-82 -3.00188e-81)
(-8.75173e-79 -1.60763e-79 -5.28192e-79)
(-1.53987e-76 -2.82767e-77 -9.28799e-77)
(-2.6936e-74 -4.94442e-75 -1.62363e-74)
(-4.68699e-72 -8.60009e-73 -2.82322e-72)
(-8.11838e-70 -1.489e-70 -4.88654e-70)
(-1.40063e-67 -2.56777e-68 -8.42408e-68)
(-2.40697e-65 -4.41073e-66 -1.44656e-65)
(-4.11422e-63 -7.5358e-64 -2.47067e-63)
(-6.9617e-61 -1.27453e-61 -4.17729e-61)
(-1.94052e-83 -3.55909e-84 -1.16784e-83)
(-3.37334e-81 -6.18493e-82 -2.02894e-81)
(-5.86004e-79 -1.07403e-79 -3.52238e-79)
(-1.01177e-76 -1.85365e-77 -6.07745e-77)
(-1.73715e-74 -3.18124e-75 -1.04269e-74)
(-2.96767e-72 -5.43223e-73 -1.77988e-72)
(-5.04646e-70 -9.23293e-71 -3.02414e-70)
(-8.53735e-68 -1.56119e-68 -5.11165e-68)
(-1.43279e-65 -2.61869e-66 -8.57085e-66)
(-2.36601e-63 -4.32168e-64 -1.41388e-63)
(-3.41083e-78 -6.30094e-79 -2.08289e-78)
(-6.08648e-76 -1.12409e-76 -3.71508e-76)
(-1.08391e-73 -2.00126e-74 -6.6126e-74)
(-1.91577e-71 -3.53605e-72 -1.1681e-71)
(-3.36116e-69 -6.20173e-70 -2.04812e-69)
(-5.85551e-67 -1.08e-67 -3.56565e-67)
(-1.0133e-64 -1.8682e-65 -6.16594e-65)
(-1.74223e-62 -3.2107e-63 -1.05932e-62)
(-2.97447e-60 -5.47894e-61 -1.80703e-60)
(-5.029e-58 -9.25848e-59 -3.05236e-58)
(-1.5899e-80 -2.93001e-81 -9.66392e-81)
(-2.78338e-78 -5.12788e-79 -1.6909e-78)
(-4.86448e-76 -8.95887e-77 -2.95337e-76)
(-8.44323e-74 -1.55439e-74 -5.12271e-74)
(-1.45677e-71 -2.6808e-72 -8.83214e-72)
(-2.50206e-69 -4.6023e-70 -1.51576e-69)
(-4.28579e-67 -7.87957e-68 -2.59421e-67)
(-7.336e-65 -1.3481e-65 -4.43683e-65)
(-1.25654e-62 -2.30801e-63 -7.59353e-63)
(-2.15175e-60 -3.95055e-61 -1.29938e-60)
(-6.76603e-83 -1.24413e-83 -4.09518e-83)
(-1.17327e-80 -2.15666e-81 -7.09707e-81)
(-2.03274e-78 -3.73511e-79 -1.2288e-78)
(-3.50006e-76 -6.42866e-77 -2.1143e-76)
(-5.99378e-74 -1.10041e-74 -3.61793e-74)
(-1.0218e-71 -1.87505e-72 -6.16271e-72)
(-1.73562e-69 -3.18339e-70 -1.04591e-69)
(-2.9382e-67 -5.3864e-68 -1.76908e-67)
(-4.94919e-65 -9.06837e-66 -2.97732e-65)
(-8.24476e-63 -1.50987e-63 -4.95546e-63)
(-2.67415e-85 -4.90782e-86 -1.61272e-85)
(-4.58416e-83 -8.41014e-84 -2.76285e-83)
(-7.85042e-81 -1.43968e-81 -4.72819e-81)
(-1.33572e-78 -2.44849e-79 -8.03886e-79)
(-2.25955e-76 -4.14002e-77 -1.35879e-76)
(-3.80348e-74 -6.96536e-75 -2.28527e-74)
(-6.3753e-72 -1.16689e-72 -3.82701e-72)
(-1.06379e-69 -1.946e-70 -6.37973e-70)
(-1.76159e-67 -3.22058e-68 -1.05539e-67)
(-2.86654e-65 -5.23715e-66 -1.71546e-65)
(-2.32251e-80 -4.29276e-81 -1.42168e-80)
(-4.07381e-78 -7.52769e-79 -2.49249e-78)
(-7.1278e-76 -1.3167e-76 -4.35868e-76)
(-1.23709e-73 -2.28447e-74 -7.56036e-74)
(-2.13041e-71 -3.93268e-72 -1.30113e-71)
(-3.64247e-69 -6.72113e-70 -2.22301e-69)
(-6.18774e-67 -1.14126e-67 -3.77341e-67)
(-1.04513e-64 -1.92669e-65 -6.368e-65)
(-1.75482e-62 -3.2333e-63 -1.06823e-62)
(-2.92057e-60 -5.37814e-61 -1.7761e-60)
(-1.08998e-82 -2.00988e-83 -6.64023e-83)
(-1.88016e-80 -3.46582e-81 -1.14475e-80)
(-3.23649e-78 -5.96386e-79 -1.9693e-78)
(-5.53045e-76 -1.01868e-76 -3.36272e-76)
(-9.39066e-74 -1.72894e-74 -5.7054e-74)
(-1.58696e-71 -2.92037e-72 -9.63358e-72)
(-2.6748e-69 -4.91969e-70 -1.62227e-69)
(-4.50674e-67 -8.28474e-68 -2.73087e-67)
(-7.60143e-65 -1.39664e-65 -4.60206e-65)
(-1.28133e-62 -2.35307e-63 -7.75114e-63)
(-4.69999e-85 -8.64737e-86 -2.85068e-85)
(-8.03662e-83 -1.4781e-83 -4.87138e-83)
(-1.37254e-80 -2.52337e-81 -8.3139e-81)
(-2.32872e-78 -4.27941e-79 -1.40952e-78)
(-3.92853e-76 -7.21591e-77 -2.3759e-76)
(-6.59735e-74 -1.21118e-74 -3.98647e-74)
(-1.10422e-71 -2.0261e-72 -6.66615e-72)
(-1.84293e-69 -3.37966e-70 -1.11153e-69)
(-3.0616e-67 -5.61134e-68 -1.84482e-67)
(-5.0249e-65 -9.20426e-66 -3.02493e-65)
(-1.88428e-87 -3.46015e-88 -1.13857e-87)
(-3.18848e-85 -5.8528e-86 -1.92535e-85)
(-5.38808e-83 -9.88621e-84 -3.25121e-83)
(-9.04271e-81 -1.65841e-81 -5.45213e-81)
(-1.50845e-78 -2.76507e-79 -9.08712e-79)
(-2.50386e-76 -4.5872e-77 -1.50696e-76)
(-4.13984e-74 -7.57998e-75 -2.48913e-74)
(-6.81799e-72 -1.2476e-72 -4.09517e-72)
(-1.11479e-69 -2.03858e-70 -6.68863e-70)
(-1.78872e-67 -3.26861e-68 -1.07193e-67)
(-1.06815e-82 -1.97511e-83 -6.55243e-83)
(-1.84456e-80 -3.4098e-81 -1.13096e-80)
(-3.17578e-78 -5.8688e-79 -1.94609e-78)
(-5.42055e-76 -1.00136e-76 -3.31963e-76)
(-9.17582e-74 -1.69441e-74 -5.61555e-74)
(-1.54168e-71 -2.84562e-72 -9.4278e-72)
(-2.57389e-69 -4.74855e-70 -1.57268e-69)
(-4.2751e-67 -7.88293e-68 -2.60976e-67)
(-7.0659e-65 -1.30215e-65 -4.30918e-65)
(-1.15857e-62 -2.13378e-63 -7.05811e-63)
(-5.0598e-85 -9.33454e-86 -3.08876e-85)
(-8.60965e-83 -1.5878e-83 -5.25263e-83)
(-1.46144e-80 -2.69417e-81 -8.91012e-81)
(-2.46136e-78 -4.5356e-79 -1.49954e-78)
(-4.11756e-76 -7.5839e-77 -2.50648e-76)
(-6.85376e-74 -1.2617e-74 -4.16835e-74)
(-1.13784e-71 -2.09345e-72 -6.91351e-72)
(-1.88893e-69 -3.47335e-70 -1.1466e-69)
(-3.14037e-67 -5.77119e-68 -1.90443e-67)
(-5.21522e-65 -9.57898e-66 -3.15994e-65)
(-2.21439e-87 -4.07623e-88 -1.34568e-87)
(-3.73779e-85 -6.87786e-86 -2.26996e-85)
(-6.29943e-83 -1.15866e-83 -3.8229e-83)
(-1.05426e-80 -1.93821e-81 -6.39286e-81)
(-1.75378e-78 -3.22263e-79 -1.06255e-78)
(-2.90397e-76 -5.3332e-77 -1.75777e-76)
(-4.79345e-74 -8.79814e-75 -2.89864e-74)
(-7.89391e-72 -1.44802e-72 -4.76872e-72)
(-1.29445e-69 -2.37302e-70 -7.81194e-70)
(-2.09479e-67 -3.83775e-68 -1.2629e-67)
(-9.01773e-90 -1.65678e-90 -5.45879e-90)
(-1.50775e-87 -2.76896e-88 -9.12063e-88)
(-2.51664e-85 -4.61969e-86 -1.5212e-85)
(-4.17001e-83 -7.65094e-84 -2.5185e-83)
(-6.86568e-81 -1.259e-81 -4.1428e-81)
(-1.1247e-78 -2.06122e-79 -6.77985e-79)
(-1.83567e-76 -3.36209e-77 -1.10541e-76)
(-2.98607e-74 -5.46549e-75 -1.79619e-74)
(-4.82447e-72 -8.8242e-73 -2.89869e-72)
(-7.63852e-70 -1.39604e-70 -4.58363e-70)
(-3.75135e-85 -6.93878e-86 -2.287e-85)
(-6.38618e-83 -1.18088e-83 -3.89193e-83)
(-1.08338e-80 -2.00264e-81 -6.59968e-81)
(-1.82093e-78 -3.36476e-79 -1.10872e-78)
(-3.03373e-76 -5.60345e-77 -1.84612e-76)
(-5.01472e-74 -9.25808e-75 -3.04963e-74)
(-8.23657e-72 -1.51983e-72 -5.00534e-72)
(-1.34649e-69 -2.48316e-70 -8.17628e-70)
(-2.19239e-67 -4.04067e-68 -1.33022e-67)
(-3.54381e-65 -6.52711e-66 -2.1484e-65)
(-1.79741e-87 -3.31722e-88 -1.09033e-87)
(-3.01992e-85 -5.57143e-86 -1.83112e-85)
(-5.05979e-83 -9.33105e-84 -3.06642e-83)
(-8.40737e-81 -1.54976e-81 -5.09213e-81)
(-1.38697e-78 -2.55535e-79 -8.39473e-79)
(-2.27597e-76 -4.19093e-77 -1.37649e-76)
(-3.72487e-74 -6.85482e-75 -2.25091e-74)
(-6.09767e-72 -1.12145e-72 -3.6817e-72)
(-1e-69 -1.83801e-70 -6.03316e-70)
(-1.63727e-67 -3.00753e-68 -9.87109e-68)
(-7.99425e-90 -1.47221e-90 -4.82701e-90)
(-1.33328e-87 -2.45436e-88 -8.04633e-88)
(-2.21944e-85 -4.08383e-86 -1.33864e-85)
(-3.66717e-83 -6.74439e-84 -2.21036e-83)
(-6.02073e-81 -1.10669e-81 -3.62626e-81)
(-9.83746e-79 -1.80721e-79 -5.92028e-79)
(-1.6026e-76 -2.94225e-77 -9.63641e-77)
(-2.6059e-74 -4.78114e-75 -1.56558e-74)
(-4.22086e-72 -7.73906e-73 -2.53371e-72)
(-6.73914e-70 -1.23479e-70 -4.04194e-70)
(-3.31055e-92 -6.08496e-93 -1.99076e-92)
(-5.47378e-90 -1.00567e-90 -3.28973e-90)
(-9.03192e-88 -1.6586e-88 -5.42474e-88)
(-1.47877e-85 -2.71418e-86 -8.87548e-86)
(-2.40488e-83 -4.41146e-84 -1.44225e-83)
(-3.89068e-81 -7.13253e-82 -2.33129e-81)
(-6.27257e-79 -1.14914e-79 -3.75505e-79)
(-1.00843e-76 -1.84614e-77 -6.03118e-77)
(-1.61087e-74 -2.94686e-75 -9.62494e-75)
(-2.51812e-72 -4.60271e-73 -1.50291e-72)
)
;

boundaryField
{
    inlet
    {
        type            zeroGradient;
    }
    outlet
    {
        type            zeroGradient;
    }
    bottom
    {
        type            zeroGradient;
    }
    top
    {
        type            symmetryPlane;
    }
    side1
    {
        type            symmetryPlane;
    }
    side2
    {
        type            symmetryPlane;
    }
    procBoundary16to8
    {
        type            processor;
        value           nonuniform List<vector> 
50
(
(-4.62968e-74 -8.57299e-75 -2.83556e-74)
(-8.63386e-72 -1.59844e-72 -5.28593e-72)
(-1.60933e-69 -2.97879e-70 -9.84881e-70)
(-2.98191e-67 -5.51814e-68 -1.82411e-67)
(-5.49133e-65 -1.01595e-65 -3.35772e-65)
(-1.00478e-62 -1.85849e-63 -6.14108e-63)
(-1.82587e-60 -3.37637e-61 -1.11543e-60)
(-3.29227e-58 -6.08637e-59 -2.0103e-58)
(-5.88072e-56 -1.08684e-56 -3.58899e-56)
(-1.03736e-53 -1.91653e-54 -6.32725e-54)
(-6.33571e-76 -1.17382e-76 -3.89108e-76)
(-1.15873e-73 -2.14632e-74 -7.11339e-74)
(-2.11788e-71 -3.92201e-72 -1.29958e-71)
(-3.84753e-69 -7.12333e-70 -2.35985e-69)
(-6.94737e-67 -1.2859e-67 -4.25905e-67)
(-1.24674e-64 -2.30699e-65 -7.63928e-65)
(-2.22287e-62 -4.11204e-63 -1.36133e-62)
(-3.93417e-60 -7.27553e-61 -2.40807e-60)
(-6.89791e-58 -1.27522e-58 -4.21971e-58)
(-1.19296e-55 -2.20458e-56 -7.29297e-56)
(-4.38521e-78 -8.1276e-79 -2.69967e-78)
(-7.87521e-76 -1.45926e-76 -4.8461e-76)
(-1.4131e-73 -2.61779e-74 -8.69163e-74)
(-2.51979e-71 -4.66671e-72 -1.5491e-71)
(-4.46594e-69 -8.26865e-70 -2.74411e-69)
(-7.86825e-67 -1.45635e-67 -4.83202e-67)
(-1.3779e-64 -2.54956e-65 -8.45706e-65)
(-2.39654e-62 -4.43287e-63 -1.47004e-62)
(-4.12998e-60 -7.63638e-61 -2.53173e-60)
(-7.01158e-58 -1.29589e-58 -4.29508e-58)
(-2.04487e-80 -3.79098e-81 -1.26156e-80)
(-3.61073e-78 -6.69227e-79 -2.22659e-78)
(-6.36855e-76 -1.18006e-76 -3.92534e-76)
(-1.11596e-73 -2.06722e-74 -6.87482e-74)
(-1.94347e-71 -3.59899e-72 -1.1966e-71)
(-3.36512e-69 -6.22954e-70 -2.0707e-69)
(-5.79415e-67 -1.07224e-67 -3.56319e-67)
(-9.91438e-65 -1.83401e-65 -6.09307e-65)
(-1.68132e-62 -3.10893e-63 -1.03258e-62)
(-2.8053e-60 -5.18479e-61 -1.72153e-60)
(-7.26673e-83 -1.34739e-83 -4.45725e-83)
(-1.26313e-80 -2.34147e-81 -7.74526e-81)
(-2.19244e-78 -4.06299e-79 -1.34388e-78)
(-3.77936e-76 -7.00168e-77 -2.31569e-76)
(-6.47374e-74 -1.19893e-74 -3.96488e-74)
(-1.10262e-71 -2.04129e-72 -6.74997e-72)
(-1.86828e-69 -3.4574e-70 -1.14318e-69)
(-3.14784e-67 -5.8229e-68 -1.9252e-67)
(-5.25815e-65 -9.72222e-66 -3.21425e-65)
(-8.63001e-63 -1.59484e-63 -5.27223e-63)
)
;
    }
    procBoundary16to17
    {
        type            processor;
        value           nonuniform List<vector> 
20
(
(-9.17893e-54 -1.68955e-54 -5.56191e-54)
(-3.69977e-56 -6.78985e-57 -2.2299e-56)
(-1.32198e-58 -2.41919e-59 -7.92735e-59)
(-4.4235e-61 -8.07385e-62 -2.64031e-61)
(-1.04634e-55 -1.92635e-56 -6.35232e-56)
(-4.26551e-58 -7.8295e-59 -2.57521e-58)
(-1.56013e-60 -2.85539e-61 -9.36894e-61)
(-5.34219e-63 -9.75146e-64 -3.19254e-63)
(-6.10864e-58 -1.12472e-58 -3.71493e-58)
(-2.52779e-60 -4.64029e-61 -1.52845e-60)
(-9.47212e-63 -1.73376e-63 -5.69594e-63)
(-3.32183e-65 -6.06383e-66 -1.98746e-65)
(-2.43121e-60 -4.47626e-61 -1.48083e-60)
(-1.02389e-62 -1.87961e-63 -6.19987e-63)
(-3.9331e-65 -7.19927e-66 -2.36813e-65)
(-1.41335e-67 -2.58002e-68 -8.46558e-68)
(-7.44823e-63 -1.37121e-63 -4.51492e-63)
(-3.19875e-65 -5.87183e-66 -1.92719e-65)
(-1.26009e-67 -2.30646e-68 -7.54768e-68)
(-4.64136e-70 -8.47249e-71 -2.76496e-70)
)
;
    }
    procBoundary16to24
    {
        type            processor;
        value           nonuniform List<vector> 
50
(
(-6.00777e-86 -1.09982e-86 -3.60311e-86)
(-1.02545e-83 -1.8766e-84 -6.14637e-84)
(-1.74464e-81 -3.19152e-82 -1.04502e-81)
(-2.94075e-79 -5.37734e-80 -1.7602e-79)
(-4.91079e-77 -8.97551e-78 -2.93701e-77)
(-8.12579e-75 -1.48439e-75 -4.85545e-75)
(-1.33277e-72 -2.43325e-73 -7.9558e-73)
(-2.16709e-70 -3.95393e-71 -1.29217e-70)
(-3.48848e-68 -6.36028e-69 -2.07748e-68)
(-5.52522e-66 -1.00654e-66 -3.28568e-66)
(-8.19649e-88 -1.50143e-88 -4.92528e-88)
(-1.38117e-85 -2.52907e-86 -8.29415e-86)
(-2.31867e-83 -4.24402e-84 -1.39143e-83)
(-3.85417e-81 -7.05134e-82 -2.31109e-81)
(-6.34325e-79 -1.15994e-79 -3.80035e-79)
(-1.03402e-76 -1.88976e-77 -6.18903e-77)
(-1.67067e-74 -3.05135e-75 -9.98874e-75)
(-2.67724e-72 -4.88635e-73 -1.59875e-72)
(-4.25205e-70 -7.75454e-71 -2.53574e-70)
(-6.65238e-68 -1.21212e-68 -3.96104e-68)
(-5.72402e-90 -1.04911e-90 -3.44586e-90)
(-9.5323e-88 -1.74641e-88 -5.73457e-88)
(-1.58077e-85 -2.89487e-86 -9.50283e-86)
(-2.59403e-83 -4.74816e-84 -1.55813e-83)
(-4.21218e-81 -7.70592e-82 -2.5278e-81)
(-6.77114e-79 -1.23799e-79 -4.05931e-79)
(-1.07863e-76 -1.97075e-77 -6.45892e-77)
(-1.70475e-74 -3.11237e-75 -1.0195e-74)
(-2.67289e-72 -4.87579e-73 -1.59616e-72)
(-4.13264e-70 -7.53143e-71 -2.46381e-70)
(-2.71683e-92 -4.982e-93 -1.63835e-92)
(-4.47584e-90 -8.20416e-91 -2.69719e-90)
(-7.33964e-88 -1.34473e-88 -4.41956e-88)
(-1.19029e-85 -2.17968e-86 -7.16123e-86)
(-1.90892e-83 -3.49367e-84 -1.14739e-83)
(-3.02908e-81 -5.54022e-82 -1.81873e-81)
(-4.76173e-79 -8.70296e-80 -2.85558e-79)
(-7.42834e-77 -1.35657e-77 -4.44864e-77)
(-1.15059e-74 -2.09933e-75 -6.88005e-75)
(-1.75914e-72 -3.20645e-73 -1.05007e-72)
(-9.89975e-95 -1.81621e-95 -5.92706e-95)
(-1.61476e-92 -2.96114e-93 -9.66241e-93)
(-2.62063e-90 -4.8034e-91 -1.56717e-90)
(-4.20373e-88 -7.70099e-89 -2.5121e-88)
(-6.66434e-86 -1.22014e-86 -3.97928e-86)
(-1.04477e-83 -1.91153e-84 -6.23235e-84)
(-1.62202e-81 -2.96542e-82 -9.66521e-82)
(-2.49927e-79 -4.56533e-80 -1.48741e-79)
(-3.82638e-77 -6.98291e-78 -2.27413e-77)
(-5.78752e-75 -1.05507e-75 -3.43453e-75)
)
;
    }
}


// ************************************************************************* //
