/*--------------------------------*- C++ -*----------------------------------*\
| =========                 |                                                 |
| \\      /  F ield         | OpenFOAM: The Open Source CFD Toolbox           |
|  \\    /   O peration     | Version:  2.4.0                                 |
|   \\  /    A nd           | Web:      www.OpenFOAM.org                      |
|    \\/     M anipulation  |                                                 |
\*---------------------------------------------------------------------------*/
FoamFile
{
    version     2.0;
    format      ascii;
    class       surfaceScalarField;
    location    "0.02";
    object      phia;
}
// * * * * * * * * * * * * * * * * * * * * * * * * * * * * * * * * * * * * * //

dimensions      [0 3 -1 0 0 0 0];

internalField   nonuniform List<scalar> 
490
(
4.03059e-06
7.93173e-07
1.60719e-07
3.97159e-06
7.93186e-07
1.5745e-07
3.91109e-06
7.93196e-07
1.54103e-07
3.84886e-06
7.93204e-07
1.5065e-07
3.78499e-06
7.93209e-07
1.47086e-07
3.71979e-06
7.93211e-07
1.4342e-07
3.65382e-06
7.93212e-07
1.39674e-07
3.58772e-06
7.9321e-07
1.3589e-07
3.52146e-06
7.93206e-07
1.32113e-07
7.93201e-07
1.28314e-07
3.77905e-06
7.93303e-07
1.46275e-07
3.72566e-06
7.93309e-07
1.43314e-07
3.67044e-06
7.93313e-07
1.4026e-07
3.61321e-06
7.93315e-07
1.37082e-07
3.55432e-06
7.93316e-07
1.33784e-07
3.49472e-06
7.93316e-07
1.30398e-07
3.43619e-06
7.93313e-07
1.26996e-07
3.38134e-06
7.93309e-07
1.2371e-07
3.33292e-06
7.93303e-07
1.20718e-07
7.93296e-07
1.18171e-07
3.56456e-06
7.93416e-07
1.33956e-07
3.51698e-06
7.93417e-07
1.31294e-07
3.46847e-06
7.93417e-07
1.28581e-07
3.41914e-06
7.93417e-07
1.25803e-07
3.36962e-06
7.93415e-07
1.22984e-07
3.32096e-06
7.93412e-07
1.20168e-07
3.27461e-06
7.93409e-07
1.17427e-07
3.23219e-06
7.93404e-07
1.14858e-07
3.19462e-06
7.93398e-07
1.12559e-07
7.93393e-07
1.10547e-07
3.39905e-06
1.2437e-07
3.35822e-06
1.22062e-07
3.31722e-06
1.19744e-07
3.27619e-06
1.17408e-07
3.2356e-06
1.15074e-07
3.19616e-06
1.12776e-07
3.15872e-06
1.10559e-07
3.12397e-06
1.08477e-07
3.09142e-06
1.06563e-07
1.04734e-07
4.03104e-06
7.92396e-07
1.60952e-07
3.97419e-06
7.92396e-07
1.57806e-07
3.91562e-06
7.92393e-07
1.54575e-07
3.85499e-06
7.92387e-07
1.51225e-07
3.79227e-06
7.92378e-07
1.47746e-07
3.72768e-06
7.92366e-07
1.44136e-07
3.66183e-06
7.9235e-07
1.40417e-07
3.59557e-06
7.92331e-07
1.36636e-07
3.52921e-06
7.9231e-07
1.32853e-07
7.92286e-07
1.29063e-07
3.78261e-06
7.92602e-07
1.46681e-07
3.7307e-06
7.92598e-07
1.43805e-07
3.67683e-06
7.92592e-07
1.40832e-07
3.62071e-06
7.92584e-07
1.37727e-07
3.56261e-06
7.92573e-07
1.34488e-07
3.5034e-06
7.9256e-07
1.31139e-07
3.44489e-06
7.92545e-07
1.27752e-07
3.38986e-06
7.92526e-07
1.24463e-07
3.34135e-06
7.92503e-07
1.21464e-07
7.92475e-07
1.18925e-07
3.57146e-06
7.92785e-07
1.3453e-07
3.52497e-06
7.92777e-07
1.31933e-07
3.4774e-06
7.92768e-07
1.29278e-07
3.42878e-06
7.92758e-07
1.2655e-07
3.37968e-06
7.92745e-07
1.23767e-07
3.3311e-06
7.92731e-07
1.20968e-07
3.28455e-06
7.92714e-07
1.18227e-07
3.24181e-06
7.92695e-07
1.15645e-07
3.20395e-06
7.92674e-07
1.13333e-07
7.92651e-07
1.11314e-07
3.40799e-06
1.25045e-07
3.36786e-06
1.22779e-07
3.32743e-06
1.20498e-07
3.28677e-06
1.18192e-07
3.24632e-06
1.15877e-07
3.20676e-06
1.13583e-07
3.16901e-06
1.11356e-07
3.13388e-06
1.09258e-07
3.10098e-06
1.07328e-07
1.05485e-07
4.03576e-06
7.91625e-07
1.61429e-07
3.98074e-06
7.91613e-07
1.58387e-07
3.92385e-06
7.91596e-07
1.55257e-07
3.86466e-06
7.91576e-07
1.52e-07
3.803e-06
7.91551e-07
1.48597e-07
3.73898e-06
7.91523e-07
1.45041e-07
3.67321e-06
7.9149e-07
1.41347e-07
3.60672e-06
7.91453e-07
1.37565e-07
3.54018e-06
7.91412e-07
1.33773e-07
7.91367e-07
1.29987e-07
3.7899e-06
7.91906e-07
1.47296e-07
3.73924e-06
7.91892e-07
1.44493e-07
3.68652e-06
7.91874e-07
1.4159e-07
3.63138e-06
7.91854e-07
1.38548e-07
3.57394e-06
7.91831e-07
1.3536e-07
3.51502e-06
7.91805e-07
1.32044e-07
3.45641e-06
7.91775e-07
1.28667e-07
3.40109e-06
7.9174e-07
1.25368e-07
3.35236e-06
7.91698e-07
1.22356e-07
7.91649e-07
1.19819e-07
3.58122e-06
7.92157e-07
1.35266e-07
3.53562e-06
7.9214e-07
1.32722e-07
3.48882e-06
7.92121e-07
1.30116e-07
3.44079e-06
7.92099e-07
1.2743e-07
3.392e-06
7.92075e-07
1.24677e-07
3.34341e-06
7.92048e-07
1.21892e-07
3.29658e-06
7.92017e-07
1.19145e-07
3.25343e-06
7.91983e-07
1.16547e-07
3.21521e-06
7.91945e-07
1.14216e-07
7.91903e-07
1.12187e-07
3.41911e-06
1.25844e-07
3.37952e-06
1.23612e-07
3.33953e-06
1.21361e-07
3.29916e-06
1.19079e-07
3.25877e-06
1.16778e-07
3.21903e-06
1.14485e-07
3.18091e-06
1.12246e-07
3.14534e-06
1.10128e-07
3.112e-06
1.08178e-07
1.06319e-07
4.04425e-06
7.90866e-07
1.61506e-07
3.99077e-06
7.9084e-07
1.58576e-07
3.93534e-06
7.9081e-07
1.55555e-07
3.8774e-06
7.90775e-07
1.52401e-07
3.81668e-06
7.90734e-07
1.49089e-07
3.75316e-06
7.90688e-07
1.45604e-07
3.6874e-06
7.90637e-07
1.41954e-07
3.62061e-06
7.90581e-07
1.38193e-07
3.55379e-06
7.90519e-07
1.34413e-07
7.90452e-07
1.30657e-07
3.80038e-06
7.91221e-07
1.47521e-07
3.75078e-06
7.91195e-07
1.44802e-07
3.69904e-06
7.91165e-07
1.41982e-07
3.64471e-06
7.91132e-07
1.39017e-07
3.58782e-06
7.91096e-07
1.35895e-07
3.52908e-06
7.91055e-07
1.32628e-07
3.47027e-06
7.91009e-07
1.29278e-07
3.41453e-06
7.90956e-07
1.25987e-07
3.36547e-06
7.90896e-07
1.22977e-07
7.90824e-07
1.20459e-07
3.59343e-06
7.91536e-07
1.35615e-07
3.54855e-06
7.91509e-07
1.33133e-07
3.50238e-06
7.91479e-07
1.30589e-07
3.45482e-06
7.91446e-07
1.27957e-07
3.40625e-06
7.91409e-07
1.25247e-07
3.35757e-06
7.91368e-07
1.22491e-07
3.31037e-06
7.91322e-07
1.19755e-07
3.26672e-06
7.91272e-07
1.17155e-07
3.22806e-06
7.91216e-07
1.14822e-07
7.91153e-07
1.12798e-07
3.43211e-06
1.26253e-07
3.39294e-06
1.24065e-07
3.35328e-06
1.21856e-07
3.3131e-06
1.1961e-07
3.2727e-06
1.17336e-07
3.23273e-06
1.15057e-07
3.19416e-06
1.12822e-07
3.15808e-06
1.10698e-07
3.12426e-06
1.08744e-07
1.06882e-07
4.05607e-06
7.90118e-07
4.00387e-06
7.90079e-07
3.94966e-06
7.90034e-07
3.8928e-06
7.89983e-07
3.83288e-06
7.89925e-07
3.76977e-06
7.89862e-07
3.70396e-06
7.89791e-07
3.63678e-06
7.89714e-07
3.56959e-06
7.89631e-07
7.8954e-07
3.81367e-06
7.90543e-07
3.76493e-06
7.90505e-07
3.71399e-06
7.90463e-07
3.66033e-06
7.90417e-07
3.60387e-06
7.90366e-07
3.5452e-06
7.90309e-07
3.4861e-06
7.90246e-07
3.42983e-06
7.90175e-07
3.38034e-06
7.90094e-07
7.89998e-07
3.60782e-06
7.90922e-07
3.5635e-06
7.90884e-07
3.51782e-06
7.90843e-07
3.4706e-06
7.90797e-07
3.42215e-06
7.90746e-07
3.3733e-06
7.9069e-07
3.32566e-06
7.90628e-07
3.28143e-06
7.9056e-07
3.24225e-06
7.90486e-07
7.90402e-07
3.44681e-06
3.40793e-06
3.36849e-06
3.3284e-06
3.28793e-06
3.24765e-06
3.20859e-06
3.17193e-06
3.13756e-06
)
;

boundaryField
{
    inlet
    {
        type            calculated;
        value           uniform 0;
    }
    outlet
    {
        type            calculated;
        value           nonuniform 0();
    }
    bottom
    {
        type            calculated;
        value           uniform 0;
    }
    top
    {
        type            symmetryPlane;
        value           uniform 0;
    }
    side1
    {
        type            symmetryPlane;
        value           nonuniform 0();
    }
    side2
    {
        type            symmetryPlane;
        value           nonuniform 0();
    }
    procBoundary16to8
    {
        type            processor;
        value           nonuniform List<scalar> 
50
(
-7.92989e-07
-7.93018e-07
-7.93042e-07
-7.93061e-07
-7.93076e-07
-7.93086e-07
-7.93093e-07
-7.93095e-07
-7.93094e-07
-7.93092e-07
-7.9214e-07
-7.92152e-07
-7.92158e-07
-7.92159e-07
-7.92155e-07
-7.92146e-07
-7.92131e-07
-7.92112e-07
-7.9209e-07
-7.92066e-07
-7.91296e-07
-7.91292e-07
-7.91281e-07
-7.91263e-07
-7.91239e-07
-7.91208e-07
-7.91172e-07
-7.91131e-07
-7.91085e-07
-7.91037e-07
-7.90466e-07
-7.90444e-07
-7.90415e-07
-7.90379e-07
-7.90334e-07
-7.90282e-07
-7.90223e-07
-7.90157e-07
-7.90088e-07
-7.90014e-07
-7.89647e-07
-7.89609e-07
-7.89562e-07
-7.89507e-07
-7.89441e-07
-7.89367e-07
-7.89283e-07
-7.89193e-07
-7.89097e-07
-7.88996e-07
)
;
    }
    procBoundary16to17
    {
        type            processor;
        value           nonuniform List<scalar> 
20
(
3.47429e-06
3.29596e-06
3.1618e-06
3.05925e-06
3.47987e-06
3.30327e-06
3.16984e-06
3.06761e-06
3.48886e-06
3.31307e-06
3.17978e-06
3.07742e-06
3.50061e-06
3.32493e-06
3.19129e-06
3.08843e-06
3.51463e-06
3.33849e-06
3.20412e-06
3.10047e-06
)
;
    }
    procBoundary16to24
    {
        type            processor;
        value           nonuniform List<scalar> 
50
(
7.93532e-07
7.9353e-07
7.93528e-07
7.93526e-07
7.93523e-07
7.93521e-07
7.93518e-07
7.93515e-07
7.93514e-07
7.93516e-07
7.92961e-07
7.92951e-07
7.9294e-07
7.92928e-07
7.92915e-07
7.92901e-07
7.92886e-07
7.92871e-07
7.92857e-07
7.92845e-07
7.92391e-07
7.92373e-07
7.92353e-07
7.92331e-07
7.92307e-07
7.92281e-07
7.92252e-07
7.92223e-07
7.92195e-07
7.92169e-07
7.91827e-07
7.918e-07
7.9177e-07
7.91737e-07
7.91701e-07
7.91662e-07
7.9162e-07
7.91576e-07
7.91532e-07
7.91491e-07
7.91268e-07
7.91231e-07
7.91191e-07
7.91146e-07
7.91098e-07
7.91045e-07
7.90988e-07
7.90928e-07
7.90868e-07
7.90811e-07
)
;
    }
}


// ************************************************************************* //
