/*--------------------------------*- C++ -*----------------------------------*\
| =========                 |                                                 |
| \\      /  F ield         | OpenFOAM: The Open Source CFD Toolbox           |
|  \\    /   O peration     | Version:  2.4.0                                 |
|   \\  /    A nd           | Web:      www.OpenFOAM.org                      |
|    \\/     M anipulation  |                                                 |
\*---------------------------------------------------------------------------*/
FoamFile
{
    version     2.0;
    format      ascii;
    class       volVectorField;
    location    "0.16";
    object      Ub;
}
// * * * * * * * * * * * * * * * * * * * * * * * * * * * * * * * * * * * * * //

dimensions      [0 1 -1 0 0 0 0];

internalField   nonuniform List<vector> 
200
(
(-1.0029e+15 1.12935e+14 3.47109e+14)
(-1.04e+15 -1.01924e+15 -9.28483e+13)
(-1.24503e+15 -4.26097e+14 4.98344e+14)
(-2.60647e+14 -4.45354e+14 1.16495e+15)
(-1.14734e+15 -2.02459e+15 -1.82577e+15)
(-4.59237e+14 9.91475e+14 -5.90427e+14)
(-9.03752e+14 -8.96496e+14 -7.20619e+14)
(-6.06486e+14 6.22489e+14 -3.39312e+14)
(-7.21849e+14 -3.29939e+14 -1.24607e+14)
(-5.99263e+14 3.60582e+14 -2.024e+14)
(-1.12451e+15 -1.26631e+15 -1.61217e+13)
(-1.50339e+15 -5.48446e+14 5.90003e+14)
(-2.46963e+14 -8.19649e+14 1.17935e+15)
(-1.76258e+15 -2.343e+15 -1.77199e+15)
(-7.60796e+14 1.53459e+15 -1.43939e+15)
(-1.14405e+15 -1.10392e+15 -9.02197e+14)
(-6.74086e+14 7.95132e+14 -7.459e+14)
(-7.48591e+14 -5.00045e+14 -3.06167e+14)
(-5.98074e+14 4.57451e+14 -4.13413e+14)
(-5.46396e+14 -3.91661e+14 3.09578e+13)
(-1.73856e+15 -1.78354e+14 7.14977e+14)
(-2.92768e+14 -1.09743e+15 1.47081e+15)
(-2.54109e+15 -3.22332e+15 -2.24899e+15)
(-1.16376e+15 3.17826e+15 -2.90533e+15)
(-1.50953e+15 -1.78222e+15 -1.26218e+15)
(-7.95927e+14 1.18649e+15 -1.32141e+15)
(-8.52764e+14 -8.9088e+14 -5.69537e+14)
(-5.85995e+14 6.88582e+14 -7.77695e+14)
(-5.11572e+14 -4.95262e+14 -1.03028e+14)
(-5.10755e+14 4.65205e+14 -2.94007e+14)
(-9.40331e+14 -1.09295e+15 1.37704e+15)
(-3.60569e+15 -3.60145e+15 -2.33467e+15)
(-1.73317e+15 5.11773e+15 -4.31245e+15)
(-1.85768e+15 -2.78692e+15 -1.51685e+15)
(-7.94612e+14 2.35365e+15 -2.1573e+15)
(-9.62522e+14 -1.5986e+15 -8.23694e+14)
(-4.95945e+14 1.20412e+15 -1.22456e+15)
(-3.88946e+14 -7.51551e+14 -3.07831e+14)
(-3.43887e+14 5.62558e+14 -5.29702e+14)
(-2.61438e+14 -6.92378e+14 3.17493e+13)
(-8.75957e+14 -5.04431e+14 -3.08654e+14)
(-6.7782e+14 1.55586e+14 3.70088e+14)
(-6.71207e+14 -1.03134e+14 -7.353e+13)
(-3.44306e+14 -5.34291e+14 -1.63826e+14)
(1.10563e+13 4.05469e+14 3.83056e+14)
(-5.28368e+14 -5.60525e+14 -5.98249e+14)
(-4.77325e+14 2.81707e+14 5.64732e+13)
(-7.20674e+14 -7.13138e+13 -1.09558e+14)
(-7.48823e+14 1.12351e+14 -3.5167e+13)
(-6.87542e+14 -1.51492e+12 9.22366e+13)
(-4.22758e+14 -9.47496e+13 1.2388e+14)
(-4.08311e+14 -1.03472e+14 -1.86925e+14)
(-1.81382e+14 -3.81739e+14 1.69678e+13)
(1.35753e+14 3.45359e+14 1.08309e+14)
(-5.65775e+14 -6.58836e+14 -8.69949e+14)
(-4.2994e+14 4.46699e+14 -4.29683e+14)
(-6.61527e+14 -1.08605e+14 -3.33531e+14)
(-7.18765e+14 2.25944e+14 -2.51582e+14)
(-6.72119e+14 -3.8938e+13 -1.19627e+13)
(-7.4417e+14 4.57419e+13 1.48691e+13)
(-1.02473e+14 -3.31616e+12 -2.15292e+14)
(6.2184e+13 -1.11895e+14 2.31779e+14)
(4.28417e+14 2.96607e+14 2.70522e+14)
(-8.0045e+14 -1.25241e+15 -1.31223e+15)
(-8.7399e+13 6.53782e+14 -5.1025e+14)
(-6.57793e+14 -2.99731e+14 -5.50872e+14)
(-6.65249e+14 3.16206e+14 -5.28222e+14)
(-6.38329e+14 -1.28338e+14 -1.58316e+14)
(-7.1365e+14 9.75748e+13 -1.31734e+14)
(-6.21826e+14 -1.72795e+14 2.253e+14)
(4.36519e+14 -1.51312e+14 6.34387e+13)
(5.81869e+14 2.26933e+14 1.92235e+14)
(-5.87893e+14 -1.44809e+15 -1.2601e+15)
(2.82271e+14 7.02566e+14 -4.14429e+14)
(-4.53799e+14 -4.5615e+14 -5.89723e+14)
(-4.98836e+14 4.76262e+14 -7.34837e+14)
(-4.86013e+14 -2.60766e+14 -3.17627e+14)
(-5.81351e+14 1.70807e+14 -3.27409e+14)
(-5.55465e+14 -1.85928e+14 1.54905e+14)
(-6.68125e+14 1.56132e+14 1.02068e+13)
(-5.92473e+14 -2.66618e+14 -9.7615e+13)
(-8.31952e+14 2.39616e+14 -2.69108e+14)
(-5.45418e+14 -1.01984e+14 -1.04659e+14)
(-7.35974e+14 6.76108e+13 -3.0555e+14)
(-5.66116e+14 -2.43089e+13 -2.0275e+14)
(-5.84671e+14 -6.9715e+13 -2.82323e+14)
(-4.67861e+14 2.30079e+14 -1.66238e+14)
(-5.6343e+14 -1.23012e+14 -1.3987e+14)
(-4.71329e+14 2.46261e+13 -4.12015e+13)
(-5.2918e+14 -6.91899e+13 -1.38028e+13)
(-5.37914e+14 7.10487e+14 -3.48755e+14)
(-3.22292e+14 -2.83141e+14 -2.09554e+14)
(-5.75805e+14 3.51735e+14 -3.91631e+14)
(-3.65116e+14 -1.2472e+14 -2.99924e+14)
(-5.35727e+14 8.14181e+13 -4.53953e+14)
(-4.77643e+14 -3.97288e+13 -3.59801e+14)
(-6.06016e+14 -7.34867e+13 -2.9611e+14)
(-4.61493e+14 1.55552e+13 -1.44314e+14)
(-5.80905e+14 -9.15381e+13 -1.55719e+14)
(-4.69156e+14 -3.35021e+13 -2.63777e+12)
(-6.52971e+13 -4.34521e+14 -2.48711e+14)
(-2.68842e+14 7.28833e+14 -3.68895e+14)
(-7.32074e+13 -2.47886e+14 -3.10713e+14)
(-2.99099e+14 3.40419e+14 -6.02672e+14)
(-2.74059e+14 -2.15166e+14 -5.2454e+14)
(-5.36192e+14 -7.08364e+13 -4.45396e+14)
(-4.24452e+14 -4.64405e+13 -2.21092e+14)
(-5.77489e+14 -1.11008e+14 -2.55693e+14)
(-4.93947e+14 -5.44172e+13 -8.72081e+13)
(-5.49628e+14 -5.24514e+13 -9.44972e+13)
(-3.51679e+13 8.98891e+14 -3.14702e+14)
(2.40326e+14 -4.29757e+14 -3.36243e+14)
(4.88798e+13 7.94015e+14 -6.04052e+14)
(8.23939e+13 -3.63616e+14 -6.11385e+14)
(-1.25094e+14 3.8305e+14 -6.65187e+14)
(-1.81974e+14 -1.39095e+14 -3.88016e+14)
(-3.91574e+14 -8.51378e+13 -3.44756e+14)
(-3.84245e+14 -3.22121e+13 -1.56519e+14)
(-4.78737e+14 -5.12989e+13 -1.48382e+14)
(-4.22339e+14 -5.04149e+13 1.13845e+14)
(-5.37682e+14 4.68624e+14 -2.68178e+14)
(-4.27269e+14 -1.16005e+14 -1.07381e+14)
(-5.56444e+14 4.31776e+13 -3.66127e+14)
(-5.34094e+14 -1.47747e+14 -2.84777e+14)
(-4.36658e+14 -2.65513e+14 -3.5223e+14)
(-1.63769e+14 9.31084e+14 -2.15049e+14)
(-3.83937e+14 -1.13473e+14 -5.7844e+13)
(-3.13699e+14 2.60063e+14 -1.44343e+14)
(-2.89642e+14 -6.17838e+13 -1.28232e+14)
(-2.80279e+14 -4.91799e+14 3.7288e+13)
(-2.28476e+14 -1.27771e+14 -8.36736e+13)
(-4.33283e+14 4.7066e+14 -3.43579e+14)
(-3.17773e+14 -1.76159e+14 -2.15121e+14)
(-4.50073e+14 -5.18458e+13 -4.13378e+14)
(-4.07141e+14 -1.08952e+14 -3.51121e+14)
(-4.22807e+14 -2.33821e+14 -1.65732e+14)
(-1.81433e+14 3.28547e+14 -1.70377e+14)
(-3.16497e+14 -1.14522e+14 -1.70112e+14)
(-1.68111e+14 5.67289e+13 -1.16345e+14)
(-2.61443e+14 -5.27294e+13 -1.23521e+14)
(-2.84927e+14 7.98187e+14 -2.64672e+14)
(-9.569e+13 -2.29442e+14 -1.25507e+14)
(-3.07661e+14 2.84231e+14 -3.99882e+14)
(-1.69253e+14 -2.39874e+14 -3.32933e+14)
(-3.74414e+14 -2.43217e+14 -2.43002e+14)
(-3.08388e+14 3.07747e+13 -2.02949e+14)
(-3.89741e+14 -1.37099e+14 -2.11623e+14)
(-2.65176e+14 2.64747e+13 -1.24574e+14)
(-3.31382e+14 -6.4132e+13 -1.32392e+14)
(-2.72066e+14 -3.42589e+13 -2.74592e+13)
(1.21144e+14 -3.68195e+14 -1.22134e+14)
(-7.14509e+13 8.03104e+14 -2.73672e+14)
(1.28731e+14 -3.12758e+14 -2.00111e+14)
(-1.27266e+14 2.01568e+14 -4.2637e+14)
(-4.65301e+13 -7.73115e+13 -2.49348e+14)
(-2.94081e+14 -1.69218e+14 -2.32527e+14)
(-2.42481e+14 3.78271e+13 -1.49575e+14)
(-3.26381e+14 -7.2111e+13 -1.76343e+14)
(-2.76522e+14 3.44119e+11 -4.82249e+13)
(-3.17142e+14 -3.33423e+13 -1.00787e+14)
(-3.32485e+14 -1.5242e+14 -1.53377e+14)
(-3.57192e+14 -8.76635e+12 -3.83312e+14)
(-4.58927e+14 -1.72802e+14 -1.83773e+14)
(-3.88906e+14 -2.03334e+14 -3.39092e+14)
(-3.15233e+14 7.09843e+14 -2.16519e+14)
(-3.53345e+14 -1.37706e+13 -2.17846e+13)
(-3.90591e+14 7.11006e+14 -1.34079e+14)
(-3.14059e+14 7.6161e+13 1.60347e+13)
(-4.10832e+14 2.45735e+14 -7.8296e+13)
(-2.71051e+14 9.49276e+13 -1.71704e+14)
(1.04659e+12 1.88641e+14 -3.70242e+14)
(-1.82927e+13 -2.09668e+14 -1.20425e+14)
(-1.98828e+14 -2.00153e+14 -3.04097e+14)
(-2.20536e+14 -1.76817e+14 -1.55112e+14)
(-2.82905e+14 -3.2849e+14 3.82321e+13)
(-1.7065e+14 7.12199e+14 -1.88575e+14)
(-2.27365e+14 -4.63217e+13 -6.59456e+13)
(-1.85352e+14 5.14058e+14 -1.5253e+14)
(-1.62993e+14 2.30035e+13 -8.70695e+13)
(-2.9201e+14 1.55003e+14 -1.11234e+14)
(4.68755e+14 -4.90213e+13 7.41334e+13)
(1.72898e+14 9.51388e+11 -6.13699e+13)
(2.90654e+14 -1.28791e+14 4.16071e+13)
(6.04572e+13 -1.98712e+14 -5.60866e+12)
(-4.11925e+13 9.67181e+13 -1.00882e+14)
(-1.63729e+14 -1.51553e+14 -1.63532e+14)
(-5.33447e+13 2.61884e+14 -1.52531e+14)
(-1.10052e+14 -3.855e+13 -1.49075e+14)
(-3.15196e+13 1.2823e+14 -8.20177e+13)
(-6.42474e+13 6.59906e+12 -1.3864e+14)
(9.24792e+13 -2.28172e+13 -6.11374e+12)
(5.63552e+14 4.48673e+13 2.4855e+14)
(8.50696e+13 -3.00303e+13 -5.15133e+13)
(3.71145e+14 1.35328e+13 1.67831e+14)
(-2.98229e+12 -1.42386e+14 -1.43073e+14)
(1.9741e+13 1.14987e+14 -1.49991e+14)
(-8.84447e+13 -6.50751e+13 -1.90274e+14)
(-4.41301e+13 4.02513e+13 -8.20638e+13)
(-1.26012e+14 -2.87087e+13 -1.45687e+14)
(-9.74974e+13 1.1941e+13 -4.30837e+13)
)
;

boundaryField
{
    inlet
    {
        type            fixedValue;
        value           nonuniform 0();
    }
    outlet
    {
        type            zeroGradient;
    }
    bottom
    {
        type            fixedValue;
        value           uniform (0 0 0);
    }
    top
    {
        type            symmetryPlane;
    }
    side1
    {
        type            symmetryPlane;
    }
    side2
    {
        type            symmetryPlane;
    }
    procBoundary25to17
    {
        type            processor;
        value           nonuniform List<vector> 
50
(
(-1.16246e+15 -1.62e+15 -3.54534e+14)
(-8.40689e+14 4.36814e+14 5.12689e+14)
(-7.95931e+14 -5.23936e+14 -7.20673e+13)
(-9.55827e+14 -8.26604e+13 4.68176e+14)
(-2.23757e+14 1.68751e+13 1.3688e+15)
(-8.16115e+14 -2.38237e+15 -2.34888e+15)
(-3.22936e+14 7.73634e+14 -1.14612e+14)
(-6.84827e+14 -8.51681e+14 -6.3398e+14)
(-5.24671e+14 5.83182e+14 -1.24728e+14)
(-5.83553e+14 -1.3268e+14 -9.83775e+11)
(-7.61608e+14 3.76221e+14 3.87484e+14)
(-9.1007e+14 -3.90578e+14 -4.17822e+13)
(-7.04408e+14 2.7516e+14 5.89308e+14)
(-7.13745e+14 2.70302e+13 1.05869e+14)
(-4.04457e+14 6.8369e+13 4.51345e+14)
(-3.2269e+14 1.35651e+14 6.80173e+14)
(-5.57129e+14 -8.04324e+14 -6.11967e+14)
(-6.55538e+14 2.66094e+14 1.20609e+14)
(-7.39257e+14 -1.05323e+13 5.05071e+13)
(-7.7336e+14 9.53629e+13 1.21327e+14)
(-9.15196e+14 -1.06738e+14 -1.92943e+14)
(-6.67334e+14 -4.00869e+13 1.14894e+14)
(-8.61072e+14 1.24211e+12 -1.2948e+14)
(-5.97339e+14 -3.08715e+13 8.18661e+13)
(-6.85887e+14 -2.80618e+13 -1.09702e+14)
(-4.33024e+14 2.82897e+14 6.42563e+12)
(-5.74597e+14 -3.0853e+13 2.84184e+13)
(-5.68053e+14 2.59728e+13 6.24038e+12)
(-5.74398e+14 -7.95421e+13 -1.6808e+13)
(-5.27637e+14 2.35259e+13 5.35926e+13)
(-4.38666e+14 -7.92477e+13 6.77517e+13)
(-6.38328e+14 2.62948e+13 -2.27311e+14)
(-5.43659e+14 -1.54322e+14 -2.01174e+14)
(-5.1232e+14 -1.30483e+14 -3.39081e+14)
(-2.99811e+14 7.00452e+14 -1.82026e+14)
(-4.71056e+14 -7.16376e+13 4.74611e+12)
(-4.83893e+14 2.62829e+14 2.56352e+13)
(-4.60608e+14 -7.78358e+13 -6.89458e+13)
(-5.22076e+14 1.16893e+14 -7.65748e+13)
(-3.62913e+14 7.66539e+13 -6.94446e+13)
(-4.08418e+14 1.50224e+14 -3.52847e+14)
(-5.48765e+14 -3.75213e+13 -1.75529e+14)
(-3.84805e+14 -4.73631e+13 -3.06606e+14)
(-3.84552e+14 6.84061e+14 -1.86961e+14)
(-4.17974e+14 6.18119e+13 5.89991e+12)
(-4.73818e+14 6.97623e+14 -7.84228e+13)
(-4.20618e+14 1.67254e+14 9.37332e+13)
(-4.89869e+14 5.39548e+14 1.56386e+13)
(-3.91177e+14 2.61324e+14 2.337e+13)
(-3.81089e+14 1.3818e+14 8.02297e+13)
)
;
    }
    procBoundary25to24
    {
        type            processor;
        value           nonuniform List<vector> 
20
(
(-1.34979e+15 -2.20942e+15 -3.81218e+14)
(-9.45499e+14 -8.23471e+13 2.36995e+14)
(-1.08065e+15 -1.18721e+15 9.24093e+13)
(-1.51175e+15 3.52155e+14 7.40867e+14)
(-7.18626e+14 1.13644e+14 2.65029e+13)
(-6.12341e+14 -4.56881e+14 -3.98568e+14)
(-1.04618e+14 -1.92511e+14 2.04619e+13)
(7.05337e+12 1.65246e+14 -2.47555e+14)
(-7.51168e+14 4.33051e+14 -3.53654e+14)
(-2.48106e+14 -4.7192e+14 -2.20636e+14)
(-2.9552e+14 8.50354e+14 -3.0767e+14)
(8.36582e+13 -3.85692e+14 -2.55143e+14)
(-2.78753e+14 -9.12212e+13 8.97389e+12)
(-4.16803e+14 8.37029e+14 -2.88766e+14)
(-3.49794e+13 -2.38448e+14 -1.11615e+14)
(-1.88526e+14 9.85024e+14 -1.71874e+14)
(-2.54851e+14 3.94275e+14 -4.8735e+14)
(1.09485e+14 -1.75255e+14 -1.00384e+14)
(1.59579e+14 -3.15185e+13 -4.42618e+13)
(6.09479e+14 1.01481e+14 2.66896e+14)
)
;
    }
    procBoundary25to26
    {
        type            processor;
        value           nonuniform List<vector> 
20
(
(-5.1739e+14 -2.68451e+14 8.95858e+13)
(-6.0892e+14 3.88834e+14 -9.94734e+13)
(-3.9372e+14 -6.60487e+14 1.21377e+14)
(-4.10741e+14 4.52006e+14 -1.00591e+14)
(-7.59191e+14 1.34437e+13 9.02089e+13)
(-6.37486e+14 -1.03517e+14 2.20967e+14)
(-7.43495e+14 1.41866e+14 1.08921e+14)
(-6.67988e+14 -2.6921e+14 1.72006e+14)
(-4.75312e+14 -6.05013e+13 1.24403e+14)
(-5.22397e+14 -5.71601e+13 -1.90863e+13)
(-4.5834e+14 -4.67932e+13 9.85697e+13)
(-4.86314e+14 7.7422e+13 2.51044e+13)
(-7.40742e+13 -9.30955e+13 -3.11502e+13)
(-3.39999e+14 6.37738e+13 -1.31353e+13)
(-2.82275e+14 -5.19449e+13 -6.11216e+13)
(-2.57187e+14 1.58634e+13 7.4082e+12)
(-5.23484e+14 3.85047e+14 -2.22989e+14)
(-1.55166e+14 -7.87889e+13 -2.18924e+14)
(-6.86128e+13 3.91844e+13 -3.14581e+13)
(-1.56997e+14 -2.96167e+13 -1.15656e+14)
)
;
    }
}


// ************************************************************************* //
