/*--------------------------------*- C++ -*----------------------------------*\
| =========                 |                                                 |
| \\      /  F ield         | OpenFOAM: The Open Source CFD Toolbox           |
|  \\    /   O peration     | Version:  2.4.0                                 |
|   \\  /    A nd           | Web:      www.OpenFOAM.org                      |
|    \\/     M anipulation  |                                                 |
\*---------------------------------------------------------------------------*/
FoamFile
{
    version     2.0;
    format      ascii;
    class       volSymmTensorField;
    location    "0.15";
    object      B;
}
// * * * * * * * * * * * * * * * * * * * * * * * * * * * * * * * * * * * * * //

dimensions      [0 2 -2 0 0 0 0];

internalField   nonuniform List<symmTensor> 
200
(
(5.39512e+29 3.34081e+28 -6.34527e+27 4.33779e+29 -1.27423e+28 3.71124e+29)
(4.10689e+29 -3.72902e+29 -1.38586e+29 6.18725e+29 -9.38743e+28 6.06295e+29)
(5.43863e+29 -5.8133e+28 -7.97927e+28 6.02491e+29 -4.17501e+28 5.32058e+29)
(2.43941e+30 7.88032e+28 9.77741e+27 2.32453e+30 -3.26712e+28 2.36611e+30)
(6.0756e+29 6.24125e+28 1.41911e+28 6.5057e+29 2.36022e+28 6.43576e+29)
(1.28464e+29 1.58768e+28 -2.47816e+28 1.50085e+29 4.08446e+28 1.77656e+29)
(2.57814e+29 2.52636e+28 -5.38478e+28 3.20217e+29 5.91527e+28 3.43589e+29)
(4.38173e+29 7.45573e+28 -1.45864e+29 5.60386e+29 1.30496e+29 5.67436e+29)
(5.20907e+29 2.09922e+29 -1.58966e+29 2.63674e+29 2.15092e+29 4.13133e+29)
(2.77729e+30 5.96211e+29 -5.02086e+28 1.43883e+30 3.8568e+29 1.97615e+30)
(2.81222e+29 -3.57631e+28 -4.06024e+28 1.52673e+29 -3.74707e+28 1.2029e+29)
(3.10605e+29 7.69294e+28 -2.42473e+28 2.94862e+29 7.04579e+27 2.51498e+29)
(9.04338e+29 -6.84339e+28 -2.82901e+29 7.70635e+29 -1.27698e+29 6.54228e+29)
(3.41862e+29 1.92689e+28 -8.53052e+27 3.59102e+29 -1.9763e+28 2.28905e+29)
(1.19211e+30 8.71522e+28 6.04946e+28 1.16264e+30 1.30611e+28 1.17684e+30)
(1.89258e+29 2.72939e+28 -1.29326e+28 1.90991e+29 1.90381e+28 2.32284e+29)
(2.36473e+29 6.01012e+28 -2.77864e+28 2.16613e+29 4.16197e+28 2.70101e+29)
(2.12467e+29 9.70372e+27 -1.69676e+28 2.13327e+29 6.38462e+28 2.88622e+29)
(1.87597e+29 -1.71035e+28 -1.06854e+29 2.36898e+29 7.73292e+28 3.37949e+29)
(2.36391e+29 1.09635e+29 -1.67081e+29 7.59134e+28 1.42336e+29 1.93683e+29)
(3.03801e+30 -2.21278e+28 -3.82115e+29 3.19025e+30 2.05274e+28 3.07695e+30)
(1.52087e+30 -3.18886e+29 -3.9299e+29 8.751e+29 -1.3317e+29 9.07991e+29)
(3.69288e+29 2.53098e+28 2.01661e+27 2.93664e+29 -5.88389e+28 1.73326e+29)
(3.10748e+30 7.41365e+28 5.11399e+28 3.15672e+30 2.85076e+28 3.10744e+30)
(3.98531e+28 1.7905e+28 4.33647e+27 5.57171e+28 1.33236e+28 6.45276e+28)
(1.11791e+29 1.33617e+28 -8.69336e+27 9.45903e+28 1.52695e+28 1.24123e+29)
(2.00102e+29 2.53515e+28 -1.13471e+28 1.6457e+29 1.83115e+28 2.19005e+29)
(9.32203e+28 2.54455e+28 -1.00778e+28 4.87984e+28 2.11427e+28 1.1419e+29)
(2.3675e+29 2.46689e+28 -3.07988e+28 2.32113e+29 3.25136e+28 2.66903e+29)
(3.96698e+29 6.94582e+28 -4.78762e+28 3.89696e+29 7.42859e+28 4.24936e+29)
(1.94631e+29 2.66007e+28 -5.48597e+28 8.10823e+28 1.03509e+28 -3.89229e+28)
(1.36833e+29 2.38313e+28 2.6988e+28 1.12443e+29 -2.95673e+28 2.81569e+28)
(2.25862e+30 4.03419e+28 3.56319e+28 2.32922e+30 3.26872e+28 2.26996e+30)
(2.00628e+28 3.59977e+27 1.08413e+27 4.66337e+28 9.62352e+27 4.97122e+28)
(2.87565e+28 8.00673e+27 -4.27809e+27 2.60589e+28 8.11514e+27 4.39362e+28)
(3.84811e+28 7.44945e+26 -5.23944e+27 2.92579e+28 6.01286e+27 4.49714e+28)
(4.21808e+28 8.40841e+27 -7.32458e+27 2.74204e+28 1.28031e+28 5.94019e+28)
(2.44877e+28 2.25333e+28 -1.08568e+28 1.57358e+28 2.23463e+28 6.88085e+28)
(1.97645e+29 2.57286e+28 -2.40339e+28 1.24348e+29 2.23324e+28 1.87611e+29)
(3.16058e+29 1.31901e+28 -2.28703e+28 2.70383e+29 3.11873e+28 2.95415e+29)
(9.04868e+28 -4.81102e+28 5.60328e+28 1.96821e+29 -6.72559e+27 1.94466e+29)
(4.47553e+29 3.5582e+28 7.29879e+28 5.28779e+29 -3.26975e+27 5.36095e+29)
(5.32718e+29 3.3618e+28 1.78279e+28 4.90114e+29 8.19292e+27 5.41615e+29)
(1.84283e+29 6.49761e+28 1.3875e+28 1.3331e+29 -2.2414e+27 2.69862e+29)
(4.33463e+28 2.58405e+28 1.58161e+28 3.97879e+28 -2.51599e+28 1.0419e+29)
(3.31057e+29 4.74919e+28 4.97608e+28 6.14488e+29 2.14133e+28 5.49124e+29)
(2.13859e+28 2.05493e+28 1.44717e+28 1.31391e+29 -1.5474e+28 9.32723e+28)
(7.35529e+29 1.99621e+29 -1.53771e+29 5.23404e+29 3.3829e+29 -2.26248e+29)
(1.03585e+30 1.77605e+29 -3.69597e+28 7.02743e+29 3.89123e+28 9.11915e+29)
(2.55455e+30 2.38435e+29 -6.22273e+29 1.6355e+30 1.78991e+29 1.04861e+30)
(7.1225e+29 6.91085e+28 3.71967e+28 8.60219e+29 4.2085e+28 8.41092e+29)
(2.93762e+29 -6.59754e+28 -4.36953e+28 1.76793e+29 -5.95936e+28 2.78132e+29)
(1.07936e+29 -4.30332e+28 -7.34516e+28 -3.61901e+28 -1.0319e+29 1.53073e+29)
(5.99084e+29 3.47598e+28 2.52389e+28 6.04394e+29 9.79294e+27 6.61985e+29)
(8.43379e+29 6.88231e+28 8.37082e+28 8.48617e+29 -4.61373e+27 8.92322e+29)
(1.62923e+29 2.28855e+28 3.26686e+28 1.69843e+29 -1.00304e+28 2.17982e+29)
(1.13371e+29 5.27832e+28 -1.17526e+28 1.37594e+29 -2.79767e+27 2.02477e+29)
(1.5641e+29 3.41888e+28 -8.38587e+26 9.35273e+28 -1.60056e+28 1.424e+29)
(4.31037e+29 1.39356e+29 -7.11905e+28 1.1371e+29 1.16301e+29 -5.05187e+28)
(1.19607e+30 1.78797e+29 -2.96688e+28 9.91557e+29 3.21594e+28 1.17922e+30)
(3.10535e+29 -6.65944e+28 -1.49437e+28 5.14763e+28 -7.42817e+28 2.74761e+29)
(6.05352e+29 -1.8491e+29 -1.21477e+29 2.62753e+29 -1.13676e+29 5.03871e+29)
(1.30598e+30 4.05714e+28 2.48987e+28 1.35276e+30 2.93317e+28 1.36997e+30)
(1.02508e+30 6.84333e+28 3.90315e+28 1.1064e+30 1.6953e+28 1.09524e+30)
(1.47287e+29 2.07716e+28 2.27314e+28 1.46083e+29 6.66031e+26 1.60067e+29)
(2.85004e+29 1.06487e+28 2.04878e+28 2.64502e+29 -1.75039e+28 2.97062e+29)
(1.64152e+29 2.02418e+28 5.27757e+27 1.46156e+29 -2.28524e+28 1.98515e+29)
(1.29078e+29 7.52608e+28 -2.40014e+28 1.69639e+29 -2.45169e+28 2.66967e+29)
(2.29795e+29 9.31134e+28 1.31798e+27 2.52597e+29 -1.47959e+28 2.89222e+29)
(1.85706e+29 5.55792e+28 -5.78755e+27 1.59604e+29 8.54143e+27 1.55802e+29)
(3.16571e+29 -1.26984e+29 -8.14328e+28 2.1943e+29 -3.55242e+28 2.9872e+29)
(8.44588e+29 2.10437e+28 1.60653e+28 8.84035e+29 1.92007e+28 8.77487e+29)
(8.41327e+29 3.02078e+28 2.60258e+28 9.1253e+29 1.46365e+28 8.80609e+29)
(3.02206e+28 8.90555e+27 1.05666e+28 3.24559e+28 2.39636e+27 3.84772e+28)
(1.796e+28 4.61669e+27 2.69768e+27 1.12774e+28 -1.80528e+27 2.09296e+28)
(4.72823e+28 1.29556e+28 4.63544e+27 3.76591e+28 -5.82708e+27 5.76022e+28)
(5.86954e+28 1.64254e+28 3.69944e+27 6.22178e+28 -9.20618e+27 8.31336e+28)
(5.81103e+28 2.43621e+28 -2.6202e+27 7.15231e+28 -8.9318e+27 9.31514e+28)
(1.0733e+29 4.12872e+28 -9.40617e+27 1.31492e+29 -3.93152e+27 1.663e+29)
(2.09878e+29 2.12011e+28 -2.89494e+28 1.58391e+29 -6.57251e+27 2.42937e+29)
(5.30567e+29 5.97615e+27 5.31052e+28 6.22361e+29 3.78676e+28 6.42345e+29)
(1.09632e+29 1.94941e+28 1.53863e+28 1.01596e+29 -4.62626e+27 1.20794e+29)
(3.09144e+29 3.80884e+28 1.24348e+28 2.76244e+29 -2.57164e+27 3.07875e+29)
(3.90787e+28 -4.39367e+27 3.55394e+28 4.2796e+28 -1.27464e+28 6.96621e+28)
(1.10611e+29 -3.77912e+28 5.78244e+28 7.0363e+28 -8.53528e+27 1.02078e+29)
(1.80814e+29 -2.72828e+28 2.12046e+28 1.07788e+29 -7.87789e+28 1.10782e+29)
(7.05873e+30 2.52924e+29 -5.6164e+29 6.97028e+30 7.7373e+28 6.99133e+30)
(6.60746e+29 3.628e+29 1.04558e+29 7.59617e+29 -5.08163e+27 9.48246e+29)
(1.08133e+30 -8.16026e+29 3.27618e+29 -7.1396e+28 2.69686e+29 4.20312e+28)
(1.16258e+30 -1.92821e+28 -8.43346e+28 9.08737e+29 -2.33132e+28 9.60187e+29)
(-1.20676e+27 1.70766e+28 3.56727e+26 2.37052e+27 -1.76336e+28 2.87548e+28)
(4.27673e+28 1.91527e+27 -1.49218e+28 5.8356e+28 -3.07445e+28 7.50064e+28)
(2.06775e+29 1.23378e+28 1.25071e+28 2.13598e+29 -1.17069e+27 2.33564e+29)
(4.63939e+29 4.04219e+28 6.62305e+28 4.66353e+29 3.83541e+27 5.25028e+29)
(1.10974e+30 -3.29835e+28 1.24352e+29 9.87459e+29 -4.09375e+28 1.04805e+30)
(3.02164e+28 3.47685e+27 2.94326e+28 2.60742e+28 -8.02995e+27 3.98689e+28)
(-9.91574e+28 6.88789e+28 3.16368e+27 7.63354e+28 -4.07805e+27 6.60664e+28)
(5.14872e+30 2.61877e+28 -2.3015e+29 4.67168e+30 1.69335e+29 4.94282e+30)
(2.94255e+29 2.55728e+28 2.69725e+28 2.90815e+29 -8.23043e+27 3.49127e+29)
(1.00158e+30 -5.19658e+29 -1.77394e+30 1.17026e+30 6.74407e+29 1.23296e+30)
(9.08213e+28 -1.10986e+28 -3.61629e+28 2.80888e+28 -4.48516e+28 9.00039e+28)
(1.8844e+29 6.05888e+27 1.35333e+27 1.98458e+29 2.34531e+27 2.03072e+29)
(4.9197e+29 2.16938e+28 1.42629e+28 5.26355e+29 1.26153e+28 5.40665e+29)
(7.2838e+28 -3.0153e+27 4.74528e+28 6.46921e+28 -1.51949e+28 1.18507e+29)
(2.41791e+29 -7.37689e+27 3.77685e+28 2.14367e+29 -2.20782e+28 2.47601e+29)
(6.10974e+29 -1.65969e+28 3.59644e+28 6.01676e+29 -2.52712e+28 6.02405e+29)
(1.5641e+29 3.82305e+28 2.95526e+28 1.55222e+29 -2.37453e+28 1.84169e+29)
(1.88951e+29 1.36224e+29 2.31965e+27 2.13492e+29 -3.11307e+28 2.62712e+29)
(1.71863e+30 -7.89017e+27 -6.34267e+28 1.61776e+30 3.86645e+28 1.67373e+30)
(3.85343e+29 3.27376e+28 7.25946e+28 4.34506e+29 -5.77559e+28 5.30088e+29)
(1.22187e+29 4.46867e+27 1.43284e+26 1.36042e+29 2.22768e+27 1.37995e+29)
(2.9495e+29 1.16556e+28 6.05555e+27 3.19667e+29 8.38723e+27 3.23282e+29)
(1.8552e+28 -1.03888e+27 1.86655e+28 1.29174e+28 -1.15067e+27 3.36497e+28)
(5.25218e+28 5.22486e+26 6.60747e+27 4.1244e+28 -4.87922e+27 4.81451e+28)
(1.1604e+29 7.47147e+27 1.24258e+28 1.06844e+29 -5.61577e+27 1.11017e+29)
(1.04552e+29 1.01002e+28 1.44047e+28 1.12078e+29 -1.46358e+28 1.15875e+29)
(1.54866e+29 3.65161e+27 9.84563e+27 1.76223e+29 -1.66333e+28 1.68332e+29)
(1.51703e+29 2.58426e+28 1.87727e+28 1.49707e+29 -2.98705e+28 1.71225e+29)
(2.01358e+29 4.10339e+28 3.58639e+28 1.86178e+29 -2.96225e+28 2.29032e+29)
(2.97937e+29 -1.05702e+28 1.79029e+28 2.66743e+29 -5.63181e+27 3.21212e+29)
(7.6597e+28 6.14451e+27 8.09656e+27 6.92452e+28 -1.01909e+27 6.82788e+28)
(1.42774e+29 1.03607e+28 1.74539e+28 1.35919e+29 8.60686e+27 1.24792e+29)
(5.93954e+28 1.46793e+28 1.96466e+28 5.09704e+28 -5.51195e+27 4.29073e+28)
(1.40655e+28 -9.43855e+27 8.55691e+27 -2.11922e+28 -3.06924e+28 -8.50122e+27)
(4.62507e+30 -1.42931e+29 -4.20304e+28 4.42955e+30 -1.51664e+28 4.4647e+30)
(3.9864e+29 -1.89858e+28 6.85895e+28 4.15204e+29 2.90836e+27 3.98697e+29)
(7.9687e+29 5.79776e+29 4.08514e+29 1.27715e+30 -3.46136e+28 1.43124e+30)
(5.26006e+30 5.52876e+28 -1.03694e+29 4.91148e+30 -1.66986e+29 5.1009e+30)
(2.01355e+29 -4.32332e+28 -5.26439e+28 2.93591e+29 -1.54238e+28 3.2659e+29)
(8.57388e+30 -9.72845e+29 -1.78708e+30 8.70976e+30 5.73388e+29 9.62205e+30)
(6.61636e+28 7.61777e+27 7.93957e+27 5.01076e+28 -2.62347e+27 4.8708e+28)
(7.84324e+28 1.11669e+27 8.9937e+27 7.12106e+28 -3.29348e+27 7.37342e+28)
(4.31245e+28 1.525e+27 1.29869e+28 2.40952e+28 -1.97003e+27 3.46055e+28)
(8.21053e+29 -4.01896e+28 2.69997e+28 6.64895e+29 -2.16459e+28 6.84134e+29)
(1.37979e+29 1.25327e+27 3.33146e+28 1.05273e+29 -6.74531e+27 9.84446e+28)
(1.4499e+30 -5.24914e+28 2.26384e+28 1.71898e+30 4.73105e+28 1.46474e+30)
(3.97125e+29 -2.41063e+28 8.19118e+28 3.8013e+29 -4.92907e+28 3.62324e+29)
(2.80072e+30 5.86629e+28 2.7817e+29 2.90966e+30 -2.97374e+29 3.1568e+30)
(1.47633e+30 7.62379e+27 -2.94904e+29 1.05736e+30 5.33364e+28 1.38596e+30)
(1.09571e+29 -9.66703e+28 -9.43188e+28 4.37274e+29 1.96926e+27 3.35126e+29)
(6.57841e+27 2.82424e+26 -7.54973e+26 1.54281e+27 -1.22504e+27 5.59384e+27)
(5.18273e+28 1.79527e+27 4.93338e+27 4.70845e+28 -9.36387e+26 4.95141e+28)
(1.21357e+29 -1.24981e+28 2.17712e+28 9.78382e+28 -1.1955e+28 1.12457e+29)
(8.78542e+28 -1.28091e+28 1.57301e+28 6.6591e+28 -1.09825e+28 6.96108e+28)
(5.38073e+29 -3.82922e+28 2.25988e+28 5.13291e+29 -8.0995e+27 4.95967e+29)
(2.67498e+29 -6.95305e+27 2.81994e+28 2.31298e+29 -1.01841e+28 2.23874e+29)
(6.33428e+27 8.15062e+26 1.81018e+28 3.30394e+28 -4.47882e+27 5.20514e+26)
(3.38011e+29 -4.18179e+28 2.97843e+28 3.61432e+29 -3.91064e+28 3.22567e+29)
(7.71239e+29 -1.22175e+28 7.52077e+28 7.87111e+29 -8.44484e+28 8.04914e+29)
(1.24407e+30 -5.36724e+28 -1.7869e+29 1.08873e+30 -5.04744e+28 1.2862e+30)
(4.18297e+27 9.58036e+26 8.34323e+26 4.47637e+27 2.12708e+26 5.18754e+27)
(3.67086e+28 -4.95957e+27 8.802e+27 2.92622e+28 -2.67238e+27 3.6793e+28)
(4.65087e+28 -3.83216e+27 3.67615e+27 3.98839e+28 -4.10437e+27 4.12297e+28)
(6.11393e+28 -7.26359e+27 1.02567e+28 5.53695e+28 -4.60801e+27 5.4884e+28)
(5.39197e+28 -4.2333e+27 1.15428e+28 5.17982e+28 -8.1622e+27 4.79072e+28)
(1.35522e+29 -9.35095e+27 1.01454e+28 1.40762e+29 -1.07519e+28 1.21691e+29)
(1.92646e+29 -1.23187e+28 1.66036e+28 1.8574e+29 -1.95435e+28 1.76906e+29)
(7.10068e+28 -6.14107e+27 1.24228e+28 8.18068e+28 -1.24966e+28 6.93029e+28)
(6.81468e+29 -3.33078e+28 3.76457e+28 7.16104e+29 -3.40189e+28 6.74496e+29)
(1.08678e+30 -2.71574e+28 6.6277e+28 1.10949e+30 -5.02259e+28 1.07577e+30)
(3.42392e+28 5.79491e+26 2.59595e+27 2.52226e+28 -1.88295e+27 1.94415e+28)
(2.16319e+28 -6.81705e+26 1.48371e+27 1.64569e+28 -1.59599e+27 1.30689e+28)
(8.22709e+28 5.1483e+26 3.97456e+27 6.87203e+28 -2.5238e+27 5.88971e+28)
(1.63748e+29 -2.47591e+27 5.77126e+27 1.42571e+29 -4.4049e+27 1.38136e+29)
(1.24845e+29 2.70398e+26 3.0517e+28 1.01021e+29 -2.23375e+27 8.69186e+28)
(1.31016e+28 -1.82251e+28 1.08652e+27 8.89018e+28 3.90891e+28 9.97836e+28)
(4.89821e+31 -3.87822e+29 -1.27931e+29 4.84684e+31 2.11544e+27 4.84368e+31)
(1.12419e+30 -1.08566e+29 1.16037e+29 8.37913e+29 -6.73852e+28 1.15371e+30)
(2.85549e+30 4.30497e+29 1.38811e+29 3.54263e+30 -1.51546e+29 3.51502e+30)
(2.14214e+30 -3.05937e+29 -1.37446e+29 2.28588e+30 1.28207e+29 2.19659e+30)
(1.34552e+28 -5.65606e+26 5.49355e+26 1.11387e+28 -7.3419e+26 1.03465e+28)
(4.00514e+28 -1.03491e+27 2.8641e+27 3.05481e+28 -1.43178e+27 2.54415e+28)
(5.9783e+28 -5.64676e+27 8.16702e+26 4.33275e+28 -2.66441e+27 3.71853e+28)
(1.66688e+29 -8.27513e+27 8.25977e+27 1.40912e+29 -3.90764e+27 1.3194e+29)
(4.49137e+28 -1.17726e+28 1.78244e+27 2.60188e+28 -3.66541e+27 1.4163e+28)
(2.1124e+28 -2.73499e+28 1.59839e+28 2.97135e+28 -1.08353e+28 1.42577e+28)
(1.32171e+31 -1.3337e+29 7.18656e+28 1.31488e+31 -7.22234e+27 1.31331e+31)
(2.23628e+31 -1.56306e+29 -5.13529e+28 2.25976e+31 -2.37071e+28 2.21636e+31)
(2.18889e+30 2.10243e+29 -1.29304e+29 2.36779e+30 -2.77679e+28 2.31305e+30)
(1.50776e+31 -4.47733e+29 -5.99947e+27 1.45415e+31 -2.29865e+28 1.46738e+31)
(1.04873e+28 -6.09668e+26 1.59763e+27 6.83838e+27 -3.86856e+26 5.77353e+27)
(2.02659e+28 -3.39183e+27 1.71123e+27 1.53252e+28 -1.37206e+27 1.46622e+28)
(3.75092e+28 -2.23495e+27 1.77973e+27 3.07432e+28 -1.87124e+27 2.70804e+28)
(5.88437e+28 -7.15251e+27 -6.60946e+26 5.03365e+28 1.95766e+26 4.36688e+28)
(1.32022e+29 -1.16957e+28 7.89162e+27 1.15759e+29 -3.48876e+27 1.02954e+29)
(1.00361e+29 -1.64206e+28 8.48506e+27 8.15196e+28 -4.11345e+26 6.26456e+28)
(7.7419e+27 -2.56354e+27 7.07582e+27 3.402e+28 -7.82524e+27 -1.85665e+27)
(1.05842e+31 -6.20749e+28 1.70012e+28 1.07527e+31 -3.84822e+28 1.06006e+31)
(2.83592e+30 -1.31061e+29 1.36348e+28 2.89424e+30 1.03701e+28 2.78628e+30)
(5.74827e+30 -1.91741e+29 3.02466e+28 5.77804e+30 -5.14712e+28 5.59016e+30)
(9.7924e+27 -1.41148e+27 1.00563e+27 7.88969e+27 -4.66e+26 8.9543e+27)
(1.29e+28 -7.40928e+26 8.07081e+26 1.12956e+28 -6.0101e+26 1.05897e+28)
(2.6682e+28 -3.68872e+27 1.51085e+27 2.29003e+28 -3.9254e+26 2.10683e+28)
(3.95624e+28 -3.09073e+27 2.81653e+27 3.38214e+28 -1.5143e+27 3.1124e+28)
(5.26342e+28 -8.10835e+27 -6.51696e+26 4.77169e+28 6.39633e+26 3.95256e+28)
(2.28457e+29 -1.84395e+28 1.0476e+28 2.10633e+29 -4.88025e+27 1.96713e+29)
(1.30044e+29 -1.43825e+28 5.29515e+27 1.29142e+29 -5.1103e+27 1.12363e+29)
(-2.47697e+27 -2.90698e+27 2.14055e+27 9.29341e+27 -6.03658e+27 -3.73481e+27)
(6.32524e+29 -1.92091e+27 9.4132e+27 6.96022e+29 -1.37719e+28 6.35308e+29)
(1.63501e+30 -1.42738e+28 1.13739e+28 1.75485e+30 -1.27367e+28 1.63092e+30)
)
;

boundaryField
{
    inlet
    {
        type            calculated;
        value           nonuniform 0();
    }
    outlet
    {
        type            calculated;
        value           nonuniform 0();
    }
    bottom
    {
        type            calculated;
        value           nonuniform List<symmTensor> 
40
(
(3.12751e+13 9.92808e+12 -2.68018e+13 -1.46061e+11 1.61505e+12 -9.25825e+12)
(1.72684e+13 -5.27736e+12 -2.07357e+13 -1.70072e+12 -2.02924e+13 -3.02783e+13)
(-1.88292e+13 -5.52905e+12 -1.19606e+14 1.92109e+13 2.0406e+12 -3.23111e+13)
(1.35135e+13 3.22071e+12 -6.51588e+12 -2.34569e+11 1.26613e+13 -1.76193e+13)
(-2.7825e+13 -4.88311e+13 -2.04762e+13 -5.82959e+11 -7.87009e+12 -1.72522e+13)
(9.4985e+12 1.96463e+13 -2.78001e+13 5.47801e+12 -3.14813e+12 -2.45311e+13)
(3.63883e+13 -2.72557e+13 -4.42489e+13 -1.88067e+13 2.0586e+12 -1.49455e+13)
(9.23393e+12 8.25545e+12 6.9231e+12 7.84699e+11 -2.26833e+13 -6.20292e+13)
(-1.46189e+12 -1.7257e+13 -5.76892e+13 1.59422e+13 -5.29862e+13 -3.25548e+13)
(1.80983e+13 -8.46075e+12 -4.68903e+13 1.56811e+12 -3.94721e+12 -1.55873e+13)
(2.26126e+13 8.23133e+12 -9.01368e+12 -1.98206e+12 -4.90897e+13 -1.05855e+14)
(-1.01199e+13 3.20439e+13 3.52079e+13 4.59587e+13 3.12626e+13 -2.17602e+12)
(4.92486e+13 5.76423e+13 2.64887e+12 -3.47797e+13 -4.20589e+13 -3.5217e+13)
(1.2179e+13 7.58886e+12 -1.59722e+13 1.89689e+13 -3.03974e+13 -9.11929e+13)
(-5.00186e+12 5.95284e+13 4.39249e+13 3.45301e+13 2.55108e+13 -1.37491e+13)
(-2.10625e+13 3.15774e+12 -1.43279e+12 2.24565e+12 1.29004e+13 6.83924e+12)
(-1.4379e+13 3.55621e+13 -2.18794e+12 1.01275e+13 2.5689e+13 4.2457e+12)
(8.21878e+12 4.58218e+13 2.76603e+13 -7.27665e+12 1.4804e+13 3.94873e+11)
(-1.24944e+13 1.20126e+13 -3.51079e+12 -1.85116e+12 1.58047e+13 5.70314e+12)
(-3.30761e+12 5.39782e+12 -5.0815e+12 -5.12622e+12 1.25568e+13 8.18995e+12)
(-9.07972e+12 5.95287e+12 -1.88377e+13 -9.73272e+11 2.66394e+13 8.62054e+12)
(-6.88796e+12 1.41481e+13 -1.43912e+13 -5.98997e+12 1.91139e+13 9.49185e+12)
(2.58401e+12 7.18845e+12 -7.34789e+12 -6.66951e+12 1.70455e+13 9.01988e+12)
(1.5308e+12 5.74938e+11 -8.06742e+12 -5.5875e+12 1.02751e+13 7.89428e+12)
(-1.04951e+13 6.59159e+12 -2.34033e+13 5.78681e+12 2.74053e+13 9.797e+12)
(1.47752e+11 1.69036e+13 -1.30567e+13 -5.43802e+12 2.56832e+13 7.48772e+12)
(4.06828e+12 1.21824e+13 -1.14609e+13 -1.30065e+13 1.83702e+13 8.60199e+12)
(4.73972e+11 3.36507e+12 -4.37615e+12 -5.43321e+12 9.01066e+12 7.13748e+12)
(-6.49231e+12 9.74026e+12 -3.11916e+13 9.4738e+12 3.169e+13 1.36068e+13)
(-2.16359e+12 2.20541e+12 -8.72376e+12 -1.96825e+12 3.18202e+13 1.91468e+13)
(8.83183e+11 1.01531e+13 -4.86627e+12 -1.68418e+13 2.42419e+13 7.87614e+12)
(-7.00049e+12 7.75795e+12 -6.61768e+12 -1.00137e+13 1.14312e+13 8.32082e+12)
(9.0458e+12 2.47108e+13 -3.41613e+13 -2.12341e+13 3.46883e+13 8.62242e+11)
(-1.04548e+13 -2.84025e+12 -2.55227e+13 -2.2676e+12 1.99498e+13 2.85182e+13)
(1.80798e+12 7.64785e+12 -1.24584e+13 3.70258e+11 2.23289e+13 1.13482e+13)
(1.04608e+13 9.95728e+12 -1.23972e+13 -1.79061e+13 1.60575e+13 8.96877e+12)
(5.03268e+13 3.44471e+13 -1.5392e+13 -2.70048e+13 4.70902e+13 1.84217e+12)
(3.17911e+12 1.31789e+13 -3.34636e+13 -1.61115e+13 2.01173e+13 1.01714e+12)
(1.76694e+12 1.64262e+13 -1.04603e+13 1.11052e+11 3.10157e+13 2.85875e+12)
(1.38865e+13 6.76103e+12 -7.07238e+12 -9.52549e+12 2.10386e+13 -3.67063e+11)
)
;
    }
    top
    {
        type            symmetryPlane;
    }
    side1
    {
        type            symmetryPlane;
    }
    side2
    {
        type            symmetryPlane;
    }
    procBoundary12to4
    {
        type            processor;
        value           nonuniform List<symmTensor> 
50
(
(-1.44777e+28 -2.97965e+28 7.005e+27 1.03138e+28 -4.78188e+28 -2.59373e+28)
(4.23483e+27 2.68549e+27 -1.1932e+28 4.47015e+28 9.6423e+27 9.54038e+27)
(6.20716e+28 -1.98118e+28 -3.44612e+28 -1.8277e+29 -1.22909e+29 -3.28641e+27)
(1.38943e+28 3.99543e+28 -2.18547e+28 -6.77435e+27 1.19964e+28 4.50466e+28)
(-5.91086e+28 2.31975e+28 -5.0926e+28 3.18976e+28 -6.89602e+27 1.03064e+28)
(-7.69957e+28 7.32241e+28 -6.25028e+28 1.13485e+29 3.79797e+28 1.02028e+28)
(-4.03601e+28 1.76973e+28 -7.22214e+28 5.07619e+28 1.29454e+28 -4.96554e+27)
(-1.11805e+29 1.77738e+29 -1.01108e+29 8.77428e+28 1.18871e+29 -2.85524e+28)
(-8.5251e+28 4.38245e+29 -1.48891e+29 7.8965e+28 2.88368e+29 8.02266e+28)
(-2.75298e+29 6.0269e+29 -2.59087e+28 3.39942e+29 4.31938e+29 -2.33426e+29)
(6.19179e+27 5.7255e+28 3.53542e+28 -3.89283e+28 -3.65546e+28 2.3104e+28)
(-4.78704e+26 2.07941e+28 1.49593e+28 -2.82372e+28 4.93447e+27 5.4512e+27)
(-1.67167e+28 3.32279e+28 3.0263e+28 -6.72341e+27 2.51802e+28 3.4092e+28)
(-1.15426e+28 2.35655e+28 7.55187e+27 3.89728e+27 8.63741e+26 1.58933e+27)
(-1.45441e+29 -8.57594e+28 -4.4589e+27 1.00073e+29 5.52737e+28 9.935e+28)
(-1.39112e+29 -3.33665e+28 -4.74334e+28 3.95112e+28 -6.56403e+26 5.67564e+28)
(3.35179e+28 1.31344e+29 1.44861e+28 7.96331e+28 1.69732e+28 -4.10806e+28)
(1.8399e+28 1.45455e+29 3.54153e+28 -2.53759e+28 5.83689e+27 4.28844e+26)
(-1.48989e+29 1.26925e+30 -5.0735e+29 1.08086e+29 -8.07439e+29 -1.52757e+30)
(1.4782e+30 6.15398e+29 -5.7628e+29 -2.0304e+29 1.78711e+29 -1.5033e+29)
(9.16011e+27 1.9534e+28 3.67249e+28 -1.42094e+28 -8.55546e+27 1.34474e+28)
(2.09985e+27 3.86122e+28 2.74529e+28 -2.53748e+28 -1.11869e+27 6.04916e+27)
(-1.25351e+28 1.93682e+28 8.45959e+27 1.03299e+27 -1.33921e+28 7.95706e+27)
(-9.78954e+27 2.14146e+28 2.77823e+28 1.1203e+28 1.04554e+28 2.99705e+28)
(-5.0838e+28 1.97792e+28 4.84356e+28 -3.29298e+28 -1.23488e+28 1.73718e+28)
(4.33725e+29 -3.5585e+28 -1.03626e+29 -8.36204e+28 8.14025e+27 3.41397e+28)
(-6.88506e+28 7.62069e+28 -7.2378e+27 -1.11145e+29 -4.3352e+28 5.74223e+28)
(-6.44401e+29 1.14347e+30 -1.0183e+30 1.31578e+30 -8.28543e+29 -1.47811e+29)
(5.42755e+28 5.13222e+28 2.44078e+27 5.02976e+28 -6.92526e+27 -2.59842e+28)
(7.05715e+29 -3.73129e+29 -7.11128e+29 -1.22518e+29 -6.76189e+29 -1.00786e+30)
(1.26989e+28 1.05847e+28 -5.57407e+26 3.44594e+27 2.23675e+27 5.12243e+27)
(2.81787e+27 2.35613e+27 9.93905e+27 -6.08566e+27 -4.3708e+27 -9.02834e+27)
(1.03688e+27 2.84908e+28 6.15232e+28 1.73256e+28 1.39992e+28 -1.27897e+28)
(6.39429e+27 2.22951e+28 3.1124e+28 -1.19354e+28 -1.17126e+28 -5.9162e+27)
(2.31016e+29 -9.31255e+28 -1.50496e+28 -1.3551e+29 -9.7584e+28 -4.35209e+28)
(1.28949e+29 2.23892e+28 4.95696e+28 -3.21491e+29 -1.13643e+29 -2.62537e+28)
(1.39933e+29 9.7114e+28 -2.2848e+29 8.67441e+28 1.06351e+29 9.15083e+28)
(-2.39961e+29 -3.73669e+28 -2.3283e+28 -1.91288e+28 4.0459e+29 4.58137e+28)
(2.38836e+29 -2.06255e+29 -1.1916e+30 -1.91762e+29 -8.51155e+29 6.86437e+29)
(6.88895e+28 -3.42299e+28 9.84403e+27 -2.33503e+29 -1.96581e+29 -7.3052e+28)
(2.39988e+27 -2.88085e+26 4.19726e+27 2.33874e+27 -6.69276e+26 -6.64862e+27)
(5.55253e+27 -7.69013e+26 3.42292e+27 1.39113e+27 -1.50135e+27 -6.34118e+27)
(5.08454e+27 -2.04811e+26 3.62147e+27 5.54009e+26 -2.53036e+27 -6.55732e+27)
(1.58358e+28 -1.01424e+27 6.06729e+27 -9.5494e+26 -3.62778e+27 -1.74789e+28)
(5.72949e+27 -1.33065e+27 3.19594e+27 -3.38267e+27 -4.00154e+27 -7.66404e+27)
(2.89496e+28 -1.74457e+28 2.76934e+26 -6.13399e+27 2.7468e+26 -3.80903e+28)
(5.41865e+28 -1.75272e+29 2.32951e+28 -2.28305e+27 -9.14503e+27 -4.27388e+28)
(4.32541e+29 -2.80098e+28 -4.08616e+28 -4.81244e+29 -1.59618e+29 2.46303e+27)
(2.73287e+28 -2.19665e+29 -4.09184e+28 -1.6471e+29 -1.54104e+28 2.04457e+28)
(-2.64515e+29 -8.59376e+28 -1.24791e+30 -3.67696e+29 -7.08515e+28 1.2618e+30)
)
;
    }
    procBoundary12to11
    {
        type            processor;
        value           nonuniform List<symmTensor> 
20
(
(4.59464e+27 -9.41443e+28 3.20998e+28 1.68816e+28 -4.42435e+28 -4.61237e+28)
(-1.44206e+29 -2.79106e+29 -8.3068e+29 1.98159e+29 2.37835e+29 -8.54553e+28)
(-7.0546e+28 1.02515e+29 -6.53832e+28 -1.10331e+29 6.101e+28 3.95595e+29)
(-2.47138e+27 1.84576e+27 -2.01258e+28 -2.09116e+28 -5.88438e+28 -1.68983e+28)
(6.45982e+28 6.14432e+28 -3.86264e+28 -6.87281e+28 6.57461e+27 2.78772e+28)
(-2.17516e+28 4.03781e+28 7.09796e+28 -1.25984e+28 -1.74599e+28 5.56359e+28)
(-2.69255e+28 -2.65707e+28 -1.12111e+29 5.48169e+28 -1.35895e+28 -1.09915e+29)
(1.4758e+27 -2.93585e+28 -2.9768e+28 -1.00639e+28 1.60704e+28 4.18623e+28)
(-3.29121e+27 1.87246e+28 3.45939e+28 -8.78411e+27 1.15146e+27 2.27279e+28)
(-2.85279e+28 2.0249e+28 6.48782e+27 1.37928e+28 2.00032e+28 1.5558e+28)
(3.26176e+27 4.50814e+27 -6.3742e+27 -1.46913e+28 -1.79068e+28 3.27122e+28)
(1.79738e+27 -1.91294e+28 -1.66491e+28 -5.77637e+27 -1.46243e+28 5.27843e+27)
(3.93171e+27 1.68916e+28 1.01219e+28 1.36919e+27 2.28284e+27 3.50154e+27)
(5.07909e+27 6.0818e+27 9.40588e+25 1.3538e+27 1.58938e+26 -3.10391e+27)
(3.50052e+27 1.11076e+27 -1.43669e+26 -3.2111e+26 -2.04049e+27 -4.36931e+27)
(3.63771e+26 -4.14973e+26 -2.44322e+27 -1.35569e+27 -1.21413e+26 1.64649e+27)
(1.81683e+27 3.46789e+26 1.6889e+27 1.17845e+26 -2.69394e+26 -2.53101e+27)
(4.10416e+27 1.42277e+27 1.91935e+27 -1.04256e+27 -7.37131e+25 -3.15416e+27)
(2.0413e+27 -7.515e+26 3.91147e+26 -8.14956e+26 -8.51116e+26 -1.57446e+27)
(8.94855e+26 1.22342e+26 1.02703e+27 -7.61447e+26 -9.65461e+25 -7.59227e+26)
)
;
    }
    procBoundary12to13
    {
        type            processor;
        value           nonuniform List<symmTensor> 
20
(
(9.58292e+29 4.25547e+29 1.91947e+29 -5.99865e+29 3.85666e+29 -5.39453e+29)
(3.17954e+29 1.39796e+29 9.89593e+27 -2.49901e+29 1.92695e+29 6.49043e+28)
(3.64261e+27 4.71314e+28 -5.16932e+28 1.01028e+28 9.96589e+28 1.6605e+28)
(1.14505e+28 2.8578e+28 -1.78179e+28 -6.21187e+28 3.58233e+28 -1.02154e+28)
(9.16951e+29 1.87174e+28 -3.0003e+29 -1.80233e+29 1.71489e+29 -6.53667e+28)
(4.35079e+29 -4.20811e+28 -3.54759e+29 -2.91271e+28 3.82625e+29 -9.17202e+29)
(3.0821e+28 6.07134e+28 -1.65632e+28 -1.18416e+29 -3.70455e+28 9.38987e+28)
(2.09116e+28 8.76336e+27 3.27922e+28 -6.20114e+28 -6.39692e+27 3.31451e+28)
(6.05478e+29 -8.05e+29 -1.56886e+30 -1.44891e+29 -3.92895e+29 -1.00112e+30)
(3.57515e+28 -1.37651e+28 -3.36339e+28 -2.43773e+28 -1.81157e+28 1.60356e+27)
(-4.82346e+28 -1.35048e+29 -8.1028e+29 -1.79727e+28 4.62657e+29 -5.32145e+28)
(-5.50045e+28 2.85016e+28 4.54132e+28 -9.48858e+27 -5.2858e+28 8.40809e+28)
(4.1498e+29 1.60916e+29 -1.28898e+28 -5.93412e+29 -2.7815e+29 -1.49763e+29)
(3.12603e+27 -1.68225e+29 -1.88136e+30 4.07513e+28 2.03839e+29 7.84814e+29)
(-5.83432e+29 -2.06939e+29 -1.86086e+29 1.11797e+29 -1.20822e+29 1.57097e+28)
(-3.30112e+28 -1.1044e+29 -4.53591e+28 3.9394e+28 -5.21319e+27 -9.345e+27)
(3.91637e+29 -2.47524e+29 -1.80546e+30 -7.58016e+29 8.21847e+28 8.3919e+29)
(-7.25572e+29 -5.95051e+29 -1.81071e+29 -1.2645e+29 7.32715e+27 4.78311e+28)
(-6.8323e+28 -4.38386e+29 -9.59593e+28 3.28212e+29 -3.7286e+28 -5.89394e+28)
(-8.25106e+28 -3.32624e+28 5.94539e+27 1.74818e+29 -2.65263e+28 -6.48983e+28)
)
;
    }
    procBoundary12to20
    {
        type            processor;
        value           nonuniform List<symmTensor> 
50
(
(-9.88914e+27 2.62351e+26 1.19517e+28 -1.40359e+27 5.29222e+27 -9.90138e+27)
(-8.91791e+27 5.20911e+27 9.37485e+27 2.55808e+28 1.70438e+28 2.99352e+27)
(-8.79951e+27 -3.16509e+27 -3.70201e+26 -1.22985e+27 3.28617e+27 3.84003e+27)
(-4.73755e+27 3.68168e+27 -1.80295e+27 -2.6917e+27 3.0439e+27 5.97502e+27)
(-1.86969e+27 3.33225e+27 -2.20757e+27 -3.68662e+27 3.12356e+27 5.37018e+27)
(-2.74521e+27 6.48671e+27 -2.86236e+27 -3.9445e+27 5.05312e+27 7.71958e+27)
(-4.06243e+27 5.7535e+27 -4.68222e+27 -1.24452e+27 7.52895e+27 8.6292e+27)
(7.44095e+27 -5.50876e+27 -6.34327e+27 -3.14615e+27 7.92614e+27 7.25249e+27)
(-1.29417e+28 1.24484e+28 -2.87819e+27 6.21972e+26 9.6011e+27 1.04242e+28)
(8.47752e+27 4.86992e+27 -8.51159e+27 -1.73669e+28 1.60023e+28 1.09652e+28)
(-1.0613e+28 1.17615e+27 1.90658e+27 1.42911e+28 8.86727e+27 1.38423e+27)
(-9.5617e+27 2.23294e+27 3.58948e+27 1.74236e+28 6.27312e+27 -7.1204e+26)
(-3.46075e+27 2.29871e+27 3.29294e+27 -1.03977e+27 8.39176e+26 3.83701e+26)
(-3.8308e+26 2.65775e+27 1.18259e+27 -1.3159e+27 -1.2548e+27 2.49146e+26)
(-6.46419e+26 5.69335e+27 1.70201e+27 -3.1653e+27 -2.85845e+27 4.00507e+27)
(-3.70708e+27 5.37014e+27 1.74061e+27 -1.83499e+27 -2.57328e+27 3.5567e+27)
(-1.3833e+27 4.88036e+27 -7.48509e+26 -4.77617e+27 -4.16892e+27 5.51392e+27)
(-3.36554e+27 1.31988e+28 2.05097e+27 -7.45438e+27 -4.0026e+27 7.62495e+27)
(7.96274e+27 1.16235e+28 1.47432e+27 -9.47612e+27 5.71665e+26 1.11164e+28)
(2.1514e+28 1.03158e+28 -3.94995e+26 -2.18234e+28 -1.70536e+27 1.03494e+28)
(-2.63898e+27 9.19935e+26 6.08398e+26 3.04065e+27 8.82786e+26 5.71517e+26)
(-3.96116e+26 -8.31474e+26 7.74853e+27 -3.41511e+27 1.1893e+27 8.26525e+26)
(2.26295e+27 6.25883e+26 2.9112e+27 -2.76667e+27 -1.83339e+27 -6.92626e+26)
(4.28458e+26 1.02293e+27 5.20349e+27 -3.17504e+26 -1.25841e+27 4.28486e+26)
(5.31304e+25 1.36681e+27 5.85546e+27 -1.09849e+27 -4.58557e+27 -8.52662e+26)
(6.57672e+26 2.46216e+27 2.85829e+27 -2.76315e+27 -6.281e+27 3.44222e+26)
(-2.18082e+27 8.77803e+27 6.51629e+27 -2.08856e+27 -7.78208e+27 1.43648e+27)
(-1.67216e+27 6.84623e+27 4.83306e+27 5.78131e+26 -6.89184e+27 2.30174e+27)
(2.8541e+27 6.84343e+27 5.29941e+27 -6.64599e+27 -1.02464e+28 1.7154e+27)
(3.14874e+27 9.73217e+27 5.10991e+27 -9.45655e+27 -1.39354e+28 4.61247e+27)
(-3.23976e+26 -1.13293e+27 1.92342e+27 -1.34778e+27 -3.20487e+25 1.92859e+27)
(1.47691e+27 -9.17043e+26 3.72308e+27 -1.94671e+27 -2.55942e+27 -2.27553e+27)
(1.33649e+27 -2.3755e+27 5.24745e+27 3.66353e+26 -9.03032e+26 -1.99416e+26)
(1.38209e+27 -2.87057e+27 3.33916e+27 5.14902e+26 -2.99499e+27 -3.3635e+27)
(3.18821e+27 -2.88029e+27 2.45226e+27 8.43682e+26 -2.63037e+27 -2.65516e+27)
(4.63363e+27 -8.82266e+25 1.09086e+28 -1.08382e+27 -9.95155e+27 -5.86397e+27)
(4.7634e+26 -4.00245e+26 3.77759e+27 1.97291e+27 -5.56836e+27 -3.87913e+27)
(8.75537e+26 -1.92731e+27 3.6154e+27 3.00362e+27 -7.0426e+27 -3.49105e+27)
(-9.89626e+26 1.62148e+26 5.45662e+27 5.20783e+27 -1.07932e+28 -5.09588e+27)
(-4.97752e+27 1.53459e+26 7.15452e+27 1.9746e+28 -2.27952e+28 -6.96215e+27)
(1.26472e+27 -8.82599e+26 1.52613e+27 -1.2024e+26 -7.37821e+26 -1.1305e+27)
(7.4024e+26 -1.47064e+27 9.00191e+26 -1.98641e+26 -1.77421e+26 3.32134e+25)