/*--------------------------------*- C++ -*----------------------------------*\
| =========                 |                                                 |
| \\      /  F ield         | OpenFOAM: The Open Source CFD Toolbox           |
|  \\    /   O peration     | Version:  2.4.0                                 |
|   \\  /    A nd           | Web:      www.OpenFOAM.org                      |
|    \\/     M anipulation  |                                                 |
\*---------------------------------------------------------------------------*/
FoamFile
{
    version     2.0;
    format      ascii;
    class       volScalarField;
    location    "0.15";
    object      nut;
}
// * * * * * * * * * * * * * * * * * * * * * * * * * * * * * * * * * * * * * //

dimensions      [0 2 -1 0 0 0 0];

internalField   nonuniform List<scalar> 
200
(
8.8036e+10
1.0546e+11
9.89651e+10
2.05752e+11
1.0627e+11
5.22002e+10
7.29317e+10
9.33107e+10
8.90229e+10
1.84445e+11
5.41334e+10
6.98535e+10
1.16306e+11
7.44933e+10
1.44901e+11
6.01232e+10
6.48916e+10
6.29425e+10
6.68699e+10
6.12114e+10
2.35719e+11
1.39802e+11
7.31418e+10
2.35733e+11
3.2305e+10
4.36965e+10
5.84815e+10
4.03011e+10
6.41963e+10
8.33454e+10
3.8492e+10
4.43431e+10
2.01337e+11
2.80459e+10
2.45107e+10
2.55219e+10
2.70491e+10
2.82827e+10
5.5181e+10
7.18132e+10
5.37104e+10
9.51885e+10
9.63657e+10
5.97267e+10
3.61184e+10
9.35478e+10
3.83856e+10
9.33552e+10
1.23432e+11
1.79349e+11
1.1977e+11
6.55164e+10
4.74287e+10
1.05071e+11
1.2385e+11
5.80336e+10
5.35862e+10
4.71905e+10
6.59378e+10
1.37788e+11
6.27096e+10
9.34392e+10
1.54178e+11
1.3885e+11
5.18414e+10
7.03454e+10
5.39128e+10
5.94717e+10
6.70718e+10
5.56506e+10
7.22323e+10
1.23984e+11
1.251e+11
2.53177e+10
1.76372e+10
2.91547e+10
3.49355e+10
3.71432e+10
5.03994e+10
6.01567e+10
1.01795e+11
4.50949e+10
7.31099e+10
3.15141e+10
4.14377e+10
5.34458e+10
3.51116e+11
1.24541e+11
9.27994e+10
1.33235e+11
1.77105e+10
3.1445e+10
6.24356e+10
9.28826e+10
1.34645e+11
2.66931e+10
3.27254e+10
2.95226e+11
7.56355e+10
1.57085e+11
3.73182e+10
5.91851e+10
9.59679e+10
4.07457e+10
6.47977e+10
1.03212e+11
5.5497e+10
6.57483e+10
1.71408e+11
9.01253e+10
4.83612e+10
7.44492e+10
2.1207e+10
2.92592e+10
4.41795e+10
4.46365e+10
5.41738e+10
5.37011e+10
6.11521e+10
7.16307e+10
3.54356e+10
4.89652e+10
3.05926e+10
1.61705e+10
2.82706e+11
8.54631e+10
1.57406e+11
2.99504e+11
7.57258e+10
3.92346e+11
3.17186e+10
3.59895e+10
2.49508e+10
1.11649e+11
4.59445e+10
1.64305e+11
8.29933e+10
2.29451e+11
1.53456e+11
8.09866e+10
8.92733e+09
2.95204e+10
4.41836e+10
3.72369e+10
9.50604e+10
6.55685e+10
1.99178e+10
7.85127e+10
1.19144e+11
1.4498e+11
9.10541e+09
2.45331e+10
2.77895e+10
3.16543e+10
3.06888e+10
4.82236e+10
5.74282e+10
3.70926e+10
1.1082e+11
1.3945e+11
2.1608e+10
1.76947e+10
3.53619e+10
5.12673e+10
4.39725e+10
4.18563e+10
9.30417e+11
1.41869e+11
2.49285e+11
1.96014e+11
1.44883e+10
2.40201e+10
2.90163e+10
5.07985e+10
2.39872e+10
2.67267e+10
4.84447e+11
6.30798e+11
2.04475e+11
5.11935e+11
1.18753e+10
1.71494e+10
2.40092e+10
3.01056e+10
4.55389e+10
3.87352e+10
2.09192e+10
4.35342e+11
2.25299e+11
3.18556e+11
1.23844e+10
1.44334e+10
2.03035e+10
2.49837e+10
2.88262e+10
6.11051e+10
4.7222e+10
1.20349e+10
1.07926e+11
1.72551e+11
)
;

boundaryField
{
    inlet
    {
        type            calculated;
        value           nonuniform 0();
    }
    outlet
    {
        type            calculated;
        value           nonuniform 0();
    }
    bottom
    {
        type            calculated;
        value           nonuniform List<scalar> 
40
(
9.21857e-14
5.81121e-14
2.00643e-13
3.60089e-14
6.77612e-14
6.41353e-14
1.16115e-13
4.93967e-14
1.40453e-13
9.92893e-14
9.56344e-14
1.59226e-13
1.42787e-13
8.63159e-14
1.71124e-13
2.75523e-14
8.5858e-14
1.06575e-13
3.38152e-14
3.02968e-14
6.30166e-14
5.1685e-14
4.5401e-14
3.1702e-14
7.6907e-14
6.60904e-14
5.09639e-14
2.53521e-14
1.058e-13
8.2817e-14
4.80988e-14
2.65794e-14
9.59111e-14
8.96348e-14
6.65472e-14
5.34688e-14
1.62314e-13
6.88483e-14
7.36649e-14
5.2995e-14
)
;
    }
    top
    {
        type            symmetryPlane;
    }
    side1
    {
        type            symmetryPlane;
    }
    side2
    {
        type            symmetryPlane;
    }
    procBoundary12to4
    {
        type            processor;
        value           nonuniform List<scalar> 
50
(
2.69205e+10
8.11819e+10
8.26446e+10
4.92381e+10
7.14742e+10
8.07257e+10
5.0282e+10
7.96079e+10
1.20858e+11
1.37773e+11
4.62404e+10
2.4914e+10
5.33105e+10
3.7382e+10
7.06382e+10
5.94262e+10
1.04424e+11
1.11809e+11
9.61587e+10
3.09325e+11
5.6002e+10
6.87003e+10
2.73539e+10
6.64729e+10
2.86142e+10
2.42891e+11
4.41127e+10
2.70791e+11
8.70317e+10
1.58394e+11
3.9051e+10
1.14329e+10
8.60858e+10
4.58314e+10
1.26332e+11
1.11675e+11
1.73759e+11
1.78694e+11
3.18006e+11
8.79683e+10
1.81402e+10
1.59904e+10
2.0904e+10
5.03925e+10
3.07625e+10
2.83817e+10
1.80342e+11
4.49661e+11
1.72843e+11
3.76713e+11
)
;
    }
    procBoundary12to11
    {
        type            processor;
        value           nonuniform List<scalar> 
20
(
5.673e+10
4.04927e+11
1.30805e+11
8.37716e+10
5.28697e+10
7.02585e+10
1.10785e+11
4.18407e+10
3.86854e+10
5.78371e+10
3.09611e+10
3.81025e+10
5.27143e+10
2.66999e+10
1.51005e+10
9.4681e+09
1.24161e+10
1.84143e+10
8.57636e+09
5.84605e+09
)
;
    }
    procBoundary12to13
    {
        type            processor;
        value           nonuniform List<scalar> 
20
(
1.65121e+11
1.07266e+11
7.8702e+10
3.55136e+10
2.29644e+11
1.41878e+11
8.14668e+10
7.66455e+10
2.19278e+11
1.12565e+11
2.57395e+11
1.28249e+11
1.42229e+11
4.92262e+11
1.76712e+11
1.50997e+11
7.56556e+11
2.5367e+11
6.32768e+11
2.97782e+11
)
;
    }
    procBoundary12to20
    {
        type            processor;
        value           nonuniform List<scalar> 
50
(
8.78443e+09
9.75444e+10
1.61187e+10
1.77717e+10
1.89053e+10
2.42909e+10
2.67882e+10
3.56014e+10
2.71238e+10
3.72081e+10
5.54101e+10
7.87646e+10
9.51607e+09
1.44954e+10
2.22857e+10
1.92571e+10
2.02715e+10
3.42146e+10
4.53837e+10
6.44878e+10
3.62097e+10
1.55827e+10
1.54904e+10
2.1788e+10
2.15102e+10
1.96754e+10
3.46538e+10
4.02338e+10
4.60225e+10
4.93501e+10
1.01631e+10
1.12966e+10
2.1232e+10
1.73257e+10
2.23341e+10
2.82889e+10
2.37769e+10
3.60595e+10
4.10781e+10
8.24527e+10
6.76533e+09
1.22192e+10
1.37505e+10
1.83183e+10
2.38167e+10
2.39094e+10
3.87328e+10
4.03764e+10
3.093e+10
3.62125e+10
)
;
    }
}


// ************************************************************************* //
