/*--------------------------------*- C++ -*----------------------------------*\
| =========                 |                                                 |
| \\      /  F ield         | OpenFOAM: The Open Source CFD Toolbox           |
|  \\    /   O peration     | Version:  2.4.0                                 |
|   \\  /    A nd           | Web:      www.OpenFOAM.org                      |
|    \\/     M anipulation  |                                                 |
\*---------------------------------------------------------------------------*/
FoamFile
{
    version     2.0;
    format      ascii;
    class       volVectorField;
    location    "0.14";
    object      A_Source;
}
// * * * * * * * * * * * * * * * * * * * * * * * * * * * * * * * * * * * * * //

dimensions      [1 -2 -2 0 0 0 0];

internalField   nonuniform List<vector> 
200
(
(-2.3981e-69 9.7703e-70 4.28864e-69)
(-1.16123e-71 4.72898e-72 2.07668e-71)
(-5.71433e-74 2.32583e-74 1.02192e-73)
(-2.84547e-76 1.15745e-76 5.08869e-76)
(-1.42812e-78 5.80536e-79 2.55397e-78)
(-7.20002e-81 2.92488e-81 1.28761e-80)
(-3.63662e-83 1.47633e-83 6.50353e-83)
(-1.83646e-85 7.45044e-86 3.28422e-85)
(-9.25873e-88 3.75385e-88 1.65578e-87)
(-4.65547e-90 1.88635e-90 8.32559e-90)
(-2.68594e-71 1.09734e-71 4.80338e-71)
(-1.31962e-73 5.38975e-74 2.35994e-73)
(-6.47615e-76 2.64423e-76 1.15816e-75)
(-3.17885e-78 1.29748e-78 5.68488e-78)
(-1.56196e-80 6.37281e-81 2.79332e-80)
(-7.68611e-83 3.1346e-83 1.37454e-82)
(-3.78825e-85 1.54424e-85 6.7747e-85)
(-1.86994e-87 7.61883e-88 3.34409e-87)
(-9.24189e-90 3.76355e-90 1.65277e-89)
(-4.57172e-92 1.86073e-92 8.1758e-92)
(-2.3949e-73 9.80553e-74 4.28291e-73)
(-1.20687e-75 4.93994e-76 2.1583e-75)
(-6.0553e-78 2.47786e-78 1.0829e-77)
(-3.02692e-80 1.23828e-80 5.41318e-80)
(-1.50846e-82 6.16919e-83 2.69765e-82)
(-7.49877e-85 3.06587e-85 1.34104e-84)
(-3.72042e-87 1.52061e-87 6.65339e-87)
(-1.843e-89 7.53021e-90 3.29592e-89)
(-9.1189e-92 3.72452e-92 1.63077e-91)
(-4.50763e-94 1.84041e-94 8.06119e-94)
(-1.853e-75 7.59962e-76 3.3138e-75)
(-9.53208e-78 3.90832e-78 1.70466e-77)
(-4.88104e-80 2.00079e-80 8.72898e-80)
(-2.48861e-82 1.01985e-82 4.45049e-82)
(-1.2637e-84 5.17738e-85 2.25993e-84)
(-6.39302e-87 2.61855e-87 1.14329e-86)
(-3.22316e-89 1.31985e-89 5.76413e-89)
(-1.61998e-91 6.6319e-92 2.89708e-91)
(-8.11932e-94 3.323e-94 1.45201e-93)
(-4.05908e-96 1.6608e-96 7.25903e-96)
(-4.82876e-71 1.96651e-71 8.63548e-71)
(-2.38473e-73 9.70751e-74 4.26471e-73)
(-1.1966e-75 4.86835e-76 2.13994e-75)
(-6.07432e-78 2.4698e-78 1.0863e-77)
(-3.10702e-80 1.26247e-80 5.55642e-80)
(-1.59592e-82 6.48035e-83 2.85406e-82)
(-8.20978e-85 3.3314e-85 1.46819e-84)
(-4.22108e-87 1.71172e-87 7.54875e-87)
(-2.16599e-89 8.77785e-90 3.87354e-89)
(-1.10812e-91 4.48796e-92 1.9817e-91)
(-5.51934e-73 2.25414e-73 9.87048e-73)
(-2.76428e-75 1.12863e-75 4.94349e-75)
(-1.38243e-77 5.64255e-78 2.47227e-77)
(-6.91282e-80 2.82055e-80 1.23625e-79)
(-3.45925e-82 1.41088e-82 6.18633e-82)
(-1.73308e-84 7.0655e-85 3.09935e-84)
(-8.69423e-87 3.54285e-87 1.55483e-86)
(-4.36696e-89 1.77863e-89 7.80963e-89)
(-2.19561e-91 8.93791e-92 3.92652e-91)
(-1.10459e-93 4.49413e-94 1.97539e-93)
(-5.01857e-75 2.05415e-75 8.97494e-75)
(-2.57714e-77 1.05456e-77 4.60882e-77)
(-1.31719e-79 5.3884e-80 2.35559e-79)
(-6.70508e-82 2.74217e-82 1.1991e-81)
(-3.40165e-84 1.39077e-84 6.08332e-84)
(-1.72094e-86 7.03395e-87 3.07763e-86)
(-8.6868e-89 3.54941e-89 1.5535e-88)
(-4.37689e-91 1.78779e-91 7.82739e-91)
(-2.2021e-93 8.99156e-94 3.93812e-93)
(-1.10658e-95 4.51668e-96 1.97896e-95)
(-3.9584e-77 1.62302e-77 7.07899e-77)
(-2.07424e-79 8.50252e-80 3.70945e-79)
(-1.08159e-81 4.43241e-82 1.93426e-81)
(-5.61367e-84 2.29992e-84 1.00392e-83)
(-2.90093e-86 1.18821e-86 5.18787e-86)
(-1.49305e-88 6.11388e-89 2.67009e-88)
(-7.65595e-91 3.13422e-91 1.36915e-90)
(-3.91249e-93 1.60128e-93 6.99688e-93)
(-1.99331e-95 8.15588e-96 3.56472e-95)
(-1.0127e-97 4.14242e-98 1.81105e-97)
(-4.99371e-73 2.03285e-73 8.93047e-73)
(-2.51458e-75 1.02319e-75 4.49694e-75)
(-1.28628e-77 5.231e-78 2.3003e-77)
(-6.65487e-80 2.7047e-80 1.19012e-79)
(-3.46837e-82 1.4087e-82 6.20264e-82)
(-1.81469e-84 7.36545e-85 3.24529e-84)
(-9.50588e-87 3.85563e-87 1.69998e-86)
(-4.97523e-89 2.01664e-89 8.89743e-89)
(-2.59797e-91 1.05237e-91 4.64606e-91)
(-1.35211e-93 5.47364e-94 2.41803e-93)
(-5.82344e-75 2.37751e-75 1.04143e-74)
(-2.97243e-77 1.21319e-77 5.31573e-77)
(-1.5145e-79 6.17943e-80 2.70845e-79)
(-7.71334e-82 3.14608e-82 1.37941e-81)
(-3.93013e-84 1.60237e-84 7.02843e-84)
(-2.0043e-86 8.16832e-87 3.58438e-86)
(-1.02323e-88 4.16814e-89 1.8299e-88)
(-5.22889e-91 2.12892e-91 9.35106e-91)
(-2.67399e-93 1.08813e-93 4.78201e-93)
(-1.36793e-95 5.56352e-96 2.44633e-95)
(-5.3984e-77 2.20896e-77 9.65421e-77)
(-2.8243e-79 1.15535e-79 5.05082e-79)
(-1.47015e-81 6.01233e-82 2.62914e-81)
(-7.61936e-84 3.11514e-84 1.3626e-83)
(-3.93435e-86 1.60808e-86 7.03597e-86)
(-2.0253e-88 8.27548e-89 3.62194e-88)
(-1.03993e-90 4.24786e-91 1.85975e-90)
(-5.3286e-93 2.17587e-93 9.52938e-93)
(-2.72568e-95 1.1126e-95 4.87446e-95)
(-1.39221e-97 5.68075e-98 2.48975e-97)
(-4.33967e-79 1.77888e-79 7.76083e-79)
(-2.31594e-81 9.4908e-82 4.1417e-81)
(-1.22949e-83 5.03717e-84 2.19875e-83)
(-6.49478e-86 2.66021e-86 1.16149e-85)
(-3.41493e-88 1.39837e-88 6.10707e-88)
(-1.7878e-90 7.31892e-91 3.1972e-90)
(-9.32227e-93 3.81538e-93 1.66714e-92)
(-4.84327e-95 1.98171e-95 8.66144e-95)
(-2.50789e-97 1.02587e-97 4.48498e-97)
(-1.29466e-99 5.29439e-100 2.3153e-99)
(-3.51754e-75 1.43134e-75 6.29057e-75)
(-1.80539e-77 7.34312e-78 3.22866e-77)
(-9.41134e-80 3.82578e-80 1.68307e-79)
(-4.96105e-82 2.01544e-82 8.87207e-82)
(-2.63368e-84 1.06922e-84 4.70993e-84)
(-1.4032e-86 5.69281e-87 2.5094e-86)
(-7.48263e-89 3.03365e-89 1.33815e-88)
(-3.98551e-91 1.61475e-91 7.12747e-91)
(-2.11727e-93 8.57266e-94 3.7864e-93)
(-1.1207e-95 4.53479e-96 2.0042e-95)
(-4.18354e-77 1.70739e-77 7.48161e-77)
(-2.17555e-79 8.87633e-80 3.89063e-79)
(-1.12897e-81 4.6048e-82 2.01899e-81)
(-5.85447e-84 2.38706e-84 1.04698e-83)
(-3.03643e-86 1.23756e-86 5.43018e-86)
(-1.57585e-88 6.41993e-89 2.81816e-88)
(-8.18482e-91 3.33289e-91 1.46373e-90)
(-4.25418e-93 1.73145e-93 7.60794e-93)
(-2.21222e-95 8.99897e-96 3.95622e-95)
(-1.15051e-97 4.6775e-98 2.0575e-97)
(-3.95253e-79 1.61684e-79 7.06848e-79)
(-2.10606e-81 8.61271e-82 3.76635e-81)
(-1.11617e-83 4.56331e-84 1.99609e-83)
(-5.88791e-86 2.40652e-86 1.05296e-85)
(-3.09358e-88 1.26405e-88 5.5324e-88)
(-1.61996e-90 6.61723e-91 2.89704e-90)
(-8.45912e-93 3.4543e-93 1.51278e-92)
(-4.40685e-95 1.79894e-95 7.88096e-95)
(-2.29127e-97 9.34994e-98 4.09757e-97)
(-1.18928e-99 4.85124e-100 2.12684e-99)
(-3.23726e-81 1.32664e-81 5.78933e-81)
(-1.75893e-83 7.20625e-84 3.14557e-83)
(-9.50409e-86 3.89277e-86 1.69966e-85)
(-5.10841e-88 2.09181e-88 9.13559e-88)
(-2.73219e-90 1.1185e-90 4.8861e-90)
(-1.45457e-92 5.9532e-93 2.60128e-92)
(-7.71099e-95 3.15509e-95 1.37899e-94)
(-4.07179e-97 1.6656e-97 7.28176e-97)
(-2.14242e-99 8.76138e-100 3.83139e-99)
(-1.12356e-101 4.59347e-102 2.00931e-101)
(-1.90433e-77 7.74575e-78 3.37578e-77)
(-9.95968e-80 4.04925e-80 1.76525e-79)
(-5.28964e-82 2.14938e-82 9.37381e-82)
(-2.84026e-84 1.15337e-84 5.03241e-84)
(-1.5355e-86 6.23112e-87 2.72016e-86)
(-8.32885e-89 3.37755e-89 1.47523e-88)
(-4.52036e-91 1.83186e-91 8.00522e-91)
(-2.44975e-93 9.92084e-94 4.3376e-93)
(-1.32373e-95 5.35727e-96 2.34345e-95)
(-7.12477e-98 2.88164e-98 1.26111e-97)
(-2.30925e-79 9.42123e-80 4.0929e-79)
(-1.22315e-81 4.98874e-82 2.16755e-81)
(-6.46318e-84 2.63525e-84 1.14516e-83)
(-3.41178e-86 1.3906e-86 6.04406e-86)
(-1.80082e-88 7.33706e-89 3.18968e-88)
(-9.5088e-91 3.87247e-91 1.68396e-90)
(-5.02362e-93 2.04491e-93 8.8951e-93)
(-2.6553e-95 1.08031e-95 4.70084e-95)
(-1.40382e-97 5.70841e-98 2.48486e-97)
(-7.4208e-100 3.01589e-100 1.31332e-99)
(-2.22298e-81 9.09065e-82 3.93933e-81)
(-1.20607e-83 4.93075e-84 2.13693e-83)
(-6.50644e-86 2.65927e-86 1.15263e-85)
(-3.49265e-88 1.42709e-88 6.18629e-88)
(-1.86686e-90 7.62577e-91 3.3061e-90)
(-9.94239e-93 4.06006e-93 1.76046e-92)
(-5.27882e-95 2.15496e-95 9.34545e-95)
(-2.79548e-97 1.14081e-97 4.94821e-97)
(-1.47712e-99 6.0258e-100 2.61418e-99)
(-7.7899e-102 3.17663e-102 1.37842e-101)
(-1.85456e-83 7.59804e-84 3.28591e-83)
(-1.02568e-85 4.20106e-86 1.81701e-85)
(-5.63956e-88 2.30929e-88 9.98893e-88)
(-3.08364e-90 1.26237e-90 5.46095e-90)
(-1.67731e-92 6.86474e-93 2.96993e-92)
(-9.07911e-95 3.71486e-95 1.60733e-94)
(-4.89227e-97 2.00123e-97 8.65968e-97)
(-2.62524e-99 1.0736e-99 4.64611e-99)
(-1.40335e-101 5.73747e-102 2.48323e-101)
(-7.4754e-104 3.05537e-104 1.32255e-103)
)
;

boundaryField
{
    inlet
    {
        type            zeroGradient;
    }
    outlet
    {
        type            zeroGradient;
    }
    bottom
    {
        type            zeroGradient;
    }
    top
    {
        type            symmetryPlane;
    }
    side1
    {
        type            symmetryPlane;
    }
    side2
    {
        type            symmetryPlane;
    }
    procBoundary12to4
    {
        type            processor;
        value           nonuniform List<vector> 
50
(
(-7.41853e-67 3.0064e-67 1.32669e-66)
(-3.59368e-69 1.4556e-69 6.42674e-69)
(-1.73467e-71 7.02246e-72 3.10218e-71)
(-8.34503e-74 3.37655e-74 1.49238e-73)
(-4.00176e-76 1.61834e-76 7.15653e-76)
(-1.91317e-78 7.73294e-79 3.42142e-78)
(-9.12018e-81 3.68439e-81 1.631e-80)
(-4.33567e-83 1.75061e-83 7.75368e-83)
(-2.05575e-85 8.29614e-86 3.67639e-85)
(-9.72269e-88 3.92161e-88 1.73875e-87)
(-1.47747e-68 5.98441e-69 2.64223e-68)
(-7.30152e-71 2.95588e-71 1.30576e-70)
(-3.59408e-73 1.45423e-73 6.42746e-73)
(-1.76252e-75 7.12774e-76 3.15199e-75)
(-8.61251e-78 3.48113e-78 1.54021e-77)
(-4.19424e-80 1.6944e-80 7.50075e-80)
(-2.03598e-82 8.22069e-83 3.64104e-82)
(-9.85272e-85 3.97615e-85 1.76201e-84)
(-4.75402e-87 1.91752e-87 8.50182e-87)
(-2.28736e-89 9.22117e-90 4.09059e-89)
(-1.51139e-70 6.11857e-71 2.70289e-70)
(-7.61774e-73 3.08228e-73 1.36232e-72)
(-3.82289e-75 1.546e-75 6.83664e-75)
(-1.91059e-77 7.72248e-78 3.41679e-77)
(-9.51132e-80 3.8424e-80 1.70095e-79)
(-4.7173e-82 1.9047e-82 8.43616e-82)
(-2.33131e-84 9.40819e-85 4.16919e-84)
(-1.14824e-86 4.63137e-87 2.05344e-86)
(-5.63705e-89 2.27249e-89 1.0081e-88)
(-2.75876e-91 1.11157e-91 4.93361e-91)
(-1.05322e-72 4.26151e-73 1.88352e-72)
(-5.41217e-75 2.18871e-75 9.67883e-75)
(-2.76809e-77 1.11884e-77 4.9503e-77)
(-1.40944e-79 5.69385e-80 2.52056e-79)
(-7.14598e-82 2.88532e-82 1.27795e-81)
(-3.60839e-84 1.45619e-84 6.45305e-84)
(-1.81503e-86 7.32081e-87 3.24589e-86)
(-9.09584e-89 3.66684e-89 1.62665e-88)
(-4.54218e-91 1.83014e-91 8.12298e-91)
(-2.26049e-93 9.10323e-94 4.04254e-93)
(-5.64143e-75 2.2814e-75 1.00014e-74)
(-2.95477e-77 1.19429e-77 5.23751e-77)
(-1.53979e-79 6.22042e-80 2.72893e-79)
(-7.98564e-82 3.22433e-82 1.41504e-81)
(-4.12254e-84 1.66367e-84 7.30387e-84)
(-2.11894e-86 8.54659e-87 3.7535e-86)
(-1.08457e-88 4.37223e-89 1.92089e-88)
(-5.52915e-91 2.2278e-91 9.79113e-91)
(-2.808e-93 1.1308e-93 4.97165e-93)
(-1.4208e-95 5.71866e-96 2.51515e-95)
)
;
    }
    procBoundary12to11
    {
        type            processor;
        value           nonuniform List<vector> 
20
(
(-1.18508e-66 4.82213e-67 2.11933e-66)
(-9.45804e-69 3.8621e-69 1.69142e-68)
(-7.5531e-71 3.09256e-71 1.35075e-70)
(-5.63357e-73 2.31095e-73 1.00748e-72)
(-2.35438e-68 9.57578e-69 4.21045e-68)
(-1.91356e-70 7.81095e-71 3.42211e-70)
(-1.55742e-72 6.37479e-73 2.78521e-72)
(-1.18417e-74 4.85631e-75 2.1177e-74)
(-2.40265e-70 9.76767e-71 4.29677e-70)
(-1.98823e-72 8.11268e-73 3.55564e-72)
(-1.64878e-74 6.74664e-75 2.94859e-74)
(-1.27765e-76 5.2383e-77 2.28488e-76)
(-1.6704e-72 6.7877e-73 2.98725e-72)
(-1.40692e-74 5.73859e-75 2.51606e-74)
(-1.18838e-76 4.86124e-77 2.12524e-76)
(-9.38223e-79 3.84564e-79 1.67787e-78)
(-8.92694e-75 3.62582e-75 1.58264e-74)
(-7.65102e-77 3.11955e-77 1.35624e-76)
(-6.5809e-79 2.69116e-79 1.16636e-78)
(-5.29206e-81 2.16856e-81 9.3778e-81)
)
;
    }
    procBoundary12to13
    {
        type            processor;
        value           nonuniform List<vector> 
20
(
(-7.08032e-93 2.87298e-93 1.26621e-92)
(-9.4069e-95 3.83018e-95 1.68228e-94)
(-9.98709e-97 4.07705e-97 1.78604e-96)
(-9.15969e-99 3.7468e-99 1.63807e-98)
(-1.70147e-94 6.9012e-95 3.04281e-94)
(-2.29905e-96 9.35774e-97 4.1115e-96)
(-2.48122e-98 1.01261e-98 4.43727e-98)
(-2.31268e-100 9.4576e-101 4.13587e-100)
(-2.09585e-96 8.49733e-97 3.74811e-96)
(-2.87974e-98 1.17172e-98 5.14996e-98)
(-3.15887e-100 1.28877e-100 5.64915e-100)
(-2.99182e-102 1.22317e-102 5.35041e-102)
(-1.75346e-98 7.10619e-99 3.13579e-98)
(-2.44933e-100 9.96242e-101 4.38025e-100)
(-2.73017e-102 1.11354e-102 4.88249e-102)
(-2.62695e-104 1.07371e-104 4.6979e-104)
(-1.12511e-100 4.5578e-101 1.9913e-100)
(-1.59747e-102 6.49526e-103 2.82685e-102)
(-1.80913e-104 7.37651e-105 3.20086e-104)
(-1.76817e-106 7.2251e-107 3.12787e-106)
)
;
    }
    procBoundary12to20
    {
        type            processor;
        value           nonuniform List<vector> 
50
(
(-2.40978e-78 9.89926e-79 4.30952e-78)
(-1.25279e-80 5.14488e-81 2.24041e-80)
(-6.71742e-83 2.75774e-83 1.20131e-82)
(-3.67174e-85 1.50684e-85 6.56635e-85)
(-2.02608e-87 8.31187e-88 3.62333e-87)
(-1.12071e-89 4.59609e-90 2.00422e-89)
(-6.18556e-92 2.53592e-92 1.10619e-91)
(-3.39708e-94 1.39229e-94 6.07516e-94)
(-1.85361e-96 7.59484e-97 3.3149e-96)
(-1.00416e-98 4.11323e-99 1.79578e-98)
(-5.19105e-80 2.13197e-80 9.28338e-80)
(-2.7488e-82 1.12861e-82 4.91581e-82)
(-1.50118e-84 6.16146e-85 2.68463e-84)
(-8.35588e-87 3.42836e-87 1.49432e-86)
(-4.69409e-89 1.92526e-89 8.39465e-89)
(-2.64257e-91 1.08347e-91 4.72582e-91)
(-1.4839e-93 6.08211e-94 2.65372e-93)
(-8.28851e-96 3.39622e-96 1.48227e-95)
(-4.59825e-98 1.8836e-98 8.22326e-98)
(-2.53188e-100 1.03686e-100 4.52788e-100)
(-5.73848e-82 2.35627e-82 1.02624e-81)
(-3.09445e-84 1.27023e-84 5.53394e-84)
(-1.72088e-86 7.06152e-87 3.07752e-86)
(-9.75244e-89 4.00041e-89 1.74407e-88)
(-5.57658e-91 2.28667e-91 9.97284e-91)
(-3.19452e-93 1.30946e-93 5.71291e-93)
(-1.82476e-95 7.47742e-96 3.2633e-95)
(-1.03648e-97 4.24594e-98 1.85358e-97)
(-5.84546e-100 2.39391e-100 1.04537e-99)
(-3.27099e-102 1.33921e-102 5.84966e-102)
(-4.31597e-84 1.77176e-84 7.71844e-84)
(-2.36936e-86 9.72366e-87 4.23723e-86)
(-1.34136e-88 5.50293e-89 2.39882e-88)
(-7.73735e-91 3.17307e-91 1.3837e-90)
(-4.50218e-93 1.84567e-93 8.05144e-93)
(-2.62367e-95 1.0752e-95 4.69203e-95)
(-1.52413e-97 6.24398e-98 2.72566e-97)
(-8.80135e-100 3.6046e-100 1.57399e-99)
(-5.04486e-102 2.06553e-102 9.02195e-102)
(-2.86829e-104 1.17405e-104 5.12948e-104)
(-2.4927e-86 1.02305e-86 4.41625e-86)
(-1.39281e-88 5.71466e-89 2.4672e-88)
(-8.0253e-91 3.2916e-91 1.42135e-90)
(-4.71083e-93 1.93144e-93 8.3419e-93)
(-2.78879e-95 1.14299e-95 4.93754e-95)
(-1.65298e-97 6.77243e-98 2.92611e-97)
(-9.76366e-100 3.99896e-100 1.72807e-99)
(-5.73114e-102 2.34662e-102 1.01419e-101)
(-3.33819e-104 1.36643e-104 5.90629e-104)
(-1.9281e-106 7.89016e-107 3.41084e-106)
)
;
    }
}


// ************************************************************************* //
