/*--------------------------------*- C++ -*----------------------------------*\
| =========                 |                                                 |
| \\      /  F ield         | OpenFOAM: The Open Source CFD Toolbox           |
|  \\    /   O peration     | Version:  2.4.0                                 |
|   \\  /    A nd           | Web:      www.OpenFOAM.org                      |
|    \\/     M anipulation  |                                                 |
\*---------------------------------------------------------------------------*/
FoamFile
{
    version     2.0;
    format      ascii;
    class       volVectorField;
    location    "0.08";
    object      A_Source;
}
// * * * * * * * * * * * * * * * * * * * * * * * * * * * * * * * * * * * * * //

dimensions      [1 -2 -2 0 0 0 0];

internalField   nonuniform List<vector> 
200
(
(2.07127e-58 -1.26344e-58 2.41363e-58)
(1.56521e-60 -9.54562e-61 1.82393e-60)
(1.20804e-62 -7.36602e-63 1.40772e-62)
(9.1585e-65 -5.58347e-65 1.06723e-64)
(6.74672e-67 -4.11246e-67 7.8619e-67)
(4.8305e-69 -2.94394e-69 5.62894e-69)
(3.37348e-71 -2.0556e-71 3.93109e-71)
(2.3073e-73 -1.40567e-73 2.68867e-73)
(1.55096e-75 -9.44701e-76 1.80732e-75)
(1.02746e-77 -6.25707e-78 1.19729e-77)
(7.6344e-61 -4.65831e-61 8.89631e-61)
(5.2143e-63 -3.18111e-63 6.07618e-63)
(3.70999e-65 -2.26295e-65 4.32322e-65)
(2.69744e-67 -1.64503e-67 3.1433e-67)
(1.96731e-69 -1.19955e-69 2.2925e-69)
(1.42222e-71 -8.67033e-72 1.6573e-71)
(1.01324e-73 -6.17603e-74 1.18072e-73)
(7.10069e-76 -4.32735e-76 8.27437e-76)
(4.89557e-78 -2.98296e-78 5.70476e-78)
(3.32411e-80 -2.02508e-80 3.87356e-80)
(2.53915e-63 -1.54965e-63 2.95885e-63)
(1.73197e-65 -1.0569e-65 2.01825e-65)
(1.19612e-67 -7.29804e-68 1.39383e-67)
(8.396e-70 -5.12192e-70 9.78379e-70)
(5.96536e-72 -3.63849e-72 6.95139e-72)
(4.25848e-74 -2.59694e-74 4.96237e-74)
(3.0329e-76 -1.84923e-76 3.53422e-76)
(2.14397e-78 -1.307e-78 2.49835e-78)
(1.4997e-80 -9.14086e-81 1.74758e-80)
(1.03649e-82 -6.3165e-83 1.20782e-82)
(7.66142e-66 -4.65057e-66 8.92779e-66)
(5.40266e-68 -3.27843e-68 6.29567e-68)
(3.77331e-70 -2.28908e-70 4.39701e-70)
(2.63495e-72 -1.59813e-72 3.07048e-72)
(1.84818e-74 -1.12074e-74 2.15367e-74)
(1.30249e-76 -7.89712e-77 1.51778e-76)
(9.20052e-79 -5.57754e-79 1.07213e-78)
(6.49146e-81 -3.93466e-81 7.56445e-81)
(4.55944e-83 -2.76314e-83 5.31307e-83)
(3.17956e-85 -1.92654e-85 3.70512e-85)
(3.14518e-60 -1.91824e-60 3.66506e-60)
(2.44133e-62 -1.48866e-62 2.84486e-62)
(1.93483e-64 -1.17959e-64 2.25464e-64)
(1.50506e-66 -9.17427e-67 1.75384e-66)
(1.13666e-68 -6.92749e-69 1.32454e-68)
(8.33692e-71 -5.08019e-71 9.71495e-71)
(5.96044e-73 -3.63142e-73 6.94565e-73)
(4.17088e-75 -2.54065e-75 4.86029e-75)
(2.86689e-77 -1.74599e-77 3.34076e-77)
(1.94108e-79 -1.18191e-79 2.26193e-79)
(1.193e-62 -7.27843e-63 1.39019e-62)
(8.35183e-65 -5.09458e-65 9.73232e-65)
(6.09078e-67 -3.71466e-67 7.09754e-67)
(4.53812e-69 -2.7672e-69 5.28824e-69)
(3.39033e-71 -2.06695e-71 3.95073e-71)
(2.50927e-73 -1.52953e-73 2.92403e-73)
(1.82921e-75 -1.11481e-75 2.13156e-75)
(1.31092e-77 -7.98801e-78 1.5276e-77)
(9.23798e-80 -5.62811e-80 1.07649e-79)
(6.40813e-82 -3.90335e-82 7.46734e-82)
(4.0758e-65 -2.48717e-65 4.7495e-65)
(2.84744e-67 -1.73739e-67 3.3181e-67)
(2.0134e-69 -1.22831e-69 2.3462e-69)
(1.44662e-71 -8.82397e-72 1.68574e-71)
(1.05178e-73 -6.41443e-74 1.22564e-73)
(7.6807e-76 -4.68333e-76 8.95025e-76)
(5.5935e-78 -3.41006e-78 6.51807e-78)
(4.04138e-80 -2.46339e-80 4.70939e-80)
(2.88803e-82 -1.76007e-82 3.3654e-82)
(2.03824e-84 -1.24196e-84 2.37514e-84)
(1.26165e-67 -7.65645e-68 1.47019e-67)
(9.10813e-70 -5.52558e-70 1.06136e-69)
(6.50904e-72 -3.9477e-72 7.58494e-72)
(4.64904e-74 -2.81898e-74 5.41749e-74)
(3.33415e-76 -2.02132e-76 3.88525e-76)
(2.40173e-78 -1.45582e-78 2.79871e-78)
(1.7335e-80 -1.05063e-80 2.02004e-80)
(1.24929e-82 -7.57047e-83 1.45579e-82)
(8.95938e-85 -5.42833e-85 1.04403e-84)
(6.3769e-87 -3.86293e-87 7.43095e-87)
(2.4652e-62 -1.50331e-62 2.87268e-62)
(1.96437e-64 -1.19765e-64 2.28907e-64)
(1.59776e-66 -9.73955e-67 1.86186e-66)
(1.27458e-68 -7.76823e-69 1.48526e-68)
(9.86371e-71 -6.0107e-71 1.14941e-70)
(7.40801e-73 -4.5135e-73 8.63249e-73)
(5.41974e-75 -3.30152e-75 6.31559e-75)
(3.87868e-77 -2.36231e-77 4.5198e-77)
(2.72519e-79 -1.65945e-79 3.17564e-79)
(1.88516e-81 -1.14769e-81 2.19676e-81)
(9.61674e-65 -5.86637e-65 1.12063e-64)
(6.89717e-67 -4.2067e-67 8.03722e-67)
(5.15307e-69 -3.14236e-69 6.00483e-69)
(3.9327e-71 -2.39772e-71 4.58275e-71)
(3.00821e-73 -1.83374e-73 3.50544e-73)
(2.27848e-75 -1.38866e-75 2.65509e-75)
(1.69886e-77 -1.03523e-77 1.97967e-77)
(1.24462e-79 -7.58301e-80 1.45035e-79)
(8.96163e-82 -5.459e-82 1.04429e-81)
(6.34867e-84 -3.8666e-84 7.39806e-84)
(3.37298e-67 -2.05804e-67 3.93051e-67)
(2.41236e-69 -1.47175e-69 2.81111e-69)
(1.74569e-71 -1.06487e-71 2.03424e-71)
(1.28333e-73 -7.82694e-74 1.49545e-73)
(9.54417e-76 -5.81991e-76 1.11217e-75)
(7.1269e-78 -4.34511e-78 8.30492e-78)
(5.30524e-80 -3.23391e-80 6.18215e-80)
(3.9164e-82 -2.38691e-82 4.56375e-82)
(2.85828e-84 -1.74172e-84 3.33073e-84)
(2.05928e-86 -1.25462e-86 2.39966e-86)
(1.07059e-69 -6.49532e-70 1.24755e-69)
(7.90885e-72 -4.7968e-72 9.21613e-72)
(5.7809e-74 -3.50519e-74 6.73644e-74)
(4.22151e-76 -2.55909e-76 4.9193e-76)
(3.09439e-78 -1.8755e-78 3.60587e-78)
(2.27755e-80 -1.38021e-80 2.65401e-80)
(1.67914e-82 -1.01742e-82 1.95668e-82)
(1.23565e-84 -7.48598e-85 1.43989e-84)
(9.04531e-87 -5.47907e-87 1.05404e-86)
(6.56912e-89 -3.97842e-89 7.65494e-89)
(1.32395e-64 -8.07247e-65 1.54279e-64)
(1.08232e-66 -6.59783e-67 1.26122e-66)
(9.02907e-69 -5.50311e-69 1.05215e-68)
(7.38224e-71 -4.49864e-71 8.60247e-71)
(5.85086e-73 -3.56486e-73 6.81797e-73)
(4.49716e-75 -2.7396e-75 5.2405e-75)
(3.36517e-77 -2.04964e-77 3.9214e-77)
(2.46186e-79 -1.49918e-79 2.86879e-79)
(1.7673e-81 -1.076e-81 2.05943e-81)
(1.24853e-83 -7.59991e-84 1.4549e-83)
(5.30791e-67 -3.2375e-67 6.18527e-67)
(3.89782e-69 -2.37704e-69 4.5421e-69)
(2.9818e-71 -1.81807e-71 3.47466e-71)
(2.32964e-73 -1.42017e-73 2.71472e-73)
(1.82361e-75 -1.11148e-75 2.12504e-75)
(1.41281e-77 -8.60953e-78 1.64634e-77)
(1.07694e-79 -6.5616e-80 1.25495e-79)
(8.06202e-82 -4.9112e-82 9.3946e-82)
(5.92864e-84 -3.61095e-84 6.9086e-84)
(4.28761e-86 -2.61097e-86 4.99632e-86)
(1.91005e-69 -1.16529e-69 2.22577e-69)
(1.39775e-71 -8.52647e-72 1.62879e-71)
(1.03462e-73 -6.31038e-74 1.20563e-73)
(7.77816e-76 -4.74329e-76 9.06383e-76)
(5.91424e-78 -3.60598e-78 6.89182e-78)
(4.51387e-80 -2.75166e-80 5.25997e-80)
(3.43305e-82 -2.09242e-82 4.00051e-82)
(2.5883e-84 -1.57727e-84 3.01612e-84)
(1.92842e-86 -1.17495e-86 2.24717e-86)
(1.41775e-88 -8.63656e-89 1.65209e-88)
(6.2127e-72 -3.76833e-72 7.23961e-72)
(4.69411e-74 -2.8463e-74 5.47001e-74)
(3.50766e-76 -2.12629e-76 4.08745e-76)
(2.61766e-78 -1.58643e-78 3.05034e-78)
(1.96025e-80 -1.18779e-80 2.28426e-80)
(1.47356e-82 -8.92762e-83 1.71713e-82)
(1.10923e-84 -6.71939e-85 1.29257e-84)
(8.33155e-87 -5.0463e-87 9.70868e-87)
(6.223e-89 -3.76858e-89 7.25161e-89)
(4.60971e-91 -2.79108e-91 5.37166e-91)
(5.49174e-67 -3.34799e-67 6.35622e-67)
(4.6033e-69 -2.80577e-69 5.32704e-69)
(3.93667e-71 -2.39901e-71 4.55483e-71)
(3.29723e-73 -2.009e-73 3.81433e-73)
(2.67509e-75 -1.62966e-75 3.0941e-75)
(2.10342e-77 -1.28119e-77 2.43248e-77)
(1.60919e-79 -9.79978e-80 1.86063e-79)
(1.20296e-81 -7.32448e-82 1.39069e-81)
(8.82015e-84 -5.36926e-84 1.01949e-83)
(6.36132e-86 -3.87162e-86 7.35161e-86)
(2.26142e-69 -1.37915e-69 2.61693e-69)
(1.69951e-71 -1.03629e-71 1.96638e-71)
(1.33057e-73 -8.11175e-74 1.53926e-73)
(1.06375e-75 -6.48385e-76 1.23039e-75)
(8.51768e-78 -5.1908e-78 9.85031e-78)
(6.74703e-80 -4.11101e-80 7.80133e-80)
(5.25585e-82 -3.20187e-82 6.07612e-82)
(4.01893e-84 -2.44791e-84 4.64538e-84)
(3.01741e-86 -1.83756e-86 3.48718e-86)
(2.22699e-88 -1.35595e-88 2.57327e-88)
(8.34454e-72 -5.09024e-72 9.65471e-72)
(6.24526e-74 -3.80922e-74 7.22468e-74)
(4.72649e-76 -2.88245e-76 5.46686e-76)
(3.63231e-78 -2.21479e-78 4.20061e-78)
(2.82262e-80 -1.72077e-80 3.26371e-80)
(2.20102e-82 -1.34158e-82 2.54455e-82)
(1.70972e-84 -1.04193e-84 1.97624e-84)
(1.31601e-86 -8.01859e-87 1.52091e-86)
(1.00063e-88 -6.09588e-89 1.15623e-88)
(7.50455e-91 -4.57099e-91 8.6701e-91)
(2.78004e-74 -1.68581e-74 3.21599e-74)
(2.14744e-76 -1.30178e-76 2.48379e-76)
(1.63981e-78 -9.9377e-79 1.89635e-78)
(1.2501e-80 -7.57426e-81 1.44544e-80)
(9.56028e-83 -5.7915e-83 1.10524e-82)
(7.33734e-85 -4.44424e-85 8.48114e-85)
(5.63741e-87 -3.41414e-87 6.51514e-87)
(4.32055e-89 -2.61625e-89 4.99243e-89)
(3.29173e-91 -1.99295e-91 3.803e-91)
(2.48634e-93 -1.50507e-93 2.87204e-93)
)
;

boundaryField
{
    inlet
    {
        type            zeroGradient;
    }
    outlet
    {
        type            zeroGradient;
    }
    bottom
    {
        type            zeroGradient;
    }
    top
    {
        type            symmetryPlane;
    }
    side1
    {
        type            symmetryPlane;
    }
    side2
    {
        type            symmetryPlane;
    }
    procBoundary26to18
    {
        type            processor;
        value           nonuniform List<vector> 
50
(
(2.26831e-55 -1.38304e-55 2.64325e-55)
(1.51755e-57 -9.25172e-58 1.76839e-57)
(9.96228e-60 -6.07265e-60 1.1609e-59)
(6.46093e-62 -3.9377e-62 7.52887e-62)
(4.1615e-64 -2.53579e-64 4.84936e-64)
(2.67159e-66 -1.62755e-66 3.11319e-66)
(1.71267e-68 -1.04311e-68 1.99576e-68)
(1.0969e-70 -6.67891e-71 1.27821e-70)
(7.01499e-73 -4.27017e-73 8.17451e-73)
(4.47482e-75 -2.72315e-75 5.21447e-75)
(3.39501e-57 -2.06969e-57 3.95618e-57)
(2.33162e-59 -1.42125e-59 2.71702e-59)
(1.5702e-61 -9.56991e-62 1.82974e-61)
(1.04402e-63 -6.36193e-64 1.21658e-63)
(6.89033e-66 -4.19794e-66 8.02924e-66)
(4.53022e-68 -2.75941e-68 5.27903e-68)
(2.97287e-70 -1.81035e-70 3.46426e-70)
(1.94816e-72 -1.18603e-72 2.27018e-72)
(1.27423e-74 -7.75523e-75 1.48485e-74)
(8.30931e-77 -5.05578e-77 9.68278e-77)
(2.6234e-59 -1.59905e-59 3.05703e-59)
(1.84848e-61 -1.12658e-61 2.15402e-61)
(1.27633e-63 -7.77769e-64 1.4873e-63)
(8.69596e-66 -5.29824e-66 1.01333e-65)
(5.87792e-68 -3.58057e-68 6.8495e-68)
(3.95612e-70 -2.40934e-70 4.61004e-70)
(2.65643e-72 -1.61739e-72 3.09552e-72)
(1.78046e-74 -1.08375e-74 2.07475e-74)
(1.19057e-76 -7.24484e-77 1.38736e-76)
(7.9339e-79 -4.82655e-79 9.24531e-79)
(1.38934e-61 -8.46717e-62 1.61899e-61)
(1.00374e-63 -6.11645e-64 1.16965e-63)
(7.10175e-66 -4.32698e-66 8.27561e-66)
(4.95534e-68 -3.01871e-68 5.77442e-68)
(3.42862e-70 -2.08824e-70 3.99534e-70)
(2.36106e-72 -1.4377e-72 2.75133e-72)
(1.62141e-74 -9.87055e-75 1.88942e-74)
(1.11098e-76 -6.76134e-77 1.29461e-76)
(7.59153e-79 -4.61883e-79 8.84635e-79)
(5.16759e-81 -3.14315e-81 6.02175e-81)
(5.68411e-64 -3.46357e-64 6.57948e-64)
(4.20829e-66 -2.56399e-66 4.87039e-66)
(3.04948e-68 -1.85771e-68 3.5287e-68)
(2.17812e-70 -1.32667e-70 2.52e-70)
(1.54195e-72 -9.38997e-73 1.78369e-72)
(1.08596e-74 -6.61159e-75 1.25601e-74)
(7.62392e-77 -4.64042e-77 8.81628e-77)
(5.33825e-79 -3.2483e-79 6.17213e-79)
(3.72618e-81 -2.2667e-81 4.30754e-81)
(2.58998e-83 -1.57507e-83 2.99357e-83)
)
;
    }
    procBoundary26to25
    {
        type            processor;
        value           nonuniform List<vector> 
20
(
(9.40128e-56 -5.73446e-56 1.09552e-55)
(2.55347e-58 -1.5579e-58 2.97554e-58)
(6.64379e-61 -4.05428e-61 7.74196e-61)
(1.66829e-63 -1.0133e-63 1.94405e-63)
(1.40648e-57 -8.57778e-58 1.63896e-57)
(3.92031e-60 -2.39151e-60 4.56831e-60)
(1.04615e-62 -6.38318e-63 1.21907e-62)
(2.69293e-65 -1.63527e-65 3.13805e-65)
(1.08635e-59 -6.62441e-60 1.26591e-59)
(3.10569e-62 -1.89431e-62 3.61904e-62)
(8.49558e-65 -5.18299e-65 9.89983e-65)
(2.24069e-67 -1.36032e-67 2.61106e-67)
(5.75081e-62 -3.50627e-62 6.70137e-62)
(1.6852e-64 -1.02775e-64 1.96375e-64)
(4.7227e-67 -2.88086e-67 5.50333e-67)
(1.27553e-69 -7.74193e-70 1.48637e-69)
(2.35181e-64 -1.43369e-64 2.72228e-64)
(7.06041e-67 -4.30531e-67 8.17129e-67)
(2.02607e-69 -1.23575e-69 2.34447e-69)
(5.60096e-72 -3.39872e-72 6.48014e-72)
)
;
    }
    procBoundary26to27
    {
        type            processor;
        value           nonuniform List<vector> 
20
(
(1.4548e-80 -8.85996e-81 1.69526e-80)
(6.84899e-83 -4.17315e-83 7.98107e-83)
(2.80116e-85 -1.70733e-85 3.26416e-85)
(1.03491e-87 -6.26645e-88 1.20598e-87)
(2.77713e-82 -1.69108e-82 3.23617e-82)
(1.33708e-84 -8.1459e-85 1.55809e-84)
(5.58481e-87 -3.40357e-87 6.50793e-87)
(2.1057e-89 -1.27469e-89 2.45376e-89)
(2.72498e-84 -1.65908e-84 3.1754e-84)
(1.34127e-86 -8.17033e-87 1.56297e-86)
(5.71969e-89 -3.48535e-89 6.66511e-89)
(2.20021e-91 -1.33156e-91 2.56388e-91)
(1.82308e-86 -1.10981e-86 2.12442e-86)
(9.16987e-89 -5.58508e-89 1.06856e-88)
(3.99076e-91 -2.43151e-91 4.65041e-91)
(1.56563e-93 -9.47278e-94 1.82441e-93)
(9.38198e-89 -5.71047e-89 1.08416e-88)
(4.82066e-91 -2.93572e-91 5.56968e-91)
(2.14043e-93 -1.30397e-93 2.47259e-93)
(8.56152e-96 -5.1788e-96 9.88847e-96)
)
;
    }
}


// ************************************************************************* //
