/*--------------------------------*- C++ -*----------------------------------*\
| =========                 |                                                 |
| \\      /  F ield         | OpenFOAM: The Open Source CFD Toolbox           |
|  \\    /   O peration     | Version:  2.4.0                                 |
|   \\  /    A nd           | Web:      www.OpenFOAM.org                      |
|    \\/     M anipulation  |                                                 |
\*---------------------------------------------------------------------------*/
FoamFile
{
    version     2.0;
    format      ascii;
    class       volSymmTensorField;
    location    "0.16";
    object      B;
}
// * * * * * * * * * * * * * * * * * * * * * * * * * * * * * * * * * * * * * //

dimensions      [0 2 -2 0 0 0 0];

internalField   nonuniform List<symmTensor> 
200
(
(6.24094e+29 5.07119e+28 -1.96631e+29 1.10277e+30 6.59739e+28 5.91831e+29)
(3.99363e+29 -5.17222e+28 -7.84036e+28 1.29999e+30 3.97286e+29 6.98764e+29)
(1.1288e+29 -1.39734e+29 -3.90469e+28 8.80192e+29 -3.22906e+28 6.29883e+29)
(1.08382e+30 -8.45513e+28 -5.03266e+29 1.44217e+30 1.72429e+29 1.33093e+30)
(1.986e+30 1.2262e+28 -1.25186e+30 2.23653e+30 -8.2163e+28 1.99826e+30)
(7.89614e+29 -3.58318e+29 -2.49877e+29 8.94649e+29 3.56878e+29 6.45355e+29)
(5.17008e+30 1.81997e+29 -2.69513e+30 4.98129e+30 -1.69619e+30 6.65748e+30)
(2.33805e+30 -1.08395e+30 1.68803e+29 2.9087e+30 2.35549e+30 2.64957e+30)
(1.54201e+31 1.42898e+30 -5.82454e+30 1.28607e+31 -6.12362e+30 1.87235e+31)
(9.06864e+30 -4.41194e+30 5.79649e+30 1.41048e+31 1.18927e+31 1.33312e+31)
(2.70669e+29 8.60886e+28 1.97322e+28 6.36474e+29 1.24399e+29 4.58755e+29)
(3.0228e+29 -5.53626e+28 -1.65952e+29 1.11778e+30 3.76807e+29 1.07796e+30)
(-1.44021e+28 -4.86353e+27 -8.76113e+28 3.89098e+29 3.73679e+28 3.25911e+29)
(2.09034e+30 -2.80183e+29 -1.21585e+30 3.20963e+30 2.36855e+29 3.2271e+30)
(-2.67351e+28 -7.90749e+28 -4.86335e+28 2.34023e+29 4.97853e+28 -1.15912e+29)
(5.56621e+30 -4.35294e+29 -2.27463e+30 5.53673e+30 5.53782e+29 6.37195e+30)
(1.65917e+29 -3.62206e+29 2.31223e+29 5.7868e+29 -4.80391e+28 2.4619e+29)
(7.51813e+30 -3.18859e+29 -4.0026e+30 6.83501e+30 1.74246e+29 9.848e+30)
(2.93764e+29 -1.7553e+30 3.97448e+30 4.71495e+30 1.0012e+30 2.87105e+30)
(2.13307e+31 -2.83362e+29 -1.06156e+31 1.94342e+31 -8.26485e+29 3.36529e+31)
(6.4163e+29 2.92643e+29 6.88209e+28 9.55424e+29 2.50155e+29 9.44297e+29)
(9.11522e+29 2.50818e+29 -6.80284e+28 1.70972e+30 -8.25288e+27 1.26171e+30)
(1.23297e+30 2.72453e+29 -2.73116e+29 3.04205e+30 5.4947e+29 2.61893e+30)
(1.0805e+30 1.62613e+29 -2.35461e+29 1.77691e+30 4.84813e+28 1.46482e+30)
(3.80257e+30 3.62502e+29 -1.52079e+30 6.55332e+30 8.98007e+29 5.18486e+30)
(7.25485e+29 1.45871e+28 -9.33851e+28 1.24899e+30 6.9836e+28 7.95546e+29)
(8.26278e+30 -3.27413e+28 -3.49854e+30 9.58275e+30 1.5478e+30 9.85619e+30)
(-4.41084e+29 -2.76865e+29 1.20839e+30 1.43911e+30 3.40463e+28 9.84086e+29)
(1.52918e+31 -1.7589e+28 -7.34444e+30 1.60477e+31 1.76316e+30 2.11288e+31)
(6.89669e+30 -2.30002e+30 1.48843e+31 1.80976e+31 1.8791e+30 1.71233e+31)
(4.12019e+30 7.58081e+29 -4.2191e+29 3.78755e+30 1.20422e+29 3.42851e+30)
(2.65367e+30 7.12465e+29 4.19603e+29 3.33378e+30 6.58495e+29 2.84275e+30)
(6.11658e+29 2.253e+29 3.06006e+29 2.17678e+30 4.08115e+29 1.85333e+30)
(2.22822e+30 7.59241e+29 -1.24523e+29 3.62439e+30 5.50278e+29 1.72016e+30)
(3.2013e+30 7.85913e+29 -2.26091e+29 4.03127e+30 -1.08722e+29 3.75449e+30)
(1.79542e+30 3.52935e+29 -1.84482e+30 8.60377e+30 1.16655e+30 5.31474e+30)
(7.42794e+30 -4.47815e+29 7.68873e+29 1.03223e+31 1.58405e+30 1.06206e+31)
(1.08129e+31 3.61608e+29 -4.63824e+30 1.54284e+31 2.09534e+30 1.50744e+31)
(1.53306e+30 -2.66751e+29 5.64785e+30 8.88728e+30 1.6028e+30 8.7371e+30)
(2.69184e+31 1.55151e+30 -1.22501e+31 3.25064e+31 3.79935e+30 4.34357e+31)
(9.49231e+29 1.17127e+29 2.57475e+29 1.96828e+30 2.34434e+29 1.3178e+30)
(4.37269e+29 1.3463e+29 5.32675e+29 1.93523e+30 2.62053e+28 1.20365e+30)
(4.27659e+29 4.80053e+29 2.56744e+29 1.63253e+30 1.97607e+29 7.81893e+29)
(9.30309e+29 -1.90336e+29 2.72884e+29 2.68303e+30 3.33214e+29 1.32096e+30)
(2.44883e+30 1.27104e+30 5.45448e+29 5.32791e+30 -2.11178e+29 4.48389e+30)
(2.28812e+30 2.98069e+28 8.64849e+29 7.09465e+30 5.02407e+29 6.45057e+30)
(1.92952e+30 -4.33713e+28 8.77695e+29 3.85597e+30 4.17181e+29 3.11896e+30)
(2.11905e+30 4.23669e+29 -3.69835e+29 7.91465e+30 -4.34801e+29 8.21842e+30)
(7.97347e+29 -1.10372e+29 1.23438e+30 5.808e+30 1.61453e+30 3.53791e+30)
(3.68469e+30 4.28769e+28 -2.97192e+29 9.95726e+30 -1.32718e+30 1.15993e+31)
(1.92479e+30 2.75403e+29 2.94063e+29 2.31962e+30 1.75461e+29 2.1346e+30)
(9.9444e+29 3.35389e+29 5.60681e+29 1.85981e+30 -2.09801e+29 1.24692e+30)
(-5.11015e+29 1.80334e+29 3.77265e+29 2.77002e+30 3.77583e+29 2.36529e+30)
(3.09923e+31 3.99343e+29 -4.71368e+29 2.87102e+31 2.53527e+28 2.85708e+31)
(3.90938e+30 4.15537e+29 8.54584e+29 3.48872e+30 4.04006e+29 3.86096e+30)
(7.05966e+30 7.39885e+29 1.57648e+30 1.38913e+31 -1.64825e+29 1.35219e+31)
(2.60019e+30 3.27605e+28 -4.41873e+29 6.40981e+30 4.42875e+29 7.13008e+30)
(1.44432e+30 2.79745e+29 1.3045e+30 3.54882e+30 4.76208e+29 3.58109e+30)
(3.63564e+30 1.1235e+30 -4.60788e+28 9.55435e+30 6.45443e+29 1.24194e+31)
(1.70465e+30 -3.85714e+28 5.35645e+30 9.86545e+30 1.76072e+30 4.93808e+30)
(3.70262e+29 8.88742e+28 1.70512e+29 7.58328e+29 -7.59844e+28 6.0323e+29)
(5.03358e+29 1.1349e+29 5.65555e+29 1.88961e+30 2.34492e+29 1.64562e+30)
(7.03631e+29 -7.1816e+28 3.37267e+29 1.47402e+30 -1.68644e+28 1.29495e+30)
(-7.8096e+29 1.9017e+29 9.46754e+28 1.62907e+30 -4.06633e+29 1.43852e+30)
(5.48515e+30 -4.52298e+28 -5.42517e+28 5.40262e+30 5.1128e+29 5.29286e+30)
(2.18515e+30 9.48955e+29 1.1591e+30 3.54084e+30 -1.14776e+29 4.42166e+30)
(9.46886e+30 -1.41565e+29 1.82273e+30 1.36075e+31 8.1844e+29 1.45469e+31)
(2.7836e+30 6.52833e+29 1.96442e+29 6.46242e+30 5.77252e+29 7.90248e+30)
(1.51042e+30 5.55424e+29 1.78046e+30 3.94128e+30 5.9638e+29 3.42963e+30)
(2.34412e+30 2.62007e+30 8.81036e+29 1.33008e+31 1.05007e+30 1.90348e+31)
(8.27991e+29 3.98738e+29 8.5444e+29 1.14723e+30 2.91195e+29 1.74992e+30)
(1.19669e+30 1.53835e+29 1.1311e+29 1.08586e+30 -1.34215e+28 1.73185e+30)
(9.75432e+29 -2.69611e+29 -1.19838e+30 2.08823e+30 -8.05687e+29 2.30819e+30)
(4.53332e+30 5.70024e+29 1.15572e+29 5.11626e+30 -2.17587e+29 5.0361e+30)
(1.70472e+30 2.84073e+29 5.93514e+29 2.4881e+30 -1.81237e+29 2.59605e+30)
(2.8402e+31 -5.24411e+29 2.75518e+30 2.78127e+31 4.77365e+30 3.44166e+31)
(2.57752e+30 8.09353e+29 8.01671e+29 3.02189e+30 3.4702e+28 3.82249e+30)
(-5.16077e+29 3.03988e+29 6.03431e+29 2.28952e+30 8.27832e+29 2.52211e+30)
(1.39292e+30 1.95095e+30 6.57473e+29 8.36126e+30 4.13282e+29 1.10811e+31)
(-2.86045e+30 5.3414e+30 8.34882e+29 5.55475e+30 -2.83888e+30 -6.9002e+30)
(5.47055e+29 -5.18788e+27 2.70144e+29 1.25113e+30 5.3459e+28 8.90775e+29)
(1.5125e+30 3.56179e+29 8.18982e+29 2.78007e+30 6.11287e+29 1.74004e+30)
(1.21603e+29 -2.76949e+28 6.69974e+29 1.77798e+30 9.90959e+28 6.26674e+29)
(3.24593e+30 3.71489e+29 8.88189e+29 4.2774e+30 2.36598e+29 3.71039e+30)
(8.8896e+29 -1.11405e+29 6.20876e+29 2.21721e+30 -2.24093e+29 1.5895e+30)
(2.81608e+30 3.59417e+29 1.03663e+30 4.37044e+30 1.82405e+29 3.56015e+30)
(4.80555e+29 -2.05347e+29 6.03743e+29 1.5792e+30 -1.62272e+29 5.4756e+29)
(3.16074e+30 3.83347e+29 1.68602e+30 4.7341e+30 7.61729e+29 3.79699e+30)
(2.19978e+30 9.98257e+28 1.55172e+30 4.5523e+30 -2.94422e+29 3.56358e+30)
(7.00475e+30 6.96797e+29 2.81164e+30 1.00625e+31 8.01028e+29 8.28705e+30)
(3.15739e+29 1.13362e+29 2.5316e+29 8.49024e+29 7.05319e+28 9.20208e+29)
(2.95616e+29 1.66615e+29 1.57857e+29 1.0084e+30 3.14539e+29 6.0348e+29)
(8.95619e+29 9.73361e+28 1.64469e+29 1.36839e+30 9.40153e+28 1.30679e+30)
(-4.18684e+28 1.05416e+29 2.90896e+29 8.58741e+29 1.56645e+29 4.39119e+29)
(2.39912e+30 3.78981e+28 8.80102e+28 3.65927e+30 -1.43842e+28 4.04838e+30)
(1.23701e+30 1.62385e+29 6.83732e+29 1.39863e+30 -5.96427e+28 8.78586e+29)
(5.60954e+30 -1.41095e+29 1.62841e+30 6.4571e+30 8.47378e+29 6.2967e+30)
(1.92802e+30 5.51933e+29 9.54964e+29 2.66916e+30 -1.13032e+29 2.55663e+30)
(1.7883e+30 4.28195e+29 9.40025e+29 2.24201e+30 9.35714e+27 2.18375e+30)
(3.94499e+30 1.97317e+30 2.13499e+30 5.85863e+30 -1.49534e+29 5.70933e+30)
(9.90373e+29 1.45305e+29 2.8093e+29 1.31539e+30 6.30947e+28 1.17464e+30)
(9.05739e+29 4.38785e+28 2.71095e+29 1.29832e+30 4.28644e+28 1.43321e+30)
(1.8526e+29 9.89351e+28 8.1191e+26 4.73562e+29 1.09978e+28 1.9382e+29)
(3.13372e+29 1.42614e+29 3.88419e+29 1.00857e+30 3.2033e+28 1.17672e+30)
(1.61788e+30 3.41263e+28 4.27718e+29 2.0539e+30 2.18364e+29 1.98759e+30)
(1.18766e+31 -1.70539e+29 2.07605e+30 1.21727e+31 1.03526e+30 1.36367e+31)
(6.64343e+29 2.976e+29 5.88467e+29 1.40445e+30 -1.98464e+29 8.76732e+29)
(1.80482e+30 8.55378e+28 -2.25041e+29 1.46947e+30 -6.71831e+29 1.18468e+30)
(5.68493e+30 1.95473e+30 2.09631e+30 6.64138e+30 -5.43319e+29 6.65255e+30)
(2.46358e+30 1.80797e+30 1.75285e+30 4.89728e+30 -1.40201e+30 3.33168e+30)
(1.74205e+30 1.47572e+28 3.09982e+29 1.77518e+30 1.10657e+29 2.01989e+30)
(4.35072e+28 5.88948e+28 -1.17265e+28 2.18107e+29 -4.37532e+28 5.70936e+27)
(1.46936e+28 7.43779e+28 1.46358e+29 2.61529e+29 5.17112e+28 5.59471e+29)
(2.991e+30 -9.97009e+28 1.98982e+29 3.31498e+30 8.82165e+28 3.45368e+30)
(1.69006e+31 -5.66748e+29 2.265e+30 1.69692e+31 8.33716e+29 1.80839e+31)
(3.03675e+30 6.51451e+28 1.73959e+29 2.72919e+30 -3.47643e+28 2.68373e+30)
(1.2774e+31 2.06436e+30 -5.0043e+30 8.36778e+30 -1.74419e+30 6.93696e+30)
(1.1555e+31 8.11697e+29 1.36546e+30 1.05529e+31 -3.4983e+29 1.0394e+31)
(2.35375e+30 2.24648e+30 1.17502e+30 4.30075e+30 -1.58221e+30 2.12746e+30)
(6.84216e+30 2.67536e+30 1.15921e+30 8.61615e+30 -1.09523e+30 8.69011e+30)
(4.11765e+29 2.92266e+28 7.00101e+28 1.47067e+30 4.62449e+29 -4.71455e+28)
(6.2168e+29 -1.74055e+29 -2.72037e+29 1.82405e+30 -2.69108e+29 1.54181e+30)
(1.31123e+30 1.34831e+29 6.57299e+28 1.93128e+30 3.53301e+29 1.79898e+30)
(3.13213e+29 -2.51656e+28 3.03529e+28 7.94299e+29 -1.01492e+29 5.52042e+29)
(6.76913e+29 2.55598e+29 3.95323e+28 1.35277e+30 3.20646e+29 1.09189e+30)
(1.23061e+29 -5.41976e+28 2.37583e+28 3.48765e+29 -9.91303e+28 7.40831e+28)
(9.83449e+29 2.71922e+29 3.16868e+29 1.10547e+30 3.82327e+29 9.90683e+29)
(4.46873e+29 -8.61556e+28 2.67943e+29 5.26132e+29 -1.74565e+29 1.70303e+29)
(2.89284e+30 5.18693e+29 1.13059e+30 2.58192e+30 5.15102e+29 2.57464e+30)
(1.4023e+30 7.52348e+28 4.12938e+29 1.31428e+30 -4.06803e+29 1.40198e+29)
(8.67694e+28 -3.98655e+27 -3.06849e+28 4.01587e+29 7.96823e+28 2.74295e+29)
(2.33324e+29 2.33333e+28 4.88472e+27 6.81862e+29 8.34767e+28 6.52956e+29)
(3.2774e+29 6.69672e+28 -2.29961e+27 6.36783e+29 9.32393e+28 4.1994e+29)
(2.32284e+29 4.15345e+28 1.98417e+28 6.16458e+29 3.77223e+28 4.9796e+29)
(3.24316e+29 6.95895e+28 7.44102e+28 8.82892e+29 1.17483e+29 4.813e+29)
(7.54655e+29 -7.08064e+28 1.84273e+29 9.67176e+29 1.57556e+29 7.53555e+29)
(3.17144e+29 1.03489e+29 1.44958e+29 4.84513e+29 2.34435e+28 1.40172e+29)
(1.52629e+30 1.0647e+29 2.742e+29 1.33922e+30 -6.22866e+28 1.05601e+30)
(1.45684e+30 5.09443e+29 2.64526e+29 1.34348e+30 -3.11222e+28 7.12632e+29)
(2.87085e+30 3.72181e+29 7.32299e+29 2.95893e+30 -2.45181e+29 2.45051e+30)
(9.93446e+28 -1.2033e+29 4.66701e+28 3.87313e+29 2.49469e+28 4.99452e+29)
(1.73666e+29 1.85751e+28 3.9379e+28 3.9859e+29 4.59305e+28 2.18754e+29)
(4.3568e+28 3.92008e+28 6.56352e+28 3.52015e+29 -2.29559e+27 2.76419e+29)
(8.52279e+29 8.53501e+28 1.25091e+29 1.30894e+30 1.18624e+29 9.61328e+29)
(1.69138e+30 -4.60865e+28 5.89654e+29 2.10124e+30 1.7574e+29 1.88806e+30)
(8.58666e+29 1.48529e+28 -1.40973e+28 1.08586e+30 4.1356e+28 5.92494e+29)
(2.61996e+30 7.69057e+28 -1.46175e+29 2.33946e+30 -4.06585e+29 8.05467e+29)
(1.75516e+30 2.05192e+29 3.22411e+29 1.81622e+30 -2.94388e+27 1.23076e+30)
(2.85266e+30 3.46511e+29 7.62574e+29 3.0877e+30 -3.16198e+29 2.17605e+30)
(2.51476e+30 7.86002e+29 1.56047e+29 2.61872e+30 -1.58723e+29 1.76806e+30)
(1.49968e+28 9.25416e+27 3.38557e+28 8.83072e+28 2.17627e+28 2.38643e+28)
(3.9122e+28 3.67185e+28 3.14151e+28 1.32287e+29 4.80596e+28 1.44422e+29)
(1.1162e+30 3.09032e+28 1.07557e+29 1.46941e+30 3.34977e+28 1.20234e+30)
(8.81853e+29 3.37104e+28 3.04641e+29 1.07699e+30 1.08803e+29 1.05618e+30)
(2.564e+30 -9.28896e+28 1.35791e+28 2.59924e+30 9.04779e+28 1.92594e+30)
(7.18753e+30 1.67437e+29 -5.58745e+29 6.06371e+30 -8.5706e+29 3.26278e+30)
(3.27346e+30 -6.56986e+28 3.76859e+29 3.10291e+30 1.12126e+29 2.65861e+30)
(2.09974e+30 3.14474e+29 1.49912e+30 2.22542e+30 -4.55641e+29 1.34758e+30)
(1.67434e+30 4.15713e+29 1.46807e+29 1.77954e+30 -1.86505e+29 9.10316e+29)
(2.10362e+30 3.20219e+29 2.04371e+29 1.97427e+30 -6.74848e+29 1.55886e+30)
(7.61486e+30 -6.73201e+28 -2.82569e+29 9.00729e+30 1.19307e+30 1.07649e+31)
(6.73813e+30 3.31887e+29 1.47377e+30 6.67219e+30 1.43506e+29 6.76131e+30)
(2.45604e+30 2.17386e+29 -2.59508e+29 2.25151e+30 -2.99513e+29 2.14445e+30)
(8.69752e+29 4.42272e+29 -5.734e+28 1.00951e+30 4.0735e+29 9.87853e+29)
(1.5918e+30 4.43925e+28 1.9512e+29 1.434e+30 -3.59903e+29 1.14286e+30)
(1.63363e+30 2.8539e+29 -6.90318e+28 1.21233e+30 3.86703e+29 1.15568e+30)
(2.3572e+30 -2.36118e+29 4.11205e+29 1.53952e+30 -4.88706e+29 1.38112e+30)
(8.03047e+30 4.9262e+28 6.09039e+29 5.03534e+30 7.2832e+29 5.10441e+30)
(9.70849e+30 -1.56862e+29 -3.70225e+29 6.19396e+30 -1.05476e+30 5.93374e+30)
(1.45583e+31 -1.15545e+29 2.60411e+29 1.08266e+31 1.94785e+30 1.12597e+31)
(3.03635e+30 1.85803e+29 3.70675e+29 3.40469e+30 7.18266e+29 2.95622e+30)
(5.1786e+30 8.79218e+29 -7.26507e+28 6.3829e+30 6.35993e+28 4.99707e+30)
(5.00603e+29 1.8015e+29 -4.12968e+28 1.08008e+30 3.06456e+28 5.01882e+29)
(1.99001e+30 2.53458e+29 -2.50534e+28 2.53853e+30 7.03315e+28 1.92733e+30)
(1.1666e+30 8.1012e+28 -6.65551e+28 1.69906e+30 -5.96678e+28 9.53904e+29)
(6.9453e+29 1.21922e+29 1.66167e+29 1.21687e+30 -3.63536e+28 4.01663e+29)
(2.28105e+30 -6.76595e+28 1.39004e+29 2.04453e+30 -2.62884e+29 1.22218e+30)
(3.05601e+30 1.0911e+29 3.96636e+29 2.4803e+30 -1.77595e+29 1.46045e+30)
(7.07146e+30 -3.3675e+29 3.9863e+29 5.89359e+30 -2.04865e+29 4.99197e+30)
(4.51484e+30 3.35772e+29 -8.64391e+29 3.38987e+30 1.28613e+29 2.46147e+30)
(1.52575e+30 2.8435e+29 3.25708e+28 2.14004e+30 4.44842e+28 1.35193e+30)
(3.71452e+29 5.68864e+28 -9.78987e+27 4.62038e+29 3.78049e+28 1.98835e+29)
(1.26837e+30 1.77781e+29 -4.5425e+27 1.72538e+30 4.67012e+28 1.02124e+30)
(9.42102e+29 2.39871e+29 -1.56901e+27 1.32312e+30 2.41498e+28 7.40223e+29)
(1.23775e+30 1.10271e+29 -3.17838e+28 1.65309e+30 3.90215e+28 9.72585e+29)
(1.78958e+30 7.30841e+28 -2.04698e+29 1.88416e+30 -4.10842e+29 9.46455e+29)
(3.65824e+29 7.86531e+27 1.08066e+29 6.84547e+29 6.12842e+28 3.01406e+29)
(2.25253e+30 -3.31691e+29 6.53654e+29 2.77354e+30 -2.51462e+29 1.50193e+30)
(1.82522e+30 2.31769e+29 4.74577e+29 1.83837e+30 -1.31797e+29 1.78692e+29)
(6.8848e+30 -2.54224e+29 3.65632e+29 6.70484e+30 -5.90942e+29 4.88973e+30)
(8.17963e+29 -1.36667e+29 -6.87154e+28 7.34788e+29 1.05905e+29 5.11786e+29)
(5.24074e+29 2.52685e+28 -6.43413e+27 6.58788e+29 -2.61871e+28 2.63614e+29)
(5.99076e+29 1.03626e+29 -1.95231e+28 5.86917e+29 7.23492e+28 3.7841e+29)
(9.61426e+29 2.07293e+28 2.89474e+28 1.07839e+30 -1.12841e+28 5.67026e+29)
(4.19079e+30 1.12221e+28 -5.23801e+29 3.73707e+30 -2.71574e+29 3.30761e+30)
(2.00347e+30 -3.21285e+29 2.95997e+29 1.80933e+30 1.50139e+29 1.85648e+30)
(1.12266e+30 -3.5767e+28 8.03278e+29 1.44002e+30 -1.78815e+28 9.82331e+29)
(1.63372e+30 8.56534e+28 3.74244e+28 1.59203e+30 8.2217e+28 5.5155e+29)
(1.84522e+30 -2.18263e+28 -1.19088e+27 2.16283e+30 -1.82803e+29 1.31915e+30)
(1.46613e+30 3.54386e+29 1.18071e+29 1.71991e+30 -1.54484e+29 5.44021e+29)
)
;

boundaryField
{
    inlet
    {
        type            calculated;
        value           nonuniform 0();
    }
    outlet
    {
        type            calculated;
        value           nonuniform 0();
    }
    bottom
    {
        type            calculated;
        value           nonuniform List<symmTensor> 
40
(
(-1.6861e+13 6.22565e+12 -6.96549e+13 4.1904e+13 1.15771e+13 5.91116e+12)
(-2.69539e+13 1.27001e+13 -4.49074e+13 2.70109e+13 3.73261e+13 -2.00988e+13)
(-2.83876e+13 3.64636e+13 -2.66357e+13 1.07114e+13 4.97105e+13 1.45372e+13)
(4.12426e+13 5.78054e+13 -3.54051e+13 1.58781e+13 3.01207e+13 -2.42601e+13)
(-3.22776e+13 -4.08879e+12 -3.7326e+13 3.89197e+13 4.1975e+13 -7.10533e+13)
(-4.61021e+13 -4.6204e+12 -5.97724e+13 2.19572e+13 4.24079e+13 3.66304e+13)
(-4.84282e+13 3.16826e+13 -4.8669e+13 5.23974e+13 1.91193e+13 -7.08071e+10)
(-1.85161e+13 5.39605e+13 6.26362e+13 3.29944e+13 9.91829e+13 -1.07197e+14)
(-4.5837e+13 -1.42832e+13 -5.59577e+13 3.25954e+13 8.36826e+11 5.78209e+13)
(-4.42444e+13 -7.45105e+11 -8.05355e+13 1.75728e+13 1.87866e+13 -1.03204e+13)
(-6.60782e+13 1.75991e+13 -6.71457e+13 5.07789e+13 4.30882e+13 2.03583e+13)
(-1.07588e+14 2.14376e+13 1.79393e+13 4.13362e+13 8.89001e+13 2.29652e+13)
(-1.86382e+13 -8.46954e+12 -9.74094e+13 1.72578e+13 1.2225e+13 -2.50252e+12)
(-4.04517e+13 -1.62783e+13 -1.08457e+14 2.45776e+13 1.89057e+13 4.4719e+13)
(-4.67116e+13 2.1768e+13 -9.49398e+13 4.65133e+13 1.75937e+13 -1.93198e+12)
(-1.04464e+13 4.06585e+13 -1.48584e+13 6.43207e+13 6.92642e+13 -3.48258e+13)
(-2.09848e+12 6.85644e+11 -1.28103e+14 1.19102e+13 -1.06756e+13 3.11425e+13)
(-2.54007e+13 -1.34144e+13 -1.24133e+14 1.88348e+13 5.23178e+12 -5.31223e+13)
(-5.12541e+13 1.60939e+13 -1.19316e+14 7.08701e+13 4.92573e+13 1.37495e+13)
(-3.33672e+13 7.18275e+13 -3.65711e+13 4.24869e+13 4.26913e+13 4.45595e+13)
(2.43413e+12 -2.70626e+13 -5.17756e+13 1.03671e+13 2.90933e+13 -8.51936e+13)
(-9.31925e+11 -1.91807e+13 -1.54448e+14 -2.23077e+12 7.10016e+12 7.01853e+12)
(-3.96402e+13 2.67491e+12 -1.10751e+14 5.63585e+13 -1.0023e+13 -6.12329e+13)
(-1.37391e+14 1.26682e+13 -8.06122e+13 1.06988e+14 7.42972e+13 -8.24086e+13)
(-5.98347e+12 5.95019e+12 -1.23036e+14 -1.2156e+13 -7.66775e+13 1.21828e+14)
(-1.58268e+13 -2.77204e+13 -2.95428e+13 1.57628e+13 -1.19515e+13 -1.71212e+14)
(-1.35976e+13 -1.04486e+12 -1.73066e+14 2.85258e+13 2.66574e+13 4.76964e+13)
(-1.18392e+14 -2.72123e+13 -1.69424e+13 5.74887e+13 1.00703e+14 -4.60944e+13)
(-1.47259e+13 -3.89797e+13 -2.03416e+13 5.79508e+12 9.94075e+13 -1.59019e+14)
(4.50162e+11 -8.69081e+12 -1.5513e+14 -1.81691e+13 -2.57002e+13 2.07251e+14)
(-4.98131e+13 -1.05599e+13 -1.6481e+13 2.18993e+13 -1.12571e+13 -1.92971e+14)
(-4.98887e+13 9.12852e+12 -1.82171e+14 6.66259e+13 3.14286e+13 1.33754e+14)
(1.44854e+13 2.66711e+13 -1.25332e+14 -3.32849e+13 -1.67482e+14 3.00447e+14)
(-6.58839e+13 -3.98757e+13 5.41229e+13 3.45536e+13 2.01546e+13 -2.66277e+14)
(-9.1055e+12 -3.2549e+11 -2.02967e+14 4.8839e+12 1.17878e+12 3.38565e+14)
(-1.30779e+14 -6.19563e+12 6.86673e+13 4.00324e+13 2.98592e+13 -2.05658e+14)
(-6.07324e+13 -6.61409e+13 8.56555e+13 1.47665e+13 2.29119e+14 -2.15575e+14)
(-1.15324e+13 -3.91419e+12 -1.98496e+14 -3.77302e+13 -6.55676e+13 6.15944e+14)
(-1.51344e+14 -3.71133e+13 1.90085e+14 2.93959e+13 2.08418e+13 -3.21628e+14)
(-4.47333e+13 1.98621e+13 -2.57661e+14 2.68029e+13 1.05899e+13 6.41892e+14)
)
;
    }
    top
    {
        type            symmetryPlane;
    }
    side1
    {
        type            symmetryPlane;
    }
    side2
    {
        type            symmetryPlane;
    }
    procBoundary6to5
    {
        type            processor;
        value           nonuniform List<symmTensor> 
20
(
(-2.43776e+29 5.42679e+28 -4.3751e+28 3.16894e+29 2.14324e+29 -8.63073e+28)
(-1.89883e+29 2.10948e+29 3.3806e+28 9.20986e+28 1.4576e+29 -5.32088e+27)
(-9.08009e+28 2.98342e+29 3.18817e+27 1.82083e+29 8.73896e+28 -1.26409e+29)
(-7.28121e+28 2.89748e+29 1.25771e+29 7.28072e+28 1.13566e+29 -3.29711e+28)
(1.09456e+28 3.17389e+29 6.63627e+28 3.89256e+29 -2.92797e+28 -2.60145e+29)
(-9.12986e+28 2.69123e+29 3.49194e+29 1.33856e+29 -1.18828e+29 -4.45878e+28)
(3.52801e+27 3.40937e+29 3.7932e+29 1.41162e+29 1.08369e+28 -1.66184e+28)
(-8.69492e+28 1.42364e+29 1.65484e+29 9.42257e+28 -2.90059e+28 -3.22389e+28)
(-3.8394e+28 1.57854e+29 3.84476e+29 8.16679e+29 4.38503e+29 5.19088e+27)
(-1.9845e+29 1.75882e+28 3.16848e+29 2.50347e+28 1.81261e+29 2.83853e+28)
(-1.07647e+29 -4.52862e+28 1.0003e+29 1.00645e+28 -3.40695e+27 1.28744e+29)
(-9.26287e+28 1.60512e+29 3.32002e+29 9.10719e+27 7.67726e+28 5.03183e+28)
(-1.22927e+30 -2.60753e+29 -4.10739e+29 1.06566e+30 -4.07369e+29 6.45322e+29)
(-4.59482e+29 -9.02383e+28 1.14703e+28 2.40561e+29 1.13345e+29 -8.62281e+28)
(-1.88104e+29 -6.00446e+27 8.36117e+28 5.20471e+28 3.15905e+28 5.45626e+28)
(-2.03586e+29 -1.57484e+29 9.74202e+28 -1.0552e+29 1.45703e+29 2.80925e+29)
(-1.80103e+30 1.31723e+30 -3.25979e+30 -2.52883e+29 -5.74996e+29 -3.78727e+28)
(1.57685e+29 2.29952e+30 -4.29039e+29 1.58894e+30 3.27328e+28 2.76287e+29)
(-2.17299e+29 1.22748e+28 -1.12309e+29 4.23555e+29 3.14658e+29 -2.69792e+29)
(2.92693e+29 -1.31803e+29 -1.23332e+28 8.11419e+28 7.38802e+28 -2.03327e+29)
)
;
    }
    procBoundary6to7
    {
        type            processor;
        value           nonuniform List<symmTensor> 
20
(
(-1.2144e+30 4.17008e+30 -1.24901e+31 -5.21396e+30 -2.32283e+31 1.83523e+31)
(-2.17417e+31 -6.08667e+30 3.469e+31 5.31238e+30 1.11106e+31 4.81774e+30)
(-7.97545e+30 2.11222e+29 -2.17369e+31 -3.22267e+29 2.87009e+30 3.49461e+31)
(-2.44746e+31 5.48996e+29 5.81201e+31 6.36177e+30 -1.19426e+29 -4.22138e+30)
(-4.9565e+30 -8.39927e+29 5.86389e+30 3.18584e+30 5.6898e+30 -3.61304e+30)
(-1.11685e+31 1.46098e+30 -9.7154e+29 3.07334e+30 1.71289e+30 1.09038e+31)
(-9.79079e+30 6.18912e+30 2.00755e+31 9.9913e+30 -3.99864e+30 -2.85924e+31)
(4.70633e+29 3.69334e+30 -1.34894e+30 1.31695e+30 1.24964e+29 4.97264e+30)
(-2.25816e+30 7.88111e+29 2.564e+30 2.69128e+30 -7.92272e+29 4.77865e+29)
(-1.60748e+30 1.25596e+30 3.60884e+30 2.6608e+30 -6.68731e+29 -2.05686e+30)
(8.87782e+29 4.57544e+30 2.04565e+30 1.7909e+30 -1.2683e+30 9.17557e+29)
(6.41929e+29 1.75809e+30 -4.17913e+29 6.54459e+29 -2.92188e+30 -1.31251e+29)
(9.6843e+29 8.82661e+29 2.17412e+30 4.52161e+29 8.6603e+29 -7.84336e+29)
(3.74373e+29 8.32999e+29 -1.47042e+29 2.69701e+29 -5.68282e+28 -1.43591e+30)
(4.27369e+29 7.96797e+29 5.74895e+29 7.1339e+29 -1.14502e+30 -4.32441e+29)
(1.82137e+29 7.42273e+29 1.2511e+29 -5.06677e+28 -4.08349e+29 -3.60171e+29)
(1.99232e+30 -1.74417e+29 -1.89556e+30 -1.10712e+30 -2.82352e+30 -1.61589e+30)
(1.38733e+30 -7.48875e+29 -2.70424e+29 2.69937e+29 1.48889e+29 -3.9512e+29)
(3.92409e+29 3.11186e+29 -8.11164e+29 -2.56235e+28 3.77936e+29 -1.10933e+30)
(4.39687e+29 -3.10788e+29 2.17053e+29 5.67796e+29 -4.91389e+29 -6.91268e+29)
)
;
    }
    procBoundary6to14
    {
        type            processor;
        value           nonuniform List<symmTensor> 
50
(
(-5.40323e+29 7.53067e+29 6.67912e+29 7.3846e+29 9.42197e+29 -1.33774e+28)
(-1.16731e+29 9.97024e+28 3.30543e+29 -1.05381e+29 3.89151e+29 1.21256e+29)
(-2.20605e+29 5.64092e+29 -4.55241e+29 1.43354e+29 5.61366e+29 -6.56101e+29)
(2.17162e+30 6.81042e+29 -1.81643e+30 5.01301e+28 5.86487e+29 -3.30721e+29)
(6.57386e+29 8.25266e+29 1.00805e+29 -3.67701e+28 3.08487e+29 -9.80361e+29)
(-4.14044e+30 -2.80578e+29 3.90596e+30 -8.3011e+29 4.06917e+30 4.86491e+30)
(-3.69376e+30 -5.78882e+29 -7.90945e+29 9.70467e+29 1.15557e+30 2.64494e+30)
(-4.61989e+30 -9.34844e+29 -8.59424e+29 7.67899e+29 3.43618e+30 3.41369e+30)
(-3.20149e+30 -4.86375e+29 -5.09613e+30 1.55604e+30 2.97747e+30 4.73328e+30)
(-7.72482e+30 2.01384e+30 1.87211e+31 5.06463e+30 5.32166e+29 -4.47448e+30)
(1.72654e+29 4.89182e+28 4.17848e+29 -7.72312e+29 1.90425e+29 7.80609e+29)
(-8.47666e+29 -7.01887e+28 -1.41835e+30 -9.54548e+28 -7.58567e+29 1.21072e+29)
(4.99139e+29 6.83649e+29 -3.21872e+29 2.57768e+29 -1.59936e+29 3.22437e+29)
(-3.73624e+29 1.1158e+29 5.18205e+29 8.68605e+28 1.71905e+29 4.71233e+29)
(-1.06564e+31 -6.96543e+30 1.92532e+31 -5.23427e+30 9.42243e+30 8.59696e+30)
(2.00589e+29 5.28399e+29 5.15383e+29 8.95212e+28 -5.32064e+27 6.10214e+29)
(1.17537e+30 4.79763e+30 -1.14821e+31 -2.95959e+30 2.49491e+30 -1.00476e+29)
(-1.84029e+30 1.2782e+30 2.59395e+29 -6.68523e+28 -2.15403e+29 1.39e+30)
(-1.2094e+30 2.00661e+30 -2.03349e+30 1.77117e+29 -7.87946e+29 -1.10117e+30)
(-7.52657e+29 1.6913e+30 -3.6075e+29 5.57198e+29 3.17365e+29 1.80102e+30)
(-7.92964e+28 2.95484e+29 8.37595e+28 -2.32074e+28 -2.222e+29 -9.41834e+28)
(-1.08293e+29 1.51851e+29 -1.33428e+28 -5.48576e+28 9.74425e+28 1.80085e+29)
(-3.45592e+29 -8.90295e+28 1.48786e+29 1.88881e+29 1.56689e+28 2.96562e+29)
(-5.24353e+29 -1.47885e+29 8.23266e+29 -8.03041e+28 9.0307e+28 3.04655e+29)
(9.25658e+29 -2.79529e+29 1.71997e+29 4.39193e+29 9.47082e+28 4.296e+29)
(7.15917e+30 1.98195e+30 -1.90519e+30 1.78189e+30 -3.2887e+30 -1.60761e+31)
(7.60932e+29 2.12517e+29 5.88371e+29 4.3315e+29 -1.34401e+29 3.45903e+29)
(-3.41678e+28 1.8951e+30 -9.90145e+29 8.08709e+29 -6.03313e+29 -2.60088e+30)
(-6.99537e+28 8.10084e+29 6.65505e+29 3.6716e+29 -7.46815e+29 6.36335e+29)
(-3.8452e+29 4.98914e+29 -6.7354e+29 -9.83108e+28 -6.18716e+29 2.43848e+29)
(4.20754e+28 -7.24146e+27 2.61626e+28 -5.53273e+28 1.52675e+29 1.00982e+28)
(-2.62219e+29 1.46707e+29 6.42723e+28 2.15479e+29 -6.98628e+28 -6.564e+28)
(-3.51775e+28 2.14452e+28 6.01159e+28 -2.57815e+27 4.83049e+28 7.18156e+26)
(3.43318e+29 -2.02281e+29 4.7934e+29 5.05932e+29 -1.42004e+29 -2.94341e+29)
(1.02007e+30 2.95453e+29 -1.01759e+30 -3.06113e+28 -8.49133e+28 -2.44749e+30)
(1.71142e+30 -1.00048e+30 6.10287e+29 6.2071e+29 1.20989e+29 -1.33957e+29)
(-6.0017e+29 -8.35127e+29 2.29001e+30 5.73539e+29 1.41591e+28 -2.40355e+30)
(4.967e+29 -1.91754e+29 3.88387e+28 3.30753e+29 -1.69604e+29 -4.35813e+29)
(1.19506e+29 1.13419e+27 3.59916e+29 -3.48493e+28 -4.58145e+29 -3.62952e+29)
(2.64046e+29 2.17574e+27 1.64327e+29 -1.18146e+29 -3.31001e+29 -2.90983e+29)
(9.11854e+29 6.77568e+28 -1.3816e+29 -2.03168e+29 -2.2306e+28 -5.26179e+29)
(5.10436e+29 1.63463e+28 -1.34984e+29 -8.7991e+28 1.76057e+29 -3.49284e+29)
(3.74521e+29 -4.87889e+28 1.92697e+29 1.49729e+29 -1.83174e+29 -4.26576e+29)
(5.24875e+29 2.15875e+28 -7.3792e+29 -1.1251e+29 -8.12645e+26 -4.00986e+29)
(2.19919e+29 -5.90754e+29 6.14567e+29 5.99661e+28 -8.38827e+28 8.01544e+28)
(-7.48644e+29 -3.43577e+29 8.78335e+29 2.25334e+29 2.18321e+29 -1.63175e+29)
(5.10346e+29 -1.17874e+29 -1.96142e+29 4.26367e+29 -7.18233e+28 -5.23444e+29)
(3.02788e+28 -6.75929e+28 1.18189e+29 1.5048e+29 -5.4465e+28 -3.11247e+29)
(4.08851e+29 -1.31581e+29 -7.06841e+28 4.3168e+29 -1.63706e+28 -5.68485e+29)
(3.9611e+28 -1.06889e+29 -3.42166e+27 1.11925e+29 -3.73557e+28 -1.55457e+29)
)
;
    }
}


// ************************************************************************* //
