/*--------------------------------*- C++ -*----------------------------------*\
| =========                 |                                                 |
| \\      /  F ield         | OpenFOAM: The Open Source CFD Toolbox           |
|  \\    /   O peration     | Version:  2.4.0                                 |
|   \\  /    A nd           | Web:      www.OpenFOAM.org                      |
|    \\/     M anipulation  |                                                 |
\*---------------------------------------------------------------------------*/
FoamFile
{
    version     2.0;
    format      ascii;
    class       volVectorField;
    location    "0.13";
    object      U;
}
// * * * * * * * * * * * * * * * * * * * * * * * * * * * * * * * * * * * * * //

dimensions      [0 1 -1 0 0 0 0];

internalField   nonuniform List<vector> 
200
(
(2.32861e+13 6.75754e+12 -6.22954e+11)
(2.04976e+13 -1.20309e+13 -7.54059e+13)
(3.37553e+13 1.06059e+13 -5.02343e+12)
(3.18807e+13 -1.37093e+13 -4.30141e+13)
(3.97111e+13 1.8511e+13 6.83712e+12)
(3.23898e+13 -8.53953e+11 -4.32853e+13)
(2.90021e+13 2.39875e+13 2.68982e+13)
(2.21823e+13 9.83004e+12 -7.78427e+13)
(2.63557e+13 9.07935e+13 4.55431e+13)
(3.58602e+13 6.37481e+12 -1.13584e+14)
(1.01806e+13 -1.47943e+12 -8.38476e+13)
(2.60595e+13 1.79138e+13 3.29645e+12)
(1.57255e+13 -1.56688e+12 -6.57406e+13)
(3.46186e+13 1.95684e+13 6.26817e+12)
(1.55694e+13 -1.10649e+12 -4.21661e+13)
(3.53081e+13 2.97879e+13 1.73967e+13)
(6.88994e+12 8.19792e+12 -4.98984e+13)
(1.81697e+13 3.95485e+13 4.27107e+13)
(2.01664e+13 2.81021e+13 -9.76397e+13)
(3.13466e+13 8.92294e+13 4.39115e+13)
(3.24635e+13 3.38168e+13 1.51563e+13)
(1.971e+13 1.23084e+13 -7.33353e+13)
(2.88314e+13 3.17537e+13 4.51683e+12)
(2.34411e+13 1.31908e+13 -5.43098e+13)
(3.24866e+13 3.5172e+13 1.28881e+13)
(1.57328e+13 9.01638e+12 -3.53239e+13)
(2.57253e+13 4.06519e+13 2.81704e+13)
(4.63241e+12 2.04269e+13 -6.37952e+13)
(2.23365e+13 5.0366e+13 4.28624e+13)
(2.54038e+13 3.45207e+13 -1.12294e+14)
(1.60328e+13 1.85384e+13 -7.3849e+13)
(3.20554e+13 4.60483e+13 2.03487e+13)
(2.4179e+13 2.35491e+13 -5.55587e+13)
(2.66018e+13 4.30402e+13 1.84097e+13)
(1.58861e+13 2.22947e+13 -6.65863e+13)
(2.52948e+13 4.72709e+13 2.26956e+13)
(9.61696e+12 1.90995e+13 -5.11533e+13)
(2.08175e+13 4.53798e+13 3.36956e+13)
(9.46539e+12 2.86157e+13 -9.00729e+13)
(2.85319e+13 5.04132e+13 4.02378e+13)
(3.24661e+13 -1.98691e+13 -3.47544e+13)
(3.93641e+13 -1.15657e+13 -1.60941e+13)
(2.82476e+13 -2.14822e+13 -3.73371e+13)
(4.66783e+13 -1.17587e+12 -2.10851e+12)
(1.82738e+13 -2.9686e+13 -2.09107e+13)
(5.00122e+13 2.06847e+13 1.02829e+13)
(2.17532e+13 -1.85097e+13 5.59554e+12)
(2.86359e+13 6.45006e+13 5.16297e+13)
(9.85915e+12 -1.46752e+13 -7.34582e+13)
(3.26452e+12 1.88483e+14 4.79648e+13)
(1.74104e+13 -7.24652e+12 -1.1364e+13)
(1.84744e+13 -6.87789e+12 -3.04749e+13)
(2.39898e+13 -8.56627e+12 -7.61841e+12)
(7.58801e+12 -1.28402e+13 -3.32343e+13)
(4.8397e+13 3.52019e+13 -2.05897e+13)
(-3.02915e+13 -8.29178e+13 5.91107e+13)
(2.79963e+13 3.12369e+13 2.63693e+13)
(-1.20511e+13 -8.2705e+11 -2.98792e+13)
(-5.81889e+12 1.30478e+14 5.55458e+13)
(-9.527e+12 -5.77207e+12 -1.01473e+14)
(2.97798e+13 2.02824e+13 -2.22591e+13)
(2.69515e+13 1.69262e+13 8.29465e+11)
(2.41447e+13 6.14115e+12 -1.76648e+13)
(5.86322e+13 5.84943e+13 -4.24322e+13)
(-1.87717e+13 -7.23323e+13 5.73699e+13)
(4.344e+13 6.29718e+13 -4.21275e+13)
(-3.46346e+13 -2.44133e+13 1.8885e+13)
(-1.8757e+12 4.47512e+13 1.93682e+13)
(-1.0722e+13 9.90067e+12 -5.27431e+13)
(-4.73496e+12 1.30274e+14 4.83323e+13)
(5.46526e+13 3.29127e+13 3.0603e+13)
(5.61435e+13 2.77265e+13 1.59841e+13)
(5.10253e+13 4.83204e+13 2.18094e+13)
(3.96714e+13 1.12498e+13 3.004e+13)
(5.44772e+13 6.01001e+13 -1.90746e+12)
(1.76528e+13 -1.03592e+13 2.54392e+13)
(2.51433e+13 4.36247e+13 1.62789e+13)
(3.82601e+11 1.72595e+12 2.71788e+11)
(3.97313e+12 4.67883e+13 3.81487e+13)
(2.81876e+12 2.50769e+13 -7.28977e+13)
(-1.04156e+14 -4.73247e+13 -5.77929e+13)
(-1.0228e+14 -1.62216e+13 -1.04518e+14)
(-5.35092e+13 -3.04955e+13 -5.9001e+13)
(-1.37051e+14 -6.2355e+13 -8.43697e+13)
(1.27053e+13 5.31675e+13 -6.67099e+13)
(-9.02715e+13 -1.07122e+14 2.57807e+13)
(-3.26576e+12 5.7839e+13 2.19952e+13)
(-5.53794e+13 -3.99753e+13 2.86622e+13)
(-3.03458e+13 1.25289e+14 5.21295e+13)
(-5.27745e+13 -3.05377e+13 -6.78228e+13)
(-8.93456e+13 -3.24146e+12 -1.0382e+14)
(-3.6027e+13 -1.7423e+13 -5.69888e+13)
(-1.38859e+14 -4.45342e+13 -6.97174e+13)
(1.64078e+13 1.36989e+14 -1.89394e+14)
(-1.58719e+14 -2.25448e+14 1.09832e+14)
(-7.83727e+12 7.92792e+13 -3.28697e+13)
(-9.44131e+13 -4.03807e+13 1.81503e+13)
(-5.55288e+13 1.10284e+14 6.62357e+13)
(-7.12151e+13 -2.17341e+13 -7.06851e+13)
(-7.52952e+13 1.83914e+14 6.03932e+13)
(-4.22874e+13 2.576e+13 -8.69568e+13)
(-1.94008e+14 -4.70071e+13 -9.75369e+13)
(7.61217e+13 2.94076e+14 -4.12478e+14)
(-1.85058e+14 -3.07053e+14 1.51964e+14)
(1.15008e+13 1.00812e+14 -9.62637e+13)
(-1.21042e+14 -9.34215e+13 6.81155e+13)
(-8.22855e+13 4.35141e+13 3.90117e+13)
(-8.26901e+13 -1.29147e+13 -2.80795e+13)
(-7.23525e+13 1.29993e+14 5.9652e+13)
(-7.52803e+13 -1.52139e+13 -7.917e+13)
(1.62325e+13 8.90175e+13 -3.28516e+13)
(2.73164e+13 9.42934e+13 -8.84056e+13)
(-8.29655e+13 -2.52156e+14 1.37691e+14)
(4.52105e+13 1.37908e+14 -1.5624e+14)
(-3.42323e+13 -5.19501e+13 6.27022e+13)
(-4.85036e+13 1.95056e+13 2.40474e+13)
(-6.41289e+13 -4.07859e+13 2.33088e+13)
(-5.38282e+13 3.7663e+13 5.50789e+13)
(-5.5644e+13 5.71284e+12 -4.88236e+13)
(-5.14921e+13 1.24811e+14 6.16477e+13)
(-1.74105e+14 -6.75198e+13 -1.02129e+14)
(-8.57111e+13 -5.42282e+13 -8.64359e+13)
(-2.41645e+14 -1.39294e+14 -8.72798e+13)
(-4.89697e+13 1.11227e+14 -1.6869e+14)
(-2.15843e+14 -2.3198e+14 3.61305e+13)
(-6.75711e+13 1.21392e+14 6.95871e+12)
(-1.50386e+14 -5.71942e+13 -1.27897e+13)
(-1.13389e+14 1.5355e+14 5.2278e+13)
(-1.44377e+14 -2.47444e+13 -7.08084e+13)
(-1.43648e+14 1.33819e+14 4.17701e+13)
(-7.15183e+13 -2.07183e+13 -1.38399e+14)
(-3.08328e+14 -1.76774e+14 -8.37671e+13)
(-1.59954e+13 1.75421e+14 -3.12372e+14)
(-2.98871e+14 -3.58513e+14 9.9687e+13)
(-7.66592e+13 9.97816e+13 -3.35376e+13)
(-2.38983e+14 -1.44273e+14 4.03492e+13)
(-1.45015e+14 1.26009e+14 4.93306e+13)
(-1.96381e+14 -4.11177e+13 -7.3463e+13)
(-1.78158e+14 1.76526e+14 5.89709e+13)
(-1.79392e+14 -3.09532e+13 -7.43735e+13)
(-3.75386e+14 -1.7959e+14 -1.03375e+14)
(7.80242e+13 3.39004e+14 -5.18187e+14)
(-3.02759e+14 -4.80334e+14 1.95091e+14)
(-5.86884e+13 1.17479e+14 -7.38683e+13)
(-2.81246e+14 -2.36765e+14 1.07692e+14)
(-1.736e+14 6.10458e+13 3.53079e+13)
(-2.46526e+14 -7.13349e+13 -8.51478e+12)
(-2.0568e+14 1.24512e+14 6.25572e+13)
(-2.23463e+14 -3.98198e+13 -7.42734e+13)
(-1.96185e+14 1.58405e+14 6.73342e+13)
(5.60784e+13 1.9505e+14 -2.94975e+14)
(-2.45072e+14 -6.54266e+14 2.99659e+14)
(1.78312e+13 1.2833e+14 -1.10861e+14)
(-1.81626e+14 -2.29838e+14 9.63547e+13)
(-1.36659e+14 2.74094e+13 6.56782e+13)
(-2.11671e+14 -9.39938e+13 4.6436e+13)
(-1.83477e+14 3.76551e+13 7.72924e+13)
(-1.88994e+14 -3.702e+13 -1.80644e+13)
(-1.83247e+14 1.00258e+14 7.03053e+13)
(-1.8238e+14 -3.33916e+13 -5.9119e+13)
(-1.14751e+14 -5.88572e+13 -1.5137e+14)
(-3.62726e+14 -2.37979e+14 -7.04525e+13)
(-1.33949e+14 6.81145e+13 -2.46756e+14)
(-3.64625e+14 -3.75112e+14 4.41574e+13)
(-1.277e+14 1.74591e+13 2.94723e+13)
(-2.96769e+14 -3.85016e+14 4.15011e+12)
(-1.63046e+14 7.33776e+13 1.67931e+14)
(-2.34466e+14 -1.66506e+14 -5.00663e+13)
(-1.83076e+14 1.00969e+14 1.30028e+14)
(-2.01389e+14 -8.97437e+13 -6.37599e+13)
(-5.43932e+14 -4.00878e+14 -9.5967e+13)
(-8.82544e+13 1.13352e+14 -3.62899e+14)
(-4.45521e+14 -5.08847e+14 1.21875e+14)
(-1.32172e+14 1.82628e+13 8.07684e+13)
(-3.48198e+14 -4.28952e+14 4.47396e+13)
(-1.73821e+14 5.04276e+13 1.92692e+14)
(-2.96989e+14 -2.18169e+14 -1.75851e+13)
(-2.08139e+14 8.01172e+13 1.52303e+14)
(-2.50181e+14 -1.17639e+14 -5.07255e+13)
(-2.04466e+14 9.29645e+13 1.22434e+14)
(-7.73556e+13 1.22676e+14 -3.91297e+14)
(-3.98674e+14 -6.70902e+14 2.35668e+14)
(-1.01671e+14 4.38061e+12 2.61886e+14)
(-3.21332e+14 -4.5269e+14 9.41844e+13)
(-1.54397e+14 3.00135e+13 1.78352e+14)
(-2.75487e+14 -2.21721e+14 8.42954e+12)
(-1.89049e+14 2.72081e+13 1.70951e+14)
(-2.33938e+14 -1.22816e+14 -2.17286e+13)
(-1.92436e+14 4.22717e+13 1.36014e+14)
(-2.00574e+14 -8.54923e+13 -4.18507e+13)
(-3.57785e+14 -1.02242e+15 4.25397e+14)
(-3.94726e+13 -2.65675e+13 3.96845e+14)
(-1.9893e+14 -3.59884e+14 6.35612e+13)
(-1.20732e+14 1.2118e+13 2.06945e+14)
(-2.12137e+14 -2.15639e+14 -1.67748e+12)
(-1.4654e+14 6.23121e+12 1.78329e+14)
(-1.73758e+14 -1.02029e+14 -1.49923e+13)
(-1.4781e+14 1.9896e+13 1.33615e+14)
(-1.48901e+14 -7.01496e+13 -3.05326e+13)
(-1.38958e+14 4.09461e+13 1.035e+14)
)
;

boundaryField
{
    inlet
    {
        type            calculated;
        value           nonuniform 0();
    }
    outlet
    {
        type            calculated;
        value           nonuniform List<vector> 
20
(
(3.58602e+13 6.37481e+12 -1.13584e+14)
(3.13466e+13 8.92294e+13 4.39115e+13)
(2.54038e+13 3.45207e+13 -1.12294e+14)
(2.85319e+13 5.04132e+13 4.02378e+13)
(3.26452e+12 1.88483e+14 4.79648e+13)
(-9.527e+12 -5.77207e+12 -1.01473e+14)
(-4.73496e+12 1.30274e+14 4.83323e+13)
(2.81876e+12 2.50769e+13 -7.28977e+13)
(-5.27745e+13 -3.05377e+13 -6.78228e+13)
(-7.52952e+13 1.83914e+14 6.03932e+13)
(-7.52803e+13 -1.52139e+13 -7.917e+13)
(-5.14921e+13 1.24811e+14 6.16477e+13)
(-1.43648e+14 1.33819e+14 4.17701e+13)
(-1.79392e+14 -3.09532e+13 -7.43735e+13)
(-1.96185e+14 1.58405e+14 6.73342e+13)
(-1.8238e+14 -3.33916e+13 -5.9119e+13)
(-2.01389e+14 -8.97437e+13 -6.37599e+13)
(-2.04466e+14 9.29645e+13 1.22434e+14)
(-2.00574e+14 -8.54923e+13 -4.18507e+13)
(-1.38958e+14 4.09461e+13 1.035e+14)
)
;
    }
    bottom
    {
        type            calculated;
        value           uniform (0 0 0);
    }
    top
    {
        type            symmetryPlane;
    }
    side1
    {
        type            symmetryPlane;
    }
    side2
    {
        type            symmetryPlane;
    }
    procBoundary23to15
    {
        type            processor;
        value           nonuniform List<vector> 
50
(
(1.58167e+13 -2.21292e+13 -7.76094e+13)
(3.07242e+13 -1.13621e+12 1.07904e+12)
(2.82048e+13 -2.45017e+13 -5.28584e+13)
(3.68944e+13 1.65624e+12 -4.40501e+11)
(3.37082e+13 -1.91865e+13 -4.88786e+13)
(3.25978e+13 3.11472e+11 1.1665e+13)
(2.79249e+13 -1.2501e+13 -6.36977e+13)
(2.73373e+13 5.81679e+13 3.85425e+13)
(2.92008e+13 -2.19863e+13 -9.52299e+13)
(3.55898e+13 1.49746e+14 3.65565e+13)
(4.62184e+13 -1.52972e+13 -1.49452e+13)
(4.19564e+13 -2.7271e+13 -3.71364e+13)
(5.25869e+13 -1.19826e+13 -1.73033e+13)
(4.2836e+13 -3.0166e+13 -2.77419e+13)
(5.6255e+13 -3.71657e+12 -3.20489e+12)
(4.65577e+13 -2.34492e+13 -2.33961e+13)
(4.45109e+13 1.79328e+13 2.80302e+13)
(3.22472e+13 -1.81895e+13 -4.21702e+13)
(2.85088e+13 1.30005e+14 4.43643e+13)
(3.95127e+12 -4.6793e+13 -7.76391e+13)
(1.0264e+13 -1.69099e+13 -5.64358e+13)
(3.12355e+13 -1.53778e+13 -4.01265e+13)
(2.23128e+13 -1.37712e+13 -5.15754e+13)
(4.78503e+13 -5.27192e+12 -3.20879e+13)
(1.91492e+13 -2.45977e+13 -4.02229e+13)
(6.05231e+13 2.87945e+13 -8.88608e+12)
(2.80925e+13 -1.99484e+13 -1.74792e+12)
(4.67058e+13 3.70229e+13 3.51856e+13)
(1.02268e+13 -9.9239e+12 -2.75065e+13)
(4.79743e+12 1.14838e+14 3.70424e+13)
(-1.19123e+14 -8.54102e+13 -1.66248e+13)
(-1.4671e+14 -7.66139e+13 -9.2469e+13)
(-4.65884e+13 -5.05973e+13 -5.31221e+13)
(-1.81614e+14 -1.24688e+14 -8.30828e+13)
(-3.9047e+13 9.06491e+13 -9.63922e+13)
(-1.4684e+14 -1.4106e+14 -1.61088e+13)
(-5.48343e+13 1.20286e+14 1.25673e+13)
(-1.36089e+14 -6.51874e+13 -1.79228e+13)
(-8.73025e+13 8.76104e+13 2.81558e+13)
(-1.03386e+14 -1.97632e+12 -4.80248e+13)
(-1.87925e+14 -1.2203e+14 -6.46899e+13)
(-1.01494e+14 -7.23633e+13 -7.49425e+13)
(-2.61109e+14 -1.83399e+14 -5.80821e+13)
(-1.27817e+14 5.58507e+13 -1.21504e+14)
(-2.452e+14 -2.65578e+14 1.59777e+12)
(-9.57284e+13 2.49687e+13 1.13958e+13)
(-2.00632e+14 -2.61406e+14 -3.19129e+13)
(-1.26998e+14 8.41274e+13 1.09479e+14)
(-1.43015e+14 -7.32358e+13 -6.4627e+13)
(-1.40282e+14 7.82081e+13 7.31289e+13)
)
;
    }
    procBoundary23to22
    {
        type            processor;
        value           nonuniform List<vector> 
20
(
(6.51972e+12 -1.65064e+13 -9.69843e+13)
(2.51907e+13 1.86754e+13 1.20723e+13)
(4.21297e+12 8.64916e+12 -1.25087e+14)
(3.31272e+13 4.97825e+13 2.94237e+13)
(3.42967e+13 -7.51723e+12 -2.77714e+13)
(2.61258e+13 3.71119e+12 -2.92114e+13)
(1.5805e+13 4.37534e+13 -6.04085e+12)
(6.29926e+13 3.36386e+13 2.7368e+13)
(-1.27805e+14 1.35438e+13 -1.02997e+14)
(-1.0159e+14 -2.48975e+13 -6.11503e+13)
(-6.84722e+13 5.13131e+13 -9.47589e+13)
(-4.12338e+13 4.93366e+13 -4.12976e+13)
(-1.41662e+14 -9.72735e+13 1.11088e+13)
(-1.77286e+14 -4.41626e+13 -1.07084e+14)
(-5.44746e+13 2.70603e+13 -1.50086e+14)
(7.55225e+12 1.05227e+14 -3.91361e+13)
(-2.43348e+14 -1.15457e+14 -6.97727e+13)
(-9.23633e+13 -8.38212e+12 -2.85767e+14)
(-5.08036e+14 -2.85157e+14 -1.15999e+14)
(-7.41433e+13 1.30627e+14 -3.6373e+14)
)
;
    }
    procBoundary23to31
    {
        type            processor;
        value           nonuniform List<vector> 
50
(
(3.7472e+13 4.57718e+13 2.24282e+13)
(2.07111e+13 2.22464e+13 -4.30697e+13)
(3.1548e+13 5.12874e+13 2.64054e+13)
(1.94242e+13 2.34121e+13 -6.39651e+13)
(2.50832e+13 5.01325e+13 2.60787e+13)
(1.38918e+13 2.28547e+13 -6.28872e+13)
(2.01209e+13 4.51099e+13 2.89275e+13)
(8.39981e+12 2.57874e+13 -7.22055e+13)
(1.98166e+13 4.66402e+13 3.79806e+13)
(1.63921e+13 2.67696e+13 -8.57884e+13)
(5.95215e+13 3.1545e+13 2.92841e+13)
(5.62089e+13 3.83286e+13 4.63113e+13)
(5.8507e+13 2.4013e+13 3.30168e+13)
(5.12064e+13 3.95942e+13 3.74003e+13)
(5.33651e+13 1.05854e+13 3.02955e+13)
(4.19814e+13 3.64849e+13 3.59436e+13)
(2.91781e+13 8.9897e+12 1.87236e+13)
(2.85524e+13 3.8217e+13 3.56441e+13)
(1.21818e+13 1.63416e+13 -2.2666e+13)
(1.69249e+13 4.62445e+13 4.13392e+13)
(3.23922e+13 3.97204e+13 3.29305e+13)
(6.85542e+13 5.37195e+13 4.00571e+13)
(3.43642e+13 6.47672e+13 -2.76659e+13)
(2.7432e+11 -1.33711e+13 2.26114e+13)
(2.34966e+13 4.50605e+13 -2.28122e+12)
(-1.89454e+13 -4.71243e+13 6.5594e+13)
(-9.56552e+12 2.56946e+13 3.07469e+13)
(-2.26882e+13 -3.40045e+12 9.31394e+12)
(-2.59564e+13 3.79793e+13 6.17822e+13)
(-2.05069e+13 3.24015e+12 -2.38006e+13)
(8.59793e+13 -3.3173e+13 2.36715e+13)
(3.43833e+13 8.92177e+13 -7.45069e+11)
(-6.95252e+13 -2.07486e+14 9.62325e+13)
(-7.9302e+13 1.8467e+13 5.98275e+13)
(-1.11792e+14 -8.5228e+13 3.90494e+13)
(-1.14732e+14 1.6842e+13 8.89047e+13)
(-1.23301e+14 -4.0401e+13 1.75785e+13)
(-1.23492e+14 2.56449e+13 8.56533e+13)
(-1.11152e+14 -2.17709e+13 -4.52558e+12)
(-8.92453e+13 4.03336e+13 7.48352e+13)
(-6.25013e+13 -8.98654e+13 8.49879e+14)
(-9.21144e+13 -2.20005e+14 -5.29927e+13)
(-1.01866e+14 -1.95741e+13 2.75207e+14)
(-1.16582e+14 -1.58757e+14 -4.39662e+13)
(-1.13918e+14 -2.23668e+12 1.99838e+14)
(-1.07863e+14 -8.07618e+13 -2.90808e+13)
(-1.06169e+14 1.13982e+13 1.43607e+14)
(-9.23423e+13 -5.58711e+13 -2.82601e+13)
(-8.9176e+13 1.21337e+13 1.10902e+14)
(-7.42019e+13 -4.53064e+13 -2.66233e+13)
)
;
    }
}


// ************************************************************************* //
