/*--------------------------------*- C++ -*----------------------------------*\
| =========                 |                                                 |
| \\      /  F ield         | OpenFOAM: The Open Source CFD Toolbox           |
|  \\    /   O peration     | Version:  2.4.0                                 |
|   \\  /    A nd           | Web:      www.OpenFOAM.org                      |
|    \\/     M anipulation  |                                                 |
\*---------------------------------------------------------------------------*/
FoamFile
{
    version     2.0;
    format      ascii;
    class       volVectorField;
    location    "0.12";
    object      U;
}
// * * * * * * * * * * * * * * * * * * * * * * * * * * * * * * * * * * * * * //

dimensions      [0 1 -1 0 0 0 0];

internalField   nonuniform List<vector> 
200
(
(-1.57209e+10 2.08938e+10 -5.138e+08)
(-1.30134e+10 2.18727e+10 -6.61587e+08)
(-2.09068e+10 1.35284e+10 -1.42399e+10)
(-1.39274e+10 3.31296e+10 -3.16147e+09)
(-2.07241e+10 2.81078e+10 -3.80158e+09)
(-2.174e+10 3.53322e+10 -1.73534e+08)
(-2.76195e+10 3.71909e+10 -4.23261e+09)
(-2.78852e+10 4.94196e+10 5.11326e+08)
(-3.16584e+10 5.41668e+10 -3.82232e+08)
(-3.25821e+10 6.99812e+10 3.55201e+09)
(-1.40087e+10 1.96846e+10 -4.98413e+09)
(-2.38372e+10 2.8584e+10 -1.91737e+09)
(-2.12227e+10 2.93945e+10 -5.89048e+08)
(-3.70007e+10 2.88841e+10 -2.30624e+10)
(-2.26284e+10 3.26082e+10 -3.16233e+09)
(-2.85978e+10 4.0654e+10 2.71206e+09)
(-3.32762e+10 4.54519e+10 4.50488e+09)
(-3.95729e+10 4.52384e+10 -4.69043e+09)
(-3.36323e+10 5.59698e+10 3.62502e+09)
(-2.97279e+10 5.9027e+10 2.39628e+08)
(-3.69348e+10 4.52354e+10 -3.43747e+09)
(-3.87888e+10 3.71786e+10 -7.35024e+09)
(-4.00687e+10 3.89138e+10 -6.91359e+09)
(-3.12552e+10 4.83066e+10 -7.83746e+09)
(-2.51602e+10 2.22095e+10 -1.30791e+10)
(-1.73278e+10 4.01435e+10 -6.1548e+09)
(-1.87529e+10 4.63132e+10 2.99424e+09)
(-7.30236e+09 4.31576e+10 -8.42042e+09)
(-9.9664e+09 4.65313e+10 -5.08339e+09)
(7.18455e+08 3.82207e+10 -2.09263e+09)
(-1.67179e+10 4.34497e+10 4.196e+09)
(-1.23549e+10 4.27657e+10 -9.60265e+08)
(-1.26641e+10 4.09168e+10 -3.40117e+09)
(-6.55618e+09 3.22908e+10 -1.55727e+09)
(-7.17701e+09 3.05196e+10 -4.31207e+09)
(-9.21433e+08 3.05144e+10 -4.90664e+09)
(-8.96587e+09 5.6463e+10 -1.2335e+10)
(9.46111e+09 4.87383e+10 -9.63969e+09)
(1.22781e+10 3.31226e+10 -6.15162e+09)
(1.20365e+10 3.44149e+10 -8.3469e+09)
(-1.71076e+10 2.10922e+10 -5.4601e+09)
(-2.30211e+10 1.49787e+10 -1.06181e+10)
(-2.19843e+10 2.88458e+10 -6.62758e+09)
(-2.70597e+10 3.25872e+10 -9.31299e+09)
(-2.65325e+10 3.84321e+10 -3.96408e+09)
(-2.45351e+10 4.60264e+10 3.97214e+09)
(-2.70615e+10 4.25303e+10 -3.7513e+09)
(-2.73954e+10 4.71522e+10 -8.1165e+09)
(-3.22045e+10 6.43708e+10 2.28474e+09)
(-3.49241e+10 4.15624e+10 2.13022e+09)
(-1.66225e+10 2.45297e+10 -4.51478e+09)
(-1.70335e+10 2.61678e+10 -7.53758e+09)
(-2.22609e+10 2.5162e+10 -1.47876e+10)
(-1.74289e+10 3.87057e+10 -9.75151e+09)
(-2.19729e+10 3.36447e+10 -9.15504e+09)
(-1.80261e+10 4.56386e+10 -2.23471e+08)
(-1.39439e+10 5.26368e+10 1.47109e+10)
(-2.00307e+10 5.19391e+10 3.86601e+08)
(-2.95393e+10 6.73255e+10 -1.19261e+10)
(-2.77581e+10 8.23626e+10 1.85776e+08)
(-1.88841e+10 2.94818e+10 -1.49794e+09)
(-2.43292e+10 3.18588e+10 -4.48884e+09)
(-2.83389e+10 3.55621e+10 -1.15623e+10)
(-3.9327e+10 3.86554e+10 -1.8939e+10)
(-3.57716e+10 3.51367e+10 -1.19071e+10)
(-3.98334e+10 4.02051e+10 -9.35091e+09)
(-6.51243e+10 7.04412e+10 -3.25657e+09)
(-6.74705e+10 8.25802e+10 4.06235e+09)
(-6.06063e+10 9.63713e+10 -3.65115e+09)
(-8.2377e+10 1.02596e+11 -9.37152e+09)
(-2.39675e+10 3.57268e+10 6.49007e+09)
(-2.23465e+10 3.30792e+10 5.63692e+08)
(-2.35511e+10 4.05094e+10 -2.65503e+09)
(-2.47531e+10 4.98327e+10 -4.93453e+09)
(-2.41721e+10 4.35968e+10 -4.55579e+09)
(-4.66234e+10 7.07733e+10 -9.0667e+09)
(-3.27046e+10 7.43217e+10 -1.50789e+10)
(-2.88553e+10 7.05002e+10 -9.72326e+09)
(-1.27529e+10 6.83355e+10 -1.38905e+10)
(-6.6556e+09 4.68312e+10 -9.41097e+09)
(-2.21942e+10 1.79138e+10 -1.95001e+09)
(-2.38234e+10 1.57476e+10 -5.18275e+09)
(-2.68442e+10 2.12541e+10 -4.19128e+09)
(-2.99315e+10 3.43584e+10 -2.13638e+09)
(-3.97859e+10 5.51614e+10 6.81051e+08)
(-4.07611e+10 5.87526e+10 -4.51543e+09)
(-3.58749e+10 6.71505e+10 -4.80794e+09)
(-3.40956e+10 4.07501e+10 -1.16345e+10)
(-3.78292e+10 3.7355e+10 -1.04354e+10)
(-4.66376e+10 4.12386e+10 -1.33164e+10)
(-1.52448e+10 1.54229e+10 -2.92056e+09)
(-1.75716e+10 1.91912e+10 -2.78855e+09)
(-1.98115e+10 2.09486e+10 -6.89604e+09)
(-2.42869e+10 3.65033e+10 -9.10959e+09)
(-3.26465e+10 6.33381e+10 -2.6337e+09)
(-2.87421e+10 5.91747e+10 -1.51702e+09)
(-2.46981e+10 5.19549e+10 -9.29051e+09)
(-2.35869e+10 4.81569e+10 -1.17652e+10)
(-2.5444e+10 4.9911e+10 -1.3703e+10)
(-3.45968e+10 6.41223e+10 -1.64242e+10)
(-1.25949e+10 2.01956e+10 1.71107e+09)
(-1.45414e+10 1.93236e+10 -1.32588e+09)
(-1.74556e+10 2.66666e+10 -2.35722e+09)
(-2.08009e+10 4.18887e+10 -7.63287e+09)
(-3.23673e+10 6.33861e+10 -1.46875e+10)
(-3.31788e+10 5.32349e+10 -7.44526e+09)
(-3.14243e+10 5.56897e+10 -7.47093e+09)
(-3.32789e+10 5.08279e+10 -1.54826e+10)
(-4.13646e+10 6.04121e+10 -2.5839e+10)
(-6.06483e+10 8.20696e+10 -3.5293e+10)
(-1.4604e+10 2.11103e+10 9.18518e+08)
(-1.50743e+10 2.72745e+10 3.74039e+09)
(-1.94179e+10 2.99885e+10 -8.41613e+08)
(-2.59477e+10 5.06346e+10 -2.62405e+09)
(-3.17434e+10 7.20971e+10 -5.5353e+09)
(-3.29347e+10 6.66393e+10 -8.86551e+09)
(-4.64704e+10 6.9627e+10 -8.64104e+09)
(-3.48895e+10 6.3663e+10 -1.24869e+10)
(-7.36783e+10 1.03156e+11 -1.10017e+10)
(-3.79316e+10 7.95177e+10 -2.50202e+10)
(-2.16358e+10 1.14495e+10 -2.11545e+09)
(-2.48301e+10 2.14309e+10 1.18411e+09)
(-2.70007e+10 2.07305e+10 -3.34658e+07)
(-3.19178e+10 1.77089e+10 2.29221e+09)
(-3.1944e+10 2.19335e+10 -4.68019e+08)
(-3.35912e+10 1.94538e+10 -7.56532e+08)
(-3.60985e+10 2.63287e+10 -3.29245e+09)
(-3.22198e+10 2.904e+10 -6.26559e+09)
(-4.08306e+10 2.34792e+10 -1.14369e+10)
(-4.02228e+10 2.27997e+10 -6.56177e+09)
(-1.89271e+10 2.18973e+10 8.837e+08)
(-2.33228e+10 2.78162e+10 -1.85515e+09)
(-2.64208e+10 2.6651e+10 -3.13221e+08)
(-2.73166e+10 2.41025e+10 -1.33312e+09)
(-3.2898e+10 2.04827e+10 -3.2175e+09)
(-3.1052e+10 2.31167e+10 -8.42053e+09)
(-3.44728e+10 3.07162e+10 -6.86688e+09)
(-3.49516e+10 3.54424e+10 -7.98331e+09)
(-3.29173e+10 2.30861e+10 -1.28485e+10)
(-4.34294e+10 1.99211e+10 -5.89165e+09)
(-1.6276e+10 2.88935e+10 -1.76726e+09)
(-2.2487e+10 3.95976e+10 -8.3684e+08)
(-2.18995e+10 2.37546e+10 -1.92335e+09)
(-2.09107e+10 2.27417e+10 -1.8914e+09)
(-1.91755e+10 2.49309e+10 -4.20553e+09)
(-2.32098e+10 2.76571e+10 -8.00208e+09)
(-2.7689e+10 4.42365e+10 -1.32512e+10)
(-2.05564e+10 1.42818e+10 -2.59568e+10)
(-2.58305e+10 1.0923e+10 -2.52916e+09)
(-3.48163e+10 3.79589e+10 -2.64536e+10)
(-1.37368e+10 3.62048e+10 -3.94207e+08)
(-1.60853e+10 4.38099e+10 -2.60049e+09)
(-1.03536e+10 2.31628e+10 -2.60199e+07)
(-1.14835e+10 2.2142e+10 9.92874e+06)
(-1.22146e+10 2.24634e+10 2.68829e+08)
(-1.77343e+10 2.83646e+10 -6.79528e+09)
(-9.52353e+09 1.15448e+10 -3.35225e+10)
(-1.29129e+10 1.62348e+10 -6.45352e+08)
(-2.24434e+10 3.21267e+10 -1.86236e+10)
(-2.50174e+10 4.04969e+10 -1.85369e+10)
(-2.35109e+10 1.41234e+10 1.97682e+09)
(-2.58805e+10 1.68958e+10 -7.35824e+08)
(-2.88652e+10 1.73514e+10 2.29661e+09)
(-3.05985e+10 1.76588e+10 -6.16473e+08)
(-3.34758e+10 1.63057e+10 -1.50383e+09)
(-3.86882e+10 2.40247e+10 -4.00201e+09)
(-3.58673e+10 2.64767e+10 3.12101e+09)
(-4.23586e+10 2.89321e+10 -1.77242e+09)
(-3.44954e+10 1.67921e+10 -3.94126e+09)
(-3.60481e+10 -1.10787e+09 6.14965e+09)
(-2.22616e+10 1.61368e+10 -1.76315e+09)
(-2.4192e+10 2.04551e+10 -4.0627e+07)
(-2.45367e+10 2.25015e+10 -1.90321e+09)
(-2.78474e+10 2.13852e+10 -9.94581e+08)
(-3.09528e+10 2.43195e+10 -2.46603e+09)
(-3.64179e+10 2.94424e+10 -3.64912e+09)
(-5.19679e+10 3.26182e+10 -1.02505e+10)
(-4.37563e+10 -1.37691e+10 -4.24084e+10)
(-3.91052e+10 -2.47664e+10 2.86236e+10)
(-4.67318e+10 1.64964e+10 -2.27874e+09)
(-1.3739e+10 1.88733e+10 -2.15601e+08)
(-1.35382e+10 1.98868e+10 -2.57121e+09)
(-1.4408e+10 2.26117e+10 -1.68296e+09)
(-1.64476e+10 2.91282e+10 -1.5607e+09)
(-2.44456e+10 3.9586e+10 -1.89323e+09)
(-3.40029e+10 3.88201e+10 -7.31631e+09)
(-1.53043e+10 1.01102e+10 -2.32931e+10)
(-1.64852e+10 1.08689e+10 6.56045e+09)
(-2.34879e+10 1.26715e+10 -5.44709e+09)
(-2.27226e+10 1.05416e+10 -4.14486e+09)
(-5.14151e+09 2.01328e+10 1.28034e+08)
(-7.97081e+09 2.21404e+10 1.16161e+08)
(-1.03155e+10 2.50163e+10 -1.99061e+09)
(-1.13157e+10 3.73239e+10 -2.39254e+09)
(-2.41213e+10 5.42171e+10 -8.11e+09)
(-3.75075e+09 1.04309e+09 -1.86073e+10)
(-6.39361e+09 2.58078e+09 4.19053e+09)
(-1.49282e+10 8.81434e+09 -3.61957e+09)
(-1.39833e+10 1.4042e+10 -6.07179e+09)
(-2.30789e+10 -1.18794e+09 -1.52408e+10)
)
;

boundaryField
{
    inlet
    {
        type            calculated;
        value           nonuniform 0();
    }
    outlet
    {
        type            calculated;
        value           nonuniform 0();
    }
    bottom
    {
        type            calculated;
        value           uniform (0 0 0);
    }
    top
    {
        type            symmetryPlane;
    }
    side1
    {
        type            symmetryPlane;
    }
    side2
    {
        type            symmetryPlane;
    }
    procBoundary11to3
    {
        type            processor;
        value           nonuniform List<vector> 
50
(
(-2.27394e+10 1.74053e+10 -3.15797e+08)
(-2.75058e+10 8.17651e+09 -8.91607e+09)
(-2.07781e+10 1.82825e+10 -1.03182e+09)
(-2.64019e+10 1.79828e+10 -6.88723e+09)
(-2.51164e+10 2.77189e+10 4.40415e+08)
(-3.02132e+10 2.47067e+10 -3.96821e+08)
(-3.63778e+10 2.83885e+10 5.76259e+09)
(-4.6872e+10 3.04894e+10 2.05572e+09)
(-5.49447e+10 4.58359e+10 6.09564e+09)
(-6.53048e+10 7.00258e+10 1.68786e+10)
(-2.30804e+10 1.05226e+10 -6.88287e+09)
(-2.16626e+10 1.66912e+10 -3.84908e+09)
(-2.83399e+10 1.75319e+10 -8.02236e+09)
(-3.02071e+10 2.63722e+10 -4.19179e+09)
(-3.73537e+10 2.94117e+10 -4.87818e+09)
(-4.08959e+10 3.49804e+10 -3.13207e+09)
(-4.2286e+10 3.11809e+10 -3.9308e+09)
(-4.45255e+10 4.79857e+10 9.67544e+09)
(-3.89638e+10 3.6097e+10 8.61326e+09)
(-4.58743e+10 4.0877e+10 7.36203e+09)
(-2.36042e+10 1.23743e+10 -5.26689e+09)
(-2.76995e+10 1.57338e+10 -2.39797e+09)
(-3.07007e+10 1.74266e+10 -2.13886e+09)
(-3.71355e+10 2.61867e+10 -1.16284e+08)
(-5.08595e+10 3.72921e+10 -1.36443e+09)
(-5.85835e+10 5.25359e+10 3.58029e+08)
(-8.17565e+10 7.64641e+10 -3.20548e+10)
(-7.15467e+10 1.99091e+10 -2.4331e+10)
(-7.46179e+10 2.06711e+10 -1.49645e+10)
(-6.49548e+10 2.49329e+10 -5.11345e+09)
(-2.23511e+10 1.23993e+10 2.13754e+09)
(-2.41298e+10 1.43593e+10 -6.40817e+08)
(-2.86396e+10 1.4092e+10 4.48063e+09)
(-2.85091e+10 1.60622e+10 2.69234e+09)
(-3.42753e+10 1.11668e+10 4.09428e+09)
(-3.65194e+10 1.33469e+10 -1.31601e+08)
(-4.27741e+10 3.07436e+10 -1.04521e+10)
(-6.45512e+10 6.86205e+10 -2.61082e+10)
(-3.53075e+10 1.47327e+10 -3.83507e+09)
(-4.55629e+10 1.86631e+10 -1.23494e+10)
(-2.24897e+10 6.52691e+09 -2.71384e+09)
(-2.56867e+10 9.8512e+09 4.72157e+09)
(-2.60962e+10 1.52151e+10 1.33997e+09)
(-3.15204e+10 9.48441e+09 4.15647e+09)
(-3.10432e+10 1.28618e+10 1.39183e+09)
(-3.43857e+10 1.45105e+10 2.36063e+09)
(-4.11723e+10 2.03369e+10 6.59042e+08)
(-3.85659e+10 2.0346e+10 -1.87262e+09)
(-4.02965e+10 1.87895e+10 -6.29146e+09)
(-2.34858e+10 2.20025e+10 -5.83641e+09)
)
;
    }
    procBoundary11to10
    {
        type            processor;
        value           nonuniform List<vector> 
20
(
(-1.21449e+10 2.23937e+10 -2.50856e+09)
(-1.82078e+10 3.32746e+10 -1.18353e+09)
(-2.26159e+10 3.91301e+10 6.07959e+09)
(-2.16166e+10 3.9853e+10 3.93665e+09)
(-1.91948e+10 1.72491e+10 -2.96848e+09)
(-1.25483e+10 2.14866e+10 -2.1703e+09)
(-1.461e+10 2.78608e+10 3.21861e+09)
(-2.5315e+10 3.38455e+10 8.91988e+09)
(-1.98447e+10 1.21312e+10 -2.33313e+09)
(-1.38696e+10 1.69077e+10 1.88434e+09)
(-1.22148e+10 1.59394e+10 -9.74936e+08)
(-1.09928e+10 2.15438e+10 4.6467e+09)
(-1.88909e+10 1.30044e+10 3.41568e+09)
(-1.61054e+10 1.32249e+10 -8.78036e+08)
(-1.26118e+10 2.08575e+10 4.34283e+08)
(-8.98808e+09 2.5963e+10 -8.75752e+08)
(-2.10098e+10 8.73943e+09 -2.197e+09)
(-2.00804e+10 1.70999e+10 1.14718e+09)
(-1.22674e+10 1.90125e+10 -1.28783e+09)
(-4.33887e+09 2.19001e+10 1.04549e+09)
)
;
    }
    procBoundary11to12
    {
        type            processor;
        value           nonuniform List<vector> 
20
(
(-3.51777e+10 6.57927e+10 6.38964e+09)
(-1.9239e+10 6.25769e+10 -5.76259e+07)
(1.92658e+09 4.20939e+10 -4.61816e+09)
(2.09354e+10 4.00095e+10 -5.19626e+09)
(-4.11081e+10 5.45662e+10 -8.93877e+08)
(-4.49467e+10 5.14008e+10 -4.56376e+09)
(-1.67487e+10 5.62366e+10 -1.65527e+10)
(1.17149e+10 5.02841e+10 -1.99319e+10)
(-5.60925e+10 4.54503e+10 -8.0678e+09)
(-4.96828e+10 7.58012e+10 -1.82983e+10)
(-7.12342e+10 8.90593e+10 -4.12686e+10)
(-1.71962e+10 6.22128e+10 -1.93606e+10)
(-5.40305e+10 2.63725e+10 -5.7488e+09)
(-4.92508e+10 3.92633e+10 -1.73652e+10)
(-4.15697e+10 4.69887e+10 -2.7454e+10)
(-3.40255e+10 2.47167e+10 -3.15663e+10)
(-4.0191e+10 8.32381e+09 -3.14716e+09)
(-3.62947e+10 6.97308e+09 -1.89467e+09)
(-3.31806e+10 -3.20097e+09 -1.55593e+10)
(-2.85515e+10 2.41521e+10 -1.92236e+09)
)
;
    }
    procBoundary11to19
    {
        type            processor;
        value           nonuniform List<vector> 
50
(
(4.02951e+09 3.35595e+10 6.65138e+08)
(-6.74945e+08 4.26011e+10 -1.66731e+09)
(1.80341e+09 3.96674e+10 4.54908e+08)
(6.02532e+09 2.8711e+10 -2.52498e+09)
(7.37255e+09 3.07201e+10 -2.98006e+09)
(9.8014e+09 3.37537e+10 -2.5813e+09)
(1.30704e+10 3.90434e+10 -2.99579e+09)
(2.14856e+10 3.63622e+10 -3.10073e+09)
(2.41507e+10 3.58292e+10 -3.27786e+09)
(2.70754e+10 3.87812e+10 -4.43462e+09)
(-1.80387e+09 3.01225e+10 3.21562e+09)
(-2.80974e+08 2.93715e+10 2.76519e+09)
(-4.17794e+09 3.57772e+10 1.38316e+09)
(-2.05043e+09 5.01292e+10 2.68934e+09)
(-8.24219e+09 5.47451e+10 -1.06215e+09)
(1.02019e+09 5.36761e+10 -2.28784e+09)
(8.87875e+09 4.62169e+10 -3.45725e+09)
(1.43694e+10 4.19606e+10 -3.52345e+09)
(2.09768e+10 4.67277e+10 -7.67335e+09)
(2.83545e+10 4.45927e+10 -1.0068e+10)
(-1.97504e+09 3.02915e+10 6.02824e+09)
(-6.38766e+09 3.13448e+10 2.71547e+09)
(-8.12093e+09 4.21096e+10 6.70084e+09)
(-1.28098e+10 5.54441e+10 4.81086e+09)
(-1.14433e+10 7.35835e+10 4.22232e+09)
(-1.56802e+10 7.76766e+10 3.44069e+09)
(-8.45153e+08 7.6478e+10 -1.04202e+09)
(-2.1906e+10 9.49895e+10 5.23612e+09)
(6.05729e+09 7.51322e+10 -8.80934e+09)
(6.41505e+09 5.91771e+10 -9.53128e+09)
(-4.08979e+09 3.58682e+10 1.77922e+09)
(-1.28321e+09 4.01732e+10 2.29427e+09)
(-3.92297e+09 2.82484e+10 7.94491e+08)
(-5.27847e+09 2.39553e+10 2.09764e+09)
(-4.90888e+09 2.67012e+10 1.89247e+08)
(-1.87955e+09 2.76314e+10 -4.92333e+09)
(7.84014e+08 3.00624e+10 -9.89775e+08)
(-6.8308e+09 2.89395e+10 -1.05427e+10)
(-4.85435e+09 4.24274e+10 -1.1353e+10)
(-1.05139e+10 3.03078e+10 -1.85422e+10)
(6.38043e+08 2.69485e+10 2.04532e+09)
(-6.30541e+08 2.56594e+10 7.02248e+08)
(-1.48888e+09 2.95519e+10 -6.52662e+08)
(-3.40845e+09 4.18639e+10 -2.49079e+09)
(3.7917e+08 3.76424e+10 -1.08997e+10)
(5.468e+09 4.73635e+09 -1.38094e+09)
(-5.66167e+09 3.7082e+09 -5.39714e+09)
(-1.70354e+09 1.86365e+10 -6.62916e+09)
(-1.1295e+10 4.35272e+09 -1.17047e+10)
(-1.25573e+10 2.21589e+10 -4.22375e+09)
)
;
    }
}


// ************************************************************************* //
