/*--------------------------------*- C++ -*----------------------------------*\
| =========                 |                                                 |
| \\      /  F ield         | OpenFOAM: The Open Source CFD Toolbox           |
|  \\    /   O peration     | Version:  2.4.0                                 |
|   \\  /    A nd           | Web:      www.OpenFOAM.org                      |
|    \\/     M anipulation  |                                                 |
\*---------------------------------------------------------------------------*/
FoamFile
{
    version     2.0;
    format      ascii;
    class       volSymmTensorField;
    location    "0.13";
    object      B;
}
// * * * * * * * * * * * * * * * * * * * * * * * * * * * * * * * * * * * * * //

dimensions      [0 2 -2 0 0 0 0];

internalField   nonuniform List<symmTensor> 
200
(
(2.23741e+24 -3.55893e+23 -8.85825e+22 1.94271e+24 -6.59792e+22 1.86794e+24)
(-7.88291e+23 2.02205e+24 1.48011e+24 5.71462e+22 3.2179e+23 1.03061e+23)
(3.43549e+24 -6.97699e+23 -1.0776e+24 7.67053e+24 -2.62337e+23 5.32672e+24)
(4.69154e+24 2.89241e+24 6.56928e+24 1.08307e+25 2.4115e+24 7.11311e+24)
(1.16279e+25 7.30662e+23 2.19262e+23 2.22513e+25 -1.95083e+24 2.17761e+25)
(4.18154e+25 -2.2331e+24 -4.62821e+24 4.41586e+25 1.39255e+24 4.27603e+25)
(1.18075e+25 6.49527e+22 -5.50682e+23 1.11932e+25 5.58124e+22 1.1249e+25)
(4.61237e+24 3.1681e+23 4.15134e+23 3.75796e+24 -3.90763e+23 3.50034e+24)
(5.38537e+23 -1.56946e+23 2.70097e+23 3.33617e+23 3.0037e+22 2.55209e+23)
(1.40144e+24 6.08976e+23 4.67523e+23 1.09644e+24 9.26526e+22 1.41588e+24)
(-6.67465e+21 3.86021e+22 -5.63154e+22 -1.01225e+22 -4.08705e+22 1.74055e+21)
(8.3145e+23 -1.73929e+23 -2.28105e+23 1.23344e+24 1.66641e+23 8.14425e+23)
(1.02753e+24 1.83756e+24 4.93904e+23 -7.45256e+21 -4.07541e+23 1.27557e+24)
(6.10296e+24 -5.68428e+23 -1.17159e+24 7.68355e+24 1.28135e+24 6.81884e+24)
(1.41122e+24 -2.57279e+22 4.86811e+24 5.08436e+24 -1.21459e+24 4.17384e+24)
(9.46631e+24 4.55626e+23 -4.81018e+23 1.18235e+25 -5.9724e+22 1.30537e+25)
(1.73832e+25 -2.84883e+23 -6.74246e+23 1.72e+25 -3.95485e+22 1.71726e+25)
(3.10081e+24 1.31145e+22 -2.01733e+23 2.54507e+24 2.6828e+23 2.58726e+24)
(6.60097e+23 1.17622e+23 -2.25614e+23 5.21297e+23 -7.59989e+22 3.83668e+23)
(1.71505e+22 -2.62649e+22 -1.49361e+23 6.04827e+23 1.11225e+22 4.17719e+23)
(9.46135e+23 -1.95847e+22 -7.23884e+22 1.0876e+24 6.29201e+22 1.02821e+24)
(-1.32272e+23 5.91447e+23 -2.77647e+23 8.19465e+22 1.5146e+22 1.18753e+23)
(1.33899e+24 1.83742e+23 -4.7943e+23 1.43569e+24 1.98151e+23 1.12574e+24)
(6.08739e+24 3.52653e+24 2.29635e+24 4.86849e+24 9.16616e+22 6.86988e+24)
(8.26452e+24 4.68301e+21 -5.10533e+23 9.6397e+24 7.80475e+23 9.77462e+24)
(1.89223e+25 -1.08887e+24 -8.61603e+23 1.83183e+25 -4.97115e+23 1.86329e+25)
(1.84609e+24 -3.39651e+23 2.167e+22 2.29227e+24 -2.00544e+23 1.89526e+24)
(9.53591e+23 1.9907e+23 -1.00343e+23 1.20946e+24 3.29276e+22 1.09411e+24)
(2.711e+24 4.20059e+23 -4.673e+23 2.61406e+24 1.19156e+23 2.42566e+24)
(5.84003e+23 7.94965e+22 -2.33576e+23 5.16523e+23 -9.49528e+22 2.96259e+23)
(4.31902e+23 1.63374e+22 -5.09481e+22 4.85851e+23 2.05544e+22 4.84206e+23)
(4.81832e+23 1.45372e+22 -2.87651e+23 9.394e+23 1.49955e+23 8.08279e+23)
(6.90844e+23 3.28175e+23 -1.5724e+23 3.17917e+23 -4.57004e+22 4.4775e+23)
(1.57063e+24 2.84846e+23 -2.52129e+23 1.426e+24 4.60479e+22 1.39958e+24)
(1.13105e+24 1.23243e+23 -3.27668e+23 6.23882e+22 -2.39471e+23 9.19972e+23)
(1.32116e+24 -4.59654e+22 -3.1607e+23 1.70771e+24 1.69132e+23 1.34813e+24)
(1.44582e+24 -1.57689e+23 -1.51837e+23 2.00768e+24 2.44489e+22 1.65183e+24)
(9.22816e+23 -2.44283e+23 -6.76059e+22 1.78758e+24 1.39158e+22 1.17361e+24)
(6.20484e+23 3.38246e+22 -8.9041e+22 7.24118e+23 1.2905e+23 6.59785e+23)
(1.30323e+24 2.92003e+23 -4.67367e+23 1.28305e+24 9.31635e+22 1.09145e+24)
(1.93991e+23 6.79387e+22 2.24548e+22 1.47037e+23 3.50327e+22 1.10971e+23)
(1.13761e+23 -1.97379e+22 -3.92707e+22 4.32647e+23 5.81216e+22 4.5844e+23)
(6.54161e+23 1.76223e+24 7.50402e+22 1.63538e+24 -1.58388e+23 1.45904e+23)
(1.53922e+24 -7.18822e+23 2.38831e+23 6.49636e+24 2.45418e+23 3.80752e+24)
(3.95154e+24 9.67457e+23 -2.84594e+24 2.1683e+24 -1.51852e+24 -4.06751e+24)
(1.50272e+24 -2.03589e+24 2.67837e+24 3.07308e+24 2.44288e+24 2.28705e+24)
(1.54394e+25 -8.49826e+24 1.23884e+24 6.75761e+24 -1.69571e+24 1.56596e+25)
(8.41435e+24 2.17988e+23 -2.72275e+23 6.82466e+24 2.6919e+22 7.9546e+24)
(9.95389e+24 2.7628e+24 7.80116e+23 1.07575e+25 -1.49514e+23 1.08912e+25)
(3.80476e+23 -4.99661e+23 5.12662e+23 1.56515e+24 -8.80363e+22 1.03653e+24)
(1.17294e+24 -4.8252e+21 9.19126e+21 1.23644e+24 -3.32306e+22 1.04382e+24)
(5.18208e+22 4.60165e+22 1.51234e+22 2.29922e+22 2.72232e+21 2.04963e+22)
(-5.01986e+22 1.06876e+23 -2.35364e+22 7.99127e+22 1.38112e+23 1.51848e+23)
(1.53722e+24 2.76193e+22 4.05362e+22 2.34773e+23 -3.77999e+23 3.27379e+23)
(-2.19773e+23 -1.34643e+24 1.09186e+24 3.62456e+24 2.31575e+23 2.54343e+24)
(1.30144e+25 -8.8708e+24 -2.30654e+24 4.65236e+24 -1.30148e+24 -1.03073e+24)
(1.82602e+25 8.85707e+23 -3.03908e+23 1.807e+25 1.09611e+23 1.77658e+25)
(3.07801e+25 8.59046e+23 1.91218e+23 3.51511e+25 2.4651e+23 3.29505e+25)
(1.43032e+24 -3.35967e+23 1.72398e+23 1.63053e+24 -1.18741e+22 1.60837e+24)
(4.44148e+24 1.27333e+23 3.34756e+23 2.95498e+24 -3.15055e+23 3.27656e+24)
(3.95311e+23 -2.99138e+22 -2.29661e+22 4.5975e+23 2.37832e+22 4.58466e+23)
(1.29323e+24 -2.91994e+23 -1.47992e+23 1.74895e+24 1.5948e+23 1.50052e+24)
(6.30854e+23 2.36339e+23 8.19293e+22 3.29872e+23 -9.46936e+22 4.80638e+23)
(1.78316e+24 2.87309e+23 -5.33101e+22 1.34645e+24 -3.27104e+22 1.4041e+24)
(2.93997e+24 -3.6034e+23 -2.17806e+23 2.43069e+24 -4.00727e+23 1.91467e+24)
(1.90595e+24 -4.4333e+22 5.72249e+22 2.683e+24 -2.30688e+23 2.23312e+24)
(8.40681e+24 4.4493e+23 -3.1038e+23 1.11663e+25 7.32192e+23 8.7341e+24)
(2.06733e+23 7.07661e+22 -7.47393e+22 9.5361e+22 1.30511e+23 1.60661e+23)
(8.74193e+24 -5.08022e+23 8.8467e+22 1.11498e+25 4.72321e+23 1.0198e+25)
(-3.04344e+22 1.25992e+22 5.25732e+22 1.07876e+23 -4.69233e+22 8.3961e+22)
(3.05945e+23 1.43528e+23 7.71516e+22 1.31775e+23 4.97559e+22 2.24581e+23)
(2.45878e+22 -3.9737e+22 -5.21048e+22 6.17888e+22 6.01635e+21 9.04771e+21)
(1.27634e+24 -9.52257e+22 -1.33266e+23 1.55604e+24 7.24934e+22 1.50771e+24)
(6.73182e+23 2.06498e+22 1.163e+21 4.82772e+23 -8.61651e+22 6.38352e+23)
(5.27451e+23 2.73865e+22 -6.44547e+22 3.55465e+23 -1.12554e+23 3.4462e+23)
(1.09899e+23 -3.88963e+23 -2.74112e+23 5.30876e+23 -1.33859e+23 3.58177e+23)
(4.13092e+23 1.04816e+23 -9.40104e+22 5.40099e+23 -5.90615e+22 5.24249e+23)
(8.00747e+24 2.01848e+24 2.55645e+22 4.43351e+24 3.42939e+23 6.13594e+24)
(4.85149e+23 -3.58815e+22 2.29254e+22 5.96804e+23 1.63773e+22 4.38458e+23)
(7.43516e+24 -6.06323e+23 -9.4599e+22 9.09834e+24 2.4112e+23 8.48064e+24)
(4.15841e+24 1.65692e+23 1.31805e+23 3.20934e+24 -3.83423e+23 3.9883e+24)
(2.0212e+24 -9.24149e+22 7.51396e+22 2.07666e+24 -7.93711e+22 1.97973e+24)
(3.2264e+23 -8.82576e+22 -5.88586e+22 8.63122e+23 5.51831e+22 7.38387e+23)
(3.39012e+23 2.04434e+23 -6.48258e+22 5.30255e+23 -2.86834e+23 4.00415e+23)
(1.20106e+24 2.37614e+23 5.10662e+23 1.66514e+24 4.04944e+23 9.18582e+23)
(1.99529e+24 -6.14682e+23 -1.48564e+23 1.79125e+24 -8.33576e+23 2.53973e+24)
(4.38734e+24 -1.72242e+22 3.06953e+23 4.79626e+24 3.02291e+23 3.6747e+24)
(4.10834e+24 1.36528e+23 -4.29737e+22 4.54175e+24 2.06275e+23 4.26966e+24)
(4.41599e+23 -5.74382e+22 -1.07387e+23 5.29354e+23 -5.43245e+22 5.3259e+23)
(3.78804e+24 -1.31816e+23 1.39599e+24 2.48901e+24 -2.76362e+23 2.6232e+24)
(1.78197e+23 1.55799e+22 -1.35215e+23 3.45904e+23 7.40762e+22 3.3446e+23)
(2.30015e+25 4.89998e+23 5.74299e+23 2.33068e+25 1.98254e+21 2.31863e+25)
(6.38251e+23 -1.15607e+23 8.92016e+22 5.30069e+23 -9.61547e+21 5.65848e+23)
(2.37221e+22 -1.07725e+23 -1.35529e+22 1.88569e+23 4.11056e+22 1.15177e+23)
(4.24256e+24 -3.93502e+23 -5.54214e+23 3.84617e+24 -7.00671e+22 3.8925e+24)
(5.56809e+24 1.0146e+24 -2.69147e+23 4.62319e+24 2.21771e+23 4.59735e+24)
(9.10788e+24 1.29158e+24 6.63364e+23 9.91577e+24 5.56455e+23 9.52099e+24)
(4.0674e+24 -3.08075e+23 8.46752e+22 4.4597e+24 -6.81121e+22 4.34275e+24)
(6.78068e+24 -3.989e+23 -1.1829e+23 8.28801e+24 1.47329e+23 7.53829e+24)
(1.34658e+23 -6.09838e+22 4.0857e+22 1.98008e+23 -2.85853e+22 1.98333e+23)
(3.16142e+25 3.6532e+23 1.27721e+23 3.31126e+25 4.25892e+23 3.18276e+25)
(-5.73711e+22 -9.13697e+21 -3.32938e+22 7.7315e+22 -3.17175e+22 3.11941e+22)
(2.9717e+24 -1.78919e+23 1.13188e+23 3.12475e+24 1.51377e+23 3.00574e+24)
(1.17576e+24 -1.91592e+23 -1.76544e+23 7.46111e+23 4.62393e+22 9.69806e+23)
(7.85279e+22 -2.10499e+23 -1.56566e+23 1.26122e+23 -1.30998e+23 6.77408e+22)
(1.25802e+24 -1.95803e+22 -7.93504e+23 1.59934e+24 2.97816e+23 8.28452e+23)
(1.19087e+24 3.33917e+23 -1.87327e+23 -1.11909e+20 1.94705e+23 9.88604e+23)
(7.09528e+24 1.92771e+24 1.37524e+24 5.657e+24 -2.75071e+23 6.79204e+24)
(1.10427e+24 -1.18007e+23 4.10888e+22 1.32658e+24 1.50263e+22 1.26027e+24)
(9.28063e+24 -7.63904e+23 -3.56572e+23 1.08663e+25 2.06357e+23 1.02152e+25)
(-3.30513e+22 9.97482e+22 -4.28919e+22 1.81814e+22 -5.22437e+22 3.84728e+22)
(1.21488e+25 5.22986e+22 1.39879e+23 1.33481e+25 -1.21997e+23 1.25107e+25)
(1.54346e+23 -2.99809e+22 1.50049e+23 4.42074e+23 -9.7671e+22 3.07609e+23)
(3.00033e+24 -5.86435e+22 -7.48706e+21 2.97812e+24 7.69343e+22 2.97133e+24)
(1.2447e+24 -1.5511e+23 -2.83749e+23 1.16784e+24 1.29696e+23 1.33622e+24)
(9.46425e+21 6.38752e+21 -9.71133e+20 6.72778e+22 -8.66285e+21 3.99883e+22)
(1.22623e+24 7.42971e+23 1.89946e+23 -1.13329e+23 6.44413e+22 6.67991e+23)
(6.71166e+23 9.48701e+22 -1.05826e+23 4.24871e+23 7.09935e+22 6.21579e+23)
(3.24106e+24 1.08656e+24 3.49035e+23 3.61228e+23 -1.37091e+24 1.9601e+24)
(1.95413e+24 3.19369e+23 8.3045e+23 2.74216e+24 -2.23529e+22 2.17334e+24)
(8.07111e+23 -8.25376e+21 8.43485e+22 1.04965e+24 -7.98798e+22 9.70112e+23)
(2.70972e+23 -2.34657e+21 -2.53658e+22 7.24716e+23 -5.20195e+22 1.00556e+23)
(3.19455e+23 -7.91245e+22 -1.69239e+22 9.82675e+23 -5.89976e+22 6.72267e+23)
(4.70251e+23 3.19143e+23 -1.78076e+23 8.56505e+23 1.33572e+23 -7.78523e+23)
(9.5127e+23 -1.18786e+23 -2.50335e+23 2.48109e+24 -2.78005e+23 1.53563e+24)
(1.35313e+25 2.60165e+24 -1.88062e+24 1.23905e+25 7.26812e+23 6.63942e+24)
(1.8662e+25 -2.91175e+23 -2.68684e+23 1.9912e+25 2.60042e+23 1.89861e+25)
(6.04904e+24 -5.18238e+23 3.81696e+23 6.87093e+24 5.80105e+22 6.57152e+24)
(2.71747e+24 6.74177e+22 -1.16458e+22 2.57896e+24 -1.45327e+23 2.65211e+24)
(4.01058e+23 5.1568e+22 -6.55042e+22 3.55637e+23 -1.00927e+23 4.75108e+23)
(7.10901e+24 3.2821e+23 1.44738e+23 7.14892e+24 2.85444e+23 7.73572e+24)
(2.81071e+23 -1.04166e+21 1.13268e+23 3.37887e+23 -1.91875e+23 4.71691e+23)
(1.69796e+24 3.28551e+22 2.45653e+22 2.03263e+24 -1.05422e+20 1.66601e+24)
(3.75395e+23 -1.00327e+23 -1.44284e+23 7.55401e+23 -4.35621e+22 5.64336e+23)
(1.58617e+23 3.92616e+22 -9.58492e+21 -3.45238e+23 9.03722e+22 -4.5467e+23)
(1.33637e+24 2.35718e+23 -1.90343e+23 6.56173e+23 -7.2289e+22 1.59491e+24)
(3.55279e+24 1.88322e+23 -6.44859e+23 2.98796e+21 7.98804e+23 2.76514e+24)
(2.44642e+24 -1.06458e+23 -8.63851e+22 3.44072e+24 1.30215e+22 2.76127e+24)
(4.00546e+24 -2.96555e+23 1.51897e+23 4.59215e+24 7.04891e+22 4.3166e+24)
(2.18476e+23 -2.87693e+23 -2.18809e+23 6.41403e+23 -2.06046e+23 6.60106e+23)
(-2.34607e+21 1.51865e+22 -2.7993e+22 1.22556e+23 -1.79668e+23 -6.16669e+22)
(1.03938e+25 6.57768e+23 1.23856e+22 9.65421e+24 -1.17617e+23 9.75044e+24)
(6.99625e+23 8.61002e+22 3.63247e+23 4.40849e+23 -1.88485e+23 7.14381e+23)
(1.2748e+25 -6.93518e+22 1.02147e+22 1.34535e+25 7.43695e+21 1.3047e+25)
(4.14834e+24 -5.53704e+23 -5.06609e+23 4.93514e+24 2.27775e+23 4.61271e+24)
(2.44408e+23 1.2165e+23 2.38444e+23 -6.58896e+22 5.86604e+22 2.64728e+23)
(4.41976e+24 8.47124e+23 3.07969e+23 3.67206e+24 -5.3189e+22 4.17518e+24)
(1.81669e+24 5.62995e+23 -4.22436e+23 1.21148e+24 2.11391e+23 1.62266e+24)
(1.25244e+24 -3.224e+23 -2.97408e+23 1.85174e+24 -3.79881e+23 1.52875e+24)
(4.14474e+24 -2.51169e+23 6.97808e+22 4.4433e+24 -3.50319e+22 4.30166e+24)
(7.77637e+23 1.23599e+23 7.07817e+22 1.22907e+24 -1.65848e+23 9.25298e+23)
(1.03239e+23 -1.27716e+23 -1.39694e+23 6.69133e+23 -1.09521e+23 5.5884e+23)
(2.51829e+25 1.27017e+24 -3.50196e+22 2.3139e+25 -1.25737e+23 2.36389e+25)
(5.48734e+24 4.48747e+23 4.62995e+23 4.8573e+24 -8.15684e+22 5.02579e+24)
(9.52315e+24 -3.57805e+23 2.90393e+22 1.00272e+25 3.88922e+22 9.96452e+24)
(3.67261e+24 -2.51733e+23 -1.5163e+23 3.94646e+24 1.34886e+23 3.8026e+24)
(2.42839e+24 4.87812e+23 3.49724e+22 2.27987e+24 -6.25758e+22 2.31887e+24)
(4.34759e+23 4.36342e+22 -2.36053e+23 -1.35002e+23 -2.43912e+23 6.07067e+23)
(3.48832e+25 2.49018e+23 2.61643e+23 3.7715e+25 4.39991e+23 3.58372e+25)
(9.09206e+23 -1.00436e+23 -3.41193e+22 1.27152e+24 -4.5957e+22 9.86339e+23)
(8.2839e+23 -1.3908e+22 -1.62185e+23 4.05938e+23 -6.23082e+23 4.57553e+23)
(9.40923e+23 -2.53087e+23 1.37057e+23 1.3349e+24 9.84629e+23 1.89213e+24)
(2.44283e+23 5.12401e+23 -7.55769e+23 5.71486e+23 -1.92283e+24 7.39234e+23)
(6.01028e+24 -6.96206e+23 3.30261e+23 5.86827e+24 3.59394e+24 8.1539e+24)
(1.67253e+25 2.738e+24 -9.92804e+24 1.56554e+25 -2.6145e+24 1.71819e+25)
(3.85695e+25 -5.50635e+22 -1.37775e+23 4.18573e+25 1.8279e+24 4.28082e+25)
(2.77834e+25 -7.17669e+22 1.78125e+24 2.86513e+25 -3.54862e+23 2.90322e+25)
(6.75266e+24 -4.88365e+23 2.45378e+23 7.52089e+24 1.572e+23 7.28044e+24)
(7.62144e+23 -3.3895e+23 -2.90198e+22 6.59213e+23 -3.36086e+23 8.50038e+23)
(2.83998e+25 7.73569e+23 -2.00012e+23 2.68398e+25 -1.61446e+23 2.72065e+25)
(1.20747e+24 -2.38079e+23 -1.89911e+22 1.1754e+23 -4.58933e+23 1.21207e+24)
(3.92972e+23 -4.29188e+22 -2.26305e+23 -4.713e+21 6.42193e+22 2.73826e+23)
(1.36231e+24 -3.68337e+23 9.6989e+22 2.44484e+24 -2.86003e+22 2.48712e+24)
(-6.3634e+23 -3.0693e+23 5.25491e+23 7.20703e+21 5.12515e+23 1.49169e+23)
(2.36063e+24 -2.05196e+22 -6.98606e+22 3.51647e+24 3.91421e+22 3.25633e+24)
(5.86851e+24 1.33979e+23 4.49034e+23 4.3953e+24 1.65239e+24 5.72362e+24)
(4.15847e+24 3.02928e+23 3.72424e+22 4.18836e+24 3.62424e+22 4.11168e+24)
(2.36978e+23 7.65048e+23 -1.5416e+23 5.94164e+23 -2.50492e+23 1.10752e+24)
(2.01895e+24 1.9939e+23 7.5984e+21 3.67938e+24 7.95555e+22 3.0518e+24)
(9.13477e+24 -2.32161e+24 6.37835e+23 1.08656e+25 -1.9309e+23 9.95652e+24)
(4.64328e+23 -1.04074e+23 4.38117e+21 5.78968e+23 -3.69613e+22 8.27071e+23)
(3.01487e+24 6.549e+23 5.49626e+23 2.4525e+24 -2.69593e+23 3.03398e+24)
(8.4835e+23 2.14207e+23 -7.93735e+22 5.14057e+23 6.95233e+22 7.26289e+23)
(2.03221e+24 9.61707e+22 2.38752e+23 2.82619e+24 4.62046e+22 1.80851e+24)
(8.44534e+23 -7.93293e+22 7.00204e+22 1.17786e+24 1.26035e+23 1.05044e+24)
(1.95162e+24 -2.1065e+22 -5.22886e+22 2.27577e+24 5.6365e+22 2.1099e+24)
(1.1332e+24 1.07434e+23 -3.04093e+22 7.91165e+23 7.49401e+20 9.0376e+23)
(1.56788e+24 -7.55629e+23 5.56741e+22 1.42734e+24 -3.94959e+21 1.66747e+24)
(3.48609e+25 2.79196e+23 2.87136e+22 3.78362e+25 -1.96004e+23 3.53095e+25)
(1.56596e+24 -8.4313e+22 7.25111e+22 2.90468e+24 -1.47446e+23 2.29196e+24)
(1.79597e+24 -5.41034e+23 -1.85454e+23 2.68238e+24 2.36059e+23 2.15102e+24)
(7.50024e+23 -1.7523e+23 3.36855e+22 9.54912e+23 -1.55683e+23 1.0295e+24)
(3.99166e+24 5.31868e+23 4.52138e+23 4.54091e+24 1.95518e+23 4.42436e+24)
(1.96093e+24 4.57883e+23 -2.83068e+23 1.86232e+24 -3.73757e+23 1.90429e+24)
(1.86687e+24 -3.01985e+22 -1.37452e+22 1.25592e+24 -6.53462e+22 1.05216e+24)
(6.44849e+23 -8.94828e+22 -3.39848e+22 8.26061e+23 5.68056e+22 7.07843e+23)
(1.12482e+24 -2.10706e+23 2.05872e+22 1.72368e+24 1.5903e+22 1.67557e+24)
(9.49084e+25 1.56635e+24 -8.99527e+21 9.33638e+25 -1.5264e+23 9.34371e+25)
(6.91274e+24 3.77481e+23 4.96184e+22 7.05136e+24 4.12565e+23 6.86548e+24)
(3.13711e+25 -8.45692e+23 -6.29128e+22 3.24698e+25 -9.19474e+21 3.23932e+25)
)
;

boundaryField
{
    inlet
    {
        type            calculated;
        value           nonuniform 0();
    }
    outlet
    {
        type            calculated;
        value           nonuniform 0();
    }
    bottom
    {
        type            calculated;
        value           nonuniform List<symmTensor> 
40
(
(3.87884e+10 -4.39275e+10 -3.04346e+09 2.41418e+09 1.0125e+10 2.83447e+10)
(-1.02557e+10 9.69506e+09 -2.61428e+10 -1.11216e+10 -2.53217e+10 -2.65872e+10)
(-1.59892e+10 -6.23645e+09 -4.68143e+10 2.90575e+10 1.28914e+10 -7.79533e+09)
(-2.39005e+10 9.9815e+09 -4.78323e+10 9.06031e+09 2.03452e+10 1.82283e+09)
(-3.18247e+10 4.82085e+10 4.8132e+10 -1.16683e+10 -2.49174e+10 -4.61962e+10)
(5.66574e+08 -1.22832e+10 -3.43691e+10 2.89561e+10 2.88579e+10 8.20956e+09)
(-1.2137e+10 2.50531e+10 -3.36194e+10 -3.06288e+09 -2.39394e+09 -7.97241e+09)
(-2.30853e+10 1.44374e+09 -5.78327e+10 2.23574e+10 1.80809e+10 -5.74298e+09)
(-2.30761e+10 -1.64545e+10 -2.75274e+10 7.68032e+10 7.372e+10 1.42012e+11)
(-6.74205e+09 7.18011e+10 7.25577e+09 -4.71829e+10 -2.99771e+10 -7.71019e+09)
(1.47079e+10 7.56169e+09 -4.31514e+10 1.86874e+10 4.47962e+10 3.04296e+10)
(1.82979e+10 3.0943e+10 -4.0956e+10 -1.68648e+10 6.50404e+09 -7.15854e+09)
(-5.11271e+10 5.1551e+10 1.21527e+11 5.82898e+10 -1.97943e+10 -5.20661e+10)
(-9.01792e+08 -2.12753e+10 -6.23585e+10 5.82571e+10 1.39026e+11 1.10047e+11)
(-1.42789e+10 1.32708e+11 6.87033e+10 -6.01475e+10 4.46392e+09 1.76701e+10)
(2.18511e+10 2.87881e+10 -4.14247e+10 7.23413e+09 4.25442e+10 2.93438e+10)
(-2.23557e+11 2.44555e+10 -1.06232e+10 1.32013e+11 8.0592e+10 4.75224e+11)
(-7.66561e+10 -6.6925e+08 1.06772e+11 1.88918e+10 -5.50238e+10 -4.82721e+10)
(-5.94913e+10 4.1318e+08 -8.17724e+10 6.18401e+10 2.17818e+11 3.0148e+11)
(2.5321e+10 1.32258e+10 -5.43274e+10 -8.93625e+10 1.24887e+10 -3.71024e+09)
(-7.86583e+10 -1.46363e+11 -4.09867e+11 7.49191e+10 4.63814e+10 6.42104e+10)
(-1.29514e+11 3.39971e+10 -7.98832e+10 4.63676e+10 1.07814e+11 4.62082e+11)
(3.32831e+10 -1.8406e+11 -1.99808e+11 -6.88141e+10 -6.82781e+10 -3.09294e+10)
(-7.86876e+09 -5.256e+09 -4.36536e+10 3.63326e+10 4.74075e+10 -3.14042e+09)
(1.05881e+11 1.47007e+10 -1.75052e+11 -3.31605e+10 5.19321e+09 -1.70742e+11)
(3.4125e+10 -8.82827e+10 -3.03509e+11 -2.26565e+10 1.79207e+10 -1.28706e+10)
(-4.92917e+09 -3.58012e+10 -1.31763e+10 4.21008e+10 -6.12073e+10 -5.7913e+09)
(-5.87215e+10 -3.34144e+10 -5.02632e+10 6.03351e+10 3.4598e+10 -4.53982e+10)
(7.82352e+10 3.68295e+10 -1.42472e+10 -2.10911e+10 9.22259e+09 -1.07681e+11)
(6.7756e+10 2.42735e+09 -7.61878e+10 -3.51069e+10 1.36339e+10 -9.21735e+09)
(-4.56972e+10 5.38365e+10 -7.89196e+10 2.34998e+10 -5.51441e+10 3.99568e+10)
(-4.72138e+10 -2.99895e+10 -4.01732e+10 5.89492e+10 9.23472e+08 -1.3169e+10)
(1.50966e+10 -1.23814e+10 -9.54914e+09 -1.06948e+09 7.67048e+09 6.9019e+09)
(1.6791e+10 1.78122e+10 -5.77216e+10 -4.22835e+09 -1.67065e+10 -2.1551e+10)
(1.80272e+10 5.18189e+10 -9.30827e+10 6.06935e+09 1.50592e+10 -3.14093e+09)
(-8.83886e+09 7.85679e+09 -7.44956e+10 1.52331e+10 -9.98399e+09 1.33671e+10)
(1.25951e+10 3.41048e+10 -2.00156e+10 -4.48571e+09 -1.5097e+10 1.19418e+10)
(-3.23972e+10 -2.53144e+09 -3.90729e+10 2.42435e+10 6.82548e+09 2.80831e+10)
(1.36268e+10 1.01361e+10 -5.35079e+10 5.02278e+09 4.36115e+09 -1.75213e+10)
(8.71636e+09 2.89279e+10 -8.14814e+10 6.71662e+09 1.79742e+10 -1.0007e+10)
)
;
    }
    top
    {
        type            symmetryPlane;
    }
    side1
    {
        type            symmetryPlane;
    }
    side2
    {
        type            symmetryPlane;
    }
    procBoundary3to2
    {
        type            processor;
        value           nonuniform List<symmTensor> 
20
(
(1.03494e+23 2.67538e+22 -1.37464e+22 -1.14568e+22 1.95746e+22 -5.22765e+22)
(1.92635e+22 -7.6754e+22 -7.68733e+22 -3.01798e+19 2.42074e+22 -2.24898e+22)
(-4.03059e+22 -1.56966e+22 -7.03038e+22 4.45181e+22 3.96001e+22 1.58921e+22)
(-2.00751e+22 9.03357e+22 -1.10358e+23 -1.33823e+20 5.14631e+21 4.74715e+22)
(-1.48994e+22 -2.16287e+22 -2.19953e+22 -3.63932e+19 3.18032e+20 8.21098e+21)
(-3.96764e+22 -1.66437e+22 -1.63465e+22 5.20034e+22 4.08556e+22 2.63474e+22)
(-2.07966e+22 2.03734e+23 1.72695e+23 4.6484e+22 -1.82401e+22 -1.40826e+23)
(2.01047e+22 7.67864e+22 8.41851e+22 -3.17516e+22 -2.50362e+22 -2.48761e+22)
(8.64746e+22 6.37145e+22 -9.61582e+22 5.49729e+22 1.61251e+23 2.07017e+23)
(1.32367e+24 -3.62509e+24 -4.24297e+24 -4.45304e+23 -4.9461e+23 -4.73496e+23)
(-6.78272e+22 4.94813e+22 4.78206e+22 -4.40883e+22 -6.18509e+22 -3.16486e+22)
(-1.98336e+23 5.69224e+23 1.09353e+23 7.04621e+23 8.11183e+22 -1.23171e+23)
(9.22252e+22 1.04372e+23 1.76571e+23 -1.87574e+23 -1.68555e+23 -1.70976e+23)
(6.71803e+21 7.89857e+21 -1.06642e+22 -2.95516e+22 -1.30551e+23 -9.25995e+21)
(5.03685e+23 -6.72225e+21 5.26908e+22 4.31838e+23 2.75848e+23 1.39196e+23)
(-5.55509e+22 -2.2528e+22 -1.84887e+22 3.61031e+22 -1.80514e+22 -1.59489e+22)
(7.75823e+23 -4.358e+23 -1.14025e+22 -3.58136e+23 1.24634e+24 5.69392e+23)
(-1.73568e+23 5.98276e+22 4.11616e+23 -2.79285e+23 2.29371e+23 2.03961e+23)
(-3.43792e+23 -8.94335e+23 -6.9248e+23 3.27378e+22 -1.66938e+23 1.48299e+23)
(-1.33541e+22 -2.19638e+22 3.14988e+21 2.12379e+22 -4.69731e+20 1.08373e+23)
)
;
    }
    procBoundary3to4
    {
        type            processor;
        value           nonuniform List<symmTensor> 
20
(
(-1.56394e+24 -8.33585e+23 2.81729e+23 3.91879e+23 -1.82871e+23 8.42489e+23)
(1.06352e+23 3.15552e+23 -5.30669e+23 -3.72325e+23 -3.9938e+23 2.44458e+23)
(-5.46864e+23 -2.7776e+23 -3.15452e+23 5.76856e+23 -9.48514e+21 4.63433e+22)
(1.26604e+23 8.57822e+22 -3.43121e+23 8.29817e+22 -3.89467e+22 -2.18195e+23)
(1.55966e+23 3.2034e+23 1.87487e+24 3.55623e+23 -2.7271e+23 2.99428e+23)
(-6.22673e+23 -3.26751e+23 9.3988e+23 3.57156e+23 -2.67474e+23 -2.24413e+23)
(3.21796e+23 1.45574e+23 5.54427e+22 -1.16767e+23 -1.17307e+23 -7.17076e+22)
(-2.25019e+23 6.17635e+22 -1.49602e+23 7.29373e+22 2.76356e+22 1.3999e+23)
(9.60147e+22 -9.98213e+21 -5.67362e+22 2.61842e+22 -4.29968e+23 -1.49465e+23)
(9.58681e+23 -4.49496e+23 8.51468e+23 -4.67729e+23 -1.03259e+24 -3.4064e+23)
(-6.81996e+22 2.83716e+21 -1.20152e+21 1.55787e+23 3.31489e+22 1.4005e+22)
(-1.19808e+24 -1.0242e+24 -2.33291e+23 4.60528e+23 4.48924e+22 1.60122e+23)
(9.16721e+23 8.47085e+23 3.0278e+24 -1.11492e+24 -6.22348e+23 -2.73242e+24)
(-1.03254e+23 2.95852e+22 -2.2862e+22 -4.33433e+22 -1.03921e+23 1.01735e+23)
(-1.30484e+23 -1.40472e+23 6.67067e+22 4.67039e+22 2.29138e+22 7.01165e+22)
(-6.98851e+22 -1.85238e+23 -1.64949e+22 1.53113e+22 -1.06319e+23 -5.09024e+22)
(5.06979e+23 8.0949e+23 -2.83243e+23 -9.30823e+23 2.00076e+23 -4.20882e+22)
(9.36962e+23 4.0392e+23 2.46584e+21 -7.48124e+23 -3.01593e+23 -1.09581e+23)
(-1.01645e+23 -1.14127e+22 -2.70972e+22 1.02669e+23 -4.40129e+22 -5.06695e+21)
(3.91334e+23 -6.64745e+23 1.86715e+23 8.63342e+23 -1.40912e+23 -1.0158e+23)
)
;
    }
    procBoundary3to11
    {
        type            processor;
        value           nonuniform List<symmTensor> 
50
(
(-1.43299e+22 1.12888e+23 -6.76511e+22 2.47616e+22 4.28972e+22 7.33882e+21)
(-1.36612e+22 4.81596e+22 -1.04121e+23 3.50251e+22 4.60947e+22 -1.32498e+22)
(-1.14951e+23 4.49189e+22 -1.77428e+23 1.02063e+23 8.18173e+22 2.86298e+21)
(4.09498e+23 5.42053e+23 9.48263e+22 -7.61147e+22 -3.21767e+22 -2.06453e+23)
(-7.9839e+21 1.44297e+23 -5.55134e+22 -2.49738e+23 1.63652e+23 9.79645e+22)
(-4.35923e+23 -1.0798e+23 -3.05681e+23 7.47258e+23 3.16942e+23 -2.56813e+22)
(-1.02832e+23 -2.00526e+23 -1.96649e+23 1.20246e+23 8.42669e+22 -5.02801e+22)
(9.19491e+22 7.91745e+22 -2.39611e+23 7.60226e+22 2.86719e+22 -1.03578e+23)
(-3.49092e+22 4.57189e+22 -1.48723e+23 1.12139e+23 7.92565e+22 -1.39808e+23)
(-7.55434e+22 1.11286e+23 -1.45468e+23 1.8842e+23 1.70927e+23 -8.73051e+22)
(-1.15197e+22 3.03877e+21 -6.83956e+21 1.05117e+22 -3.48642e+22 -4.62397e+21)
(9.30001e+22 -2.52922e+22 1.07826e+23 8.49797e+21 2.43221e+23 -1.82589e+23)
(-3.64235e+22 -4.84061e+22 -7.6842e+22 5.80634e+22 -1.87347e+22 -3.01952e+22)
(-1.27439e+23 5.57908e+22 -1.00088e+23 1.07567e+23 -7.30979e+22 2.7368e+22)
(2.05349e+21 8.41128e+22 1.98955e+22 -2.20348e+22 -1.65553e+23 -5.29485e+22)
(-1.10775e+23 -4.29132e+22 -3.15693e+22 2.18226e+23 -1.27602e+23 -2.5668e+22)
(-8.71762e+23 -1.58843e+23 -2.19186e+23 8.8206e+23 -1.79411e+23 -3.91619e+22)
(8.48826e+22 2.2318e+23 -1.60945e+23 -5.9249e+22 4.22845e+22 -1.52335e+22)
(1.28252e+24 9.67995e+23 5.13542e+22 -9.89574e+23 -4.07895e+22 -3.32259e+22)
(-2.26008e+23 -1.81125e+23 2.03883e+23 2.57179e+23 -2.3326e+22 -8.01105e+22)
(1.64742e+24 3.66581e+24 -8.11448e+23 -4.6965e+23 -9.01039e+22 -2.07865e+23)
(8.82863e+22 8.02119e+22 -9.31093e+22 -1.595e+23 3.50669e+22 2.67216e+22)
(-5.51867e+23 -5.73257e+23 1.96962e+23 5.97288e+23 -2.16416e+23 -1.44125e+22)
(-2.59115e+23 -2.62427e+22 8.31336e+22 1.47035e+23 -1.16763e+23 7.39557e+22)
(5.18874e+21 2.82523e+21 -1.16103e+22 1.67782e+22 3.00204e+22 2.49637e+22)
(-8.53815e+22 -3.48634e+21 -4.9665e+22 6.10118e+22 3.0819e+21 1.48183e+22)
(-2.6469e+22 1.28119e+23 -1.1183e+22 3.2544e+22 8.82692e+21 1.9702e+22)
(7.20788e+23 5.97707e+23 -5.45622e+22 -1.5892e+24 -2.02161e+23 7.15464e+22)
(3.46368e+23 6.01164e+21 2.24227e+23 1.35387e+23 1.20172e+24 -5.95449e+23)
(4.22931e+23 -7.91945e+23 4.95294e+22 -1.1448e+24 -1.1055e+24 3.01775e+22)
(-6.9996e+22 5.14916e+21 2.67264e+22 3.15144e+22 -2.27615e+22 -2.4522e+22)
(-2.13516e+23 -7.08251e+22 -1.56116e+22 9.27187e+22 -4.05262e+23 1.41512e+23)
(-2.30093e+23 1.13936e+22 -6.58112e+22 1.6586e+23 9.79383e+22 1.47975e+23)
(4.18777e+23 -1.29265e+23 8.56206e+22 -1.53266e+24 1.06578e+23 9.16314e+22)
(3.28562e+23 2.87395e+22 -1.57276e+22 -1.77287e+23 -5.54759e+22 1.36649e+22)
(-2.76298e+23 -2.75007e+23 9.57585e+21 1.80856e+23 9.94212e+22 1.35271e+23)
(-2.0873e+23 -1.05015e+23 2.26007e+21 3.68684e+22 2.5288e+22 2.52747e+22)
(2.11362e+24 3.42789e+24 -1.20441e+24 -4.38432e+23 -1.18072e+23 7.72518e+22)
(3.92781e+23 6.56889e+23 -5.98635e+22 -6.24133e+23 -2.0321e+23 9.05725e+21)
(-1.39988e+24 -1.27323e+24 5.69099e+23 1.27118e+24 -4.47498e+23 9.42494e+22)
(-8.56084e+22 -8.11918e+22 -7.38582e+22 -4.26097e+22 -1.05453e+23 7.62758e+22)
(-8.14355e+23 6.30485e+23 7.93975e+23 8.30147e+23 1.69515e+23 5.75252e+22)
(1.45801e+23 3.17173e+23 2.31782e+23 2.84589e+23 -9.41267e+22 -3.71345e+23)
(1.35267e+22 -1.08547e+23 -1.63385e+23 1.2883e+23 1.42307e+23 -5.03245e+22)
(8.33689e+20 1.66548e+23 -1.37346e+23 -9.24342e+22 -9.95191e+22 -8.05482e+22)
(2.20711e+23 -2.99529e+22 -1.69666e+22 -1.41716e+23 1.05804e+22 -5.05088e+22)
(-4.13424e+23 -8.75217e+22 -2.13494e+23 2.96878e+23 8.14135e+22 -7.13078e+21)
(-7.84735e+22 -3.00072e+22 -1.69428e+22 1.42865e+23 2.18617e+22 2.45339e+22)
(3.08716e+23 -3.68396e+23 -3.0137e+23 -2.84813e+24 -1.19334e+24 7.0003e+23)
(-5.0157e+22 4.85623e+23 2.81228e+22 -1.641e+23 7.22844e+22 4.18095e+22)
)
;
    }
}


// ************************************************************************* //
