/*--------------------------------*- C++ -*----------------------------------*\
| =========                 |                                                 |
| \\      /  F ield         | OpenFOAM: The Open Source CFD Toolbox           |
|  \\    /   O peration     | Version:  2.4.0                                 |
|   \\  /    A nd           | Web:      www.OpenFOAM.org                      |
|    \\/     M anipulation  |                                                 |
\*---------------------------------------------------------------------------*/
FoamFile
{
    version     2.0;
    format      ascii;
    class       volScalarField;
    location    "0.08";
    object      alpha;
}
// * * * * * * * * * * * * * * * * * * * * * * * * * * * * * * * * * * * * * //

dimensions      [0 0 0 0 0 0 0];

internalField   nonuniform List<scalar> 
200
(
8.44372e-164
4.21593e-166
2.12729e-168
1.08214e-170
5.53724e-173
2.84441e-175
1.46439e-177
7.54564e-180
3.88726e-182
2.00045e-184
5.62956e-166
2.82478e-168
1.41869e-170
7.13976e-173
3.60286e-175
1.82338e-177
9.25417e-180
4.70867e-182
2.40086e-184
1.22604e-186
3.31766e-168
1.70051e-170
8.68548e-173
4.42503e-175
2.25081e-177
1.14393e-179
5.81248e-182
2.95411e-184
1.50221e-186
7.64425e-189
1.79764e-170
9.40308e-173
4.89644e-175
2.5394e-177
1.31234e-179
6.76177e-182
3.47538e-184
1.78275e-186
9.13103e-189
4.67148e-191
2.56547e-165
1.29772e-167
6.6329e-170
3.41731e-172
1.77072e-174
9.20961e-177
4.7999e-179
2.50342e-181
1.3052e-183
6.79667e-186
1.7332e-167
8.80911e-170
4.48063e-172
2.28334e-174
1.16655e-176
5.97638e-179
3.07002e-181
1.58083e-183
8.15593e-186
4.21379e-188
1.03473e-169
5.37129e-172
2.77798e-174
1.4329e-176
7.37801e-179
3.79518e-181
1.95149e-183
1.00355e-185
5.1629e-188
2.6576e-190
5.6787e-172
3.00786e-174
1.58576e-176
8.32511e-179
4.35452e-181
2.27051e-183
1.18079e-185
6.12781e-188
3.17484e-190
1.6428e-192
3.98963e-167
2.04449e-169
1.05848e-171
5.52297e-174
2.89791e-176
1.52601e-178
8.05134e-181
4.25035e-183
2.24266e-185
1.18171e-187
2.73109e-169
1.40598e-171
7.24233e-174
3.7371e-176
1.93298e-178
1.00244e-180
5.21194e-183
2.71593e-185
1.41784e-187
7.41115e-190
1.65165e-171
8.68291e-174
4.54716e-176
2.37457e-178
1.23765e-180
6.44345e-183
3.35288e-185
1.74462e-187
9.08033e-190
4.72812e-192
9.18084e-174
4.92402e-176
2.62821e-178
1.39671e-180
7.3941e-183
3.90152e-185
2.05299e-187
1.07787e-189
5.64897e-192
2.9564e-194
4.20153e-169
2.18092e-171
1.14354e-173
6.04227e-176
3.21e-178
1.71123e-180
9.13877e-183
4.8826e-185
2.60697e-187
1.38986e-189
2.91388e-171
1.51922e-173
7.9242e-176
4.13984e-178
2.16763e-180
1.1378e-182
5.98678e-185
3.15677e-187
1.66733e-189
8.81654e-192
1.78485e-173
9.50144e-176
5.03774e-178
2.66309e-180
1.40489e-182
7.40186e-185
3.89727e-187
2.05165e-189
1.08021e-191
5.68912e-194
1.00474e-175
5.4559e-178
2.94793e-180
1.58565e-182
8.49505e-185
4.53559e-187
2.4146e-189
1.2824e-191
6.79787e-194
3.59795e-196
3.38711e-171
1.78078e-173
9.45615e-176
5.0593e-178
2.72122e-180
1.46851e-182
7.93782e-185
4.29192e-187
2.31879e-189
1.25073e-191
2.37972e-173
1.25646e-175
6.63583e-178
3.5097e-180
1.86019e-182
9.88245e-185
5.26212e-187
2.80751e-189
1.50023e-191
8.02477e-194
1.4763e-175
7.95747e-178
4.27139e-180
2.28561e-182
1.22033e-184
6.50634e-187
3.46623e-189
1.84605e-191
9.83192e-194
5.23732e-196
8.4156e-178
4.62647e-180
2.53039e-182
1.37753e-184
7.46827e-187
4.03449e-189
2.17291e-191
1.16737e-193
6.2587e-196
3.34998e-198
)
;

boundaryField
{
    inlet
    {
        type            zeroGradient;
    }
    outlet
    {
        type            zeroGradient;
    }
    bottom
    {
        type            fixedValue;
        value           uniform 0;
    }
    top
    {
        type            symmetryPlane;
    }
    side1
    {
        type            symmetryPlane;
    }
    side2
    {
        type            symmetryPlane;
    }
    procBoundary30to22
    {
        type            processor;
        value           nonuniform List<scalar> 
50
(
1.7856e-160
8.88609e-163
4.40895e-165
2.18135e-167
1.07639e-169
5.29868e-172
2.60275e-174
1.27607e-176
6.24615e-179
3.05311e-181
5.41621e-162
2.73072e-164
1.3724e-166
6.87666e-169
3.43603e-171
1.71246e-173
8.51499e-176
4.22533e-178
2.09299e-180
1.03515e-182
8.40905e-164
4.29503e-166
2.18643e-168
1.1095e-170
5.61344e-173
2.83237e-175
1.42562e-177
7.15992e-180
3.58904e-182
1.79606e-184
8.84141e-166
4.57426e-168
2.3583e-170
1.21179e-172
6.20729e-175
3.1705e-177
1.61519e-179
8.20928e-182
4.16383e-184
2.10811e-186
7.11629e-168
3.72909e-170
1.94698e-172
1.01298e-174
5.25319e-177
2.71601e-179
1.40038e-181
7.20253e-184
3.69635e-186
1.89327e-188
)
;
    }
    procBoundary30to29
    {
        type            processor;
        value           nonuniform List<scalar> 
20
(
1.72117e-160
8.45663e-163
4.35803e-165
2.29948e-167
5.21736e-162
2.59555e-164
1.35448e-166
7.2383e-169
8.09509e-164
4.07745e-166
2.15462e-168
1.16613e-170
8.50592e-166
4.33734e-168
2.32052e-170
1.27179e-172
6.84199e-168
3.53176e-170
1.91297e-172
1.06162e-174
)
;
    }
    procBoundary30to31
    {
        type            processor;
        value           nonuniform List<scalar> 
20
(
5.53467e-188
3.94295e-190
2.54544e-192
1.5373e-194
1.88241e-189
1.35675e-191
8.86004e-194
5.41242e-196
3.27627e-191
2.38903e-193
1.57815e-195
9.75137e-198
3.85725e-193
2.84532e-195
1.90111e-197
1.18808e-199
3.47461e-195
2.59272e-197
1.75214e-199
1.10743e-201
)
;
    }
}


// ************************************************************************* //
