/*--------------------------------*- C++ -*----------------------------------*\
| =========                 |                                                 |
| \\      /  F ield         | OpenFOAM: The Open Source CFD Toolbox           |
|  \\    /   O peration     | Version:  2.4.0                                 |
|   \\  /    A nd           | Web:      www.OpenFOAM.org                      |
|    \\/     M anipulation  |                                                 |
\*---------------------------------------------------------------------------*/
FoamFile
{
    version     2.0;
    format      ascii;
    class       surfaceScalarField;
    location    "0.01";
    object      phia;
}
// * * * * * * * * * * * * * * * * * * * * * * * * * * * * * * * * * * * * * //

dimensions      [0 3 -1 0 0 0 0];

internalField   nonuniform List<scalar> 
490
(
2.82152e-06
2.68346e-08
3.68411e-08
4.23798e-06
-4.7738e-08
-6.15016e-07
4.60712e-06
6.74291e-08
1.80553e-07
4.10968e-06
1.32446e-07
2.03558e-07
4.08573e-06
4.84714e-07
4.29238e-08
4.41217e-06
6.50469e-07
1.49472e-08
4.47696e-06
6.77434e-07
1.056e-08
4.506e-06
6.88276e-07
8.81469e-09
4.52265e-06
6.94062e-07
7.88228e-09
6.97622e-07
7.3033e-09
2.82498e-06
2.66192e-08
3.45561e-08
4.23588e-06
-4.65984e-08
-6.06556e-07
4.60303e-06
6.76732e-08
1.79004e-07
4.10925e-06
1.34432e-07
2.02543e-07
4.0808e-06
4.83964e-07
4.33244e-08
4.40217e-06
6.4703e-07
1.55451e-08
4.46987e-06
6.75196e-07
1.09387e-08
4.50055e-06
6.86665e-07
9.08823e-09
4.51824e-06
6.92827e-07
8.09563e-09
6.96639e-07
7.47797e-09
2.82828e-06
2.64136e-08
3.23492e-08
4.23376e-06
-4.54856e-08
-5.98325e-07
4.59903e-06
6.79209e-08
1.77475e-07
4.10887e-06
1.36354e-07
2.01555e-07
4.0761e-06
4.83205e-07
4.37234e-08
4.39253e-06
6.43697e-07
1.61281e-08
4.46293e-06
6.72988e-07
1.13124e-08
4.49519e-06
6.85059e-07
9.35927e-09
4.51388e-06
6.91585e-07
8.30753e-09
6.95642e-07
7.65169e-09
2.83145e-06
3.0215e-08
4.2316e-06
-5.90301e-07
4.59512e-06
1.75965e-07
4.10852e-06
2.0059e-07
4.07164e-06
4.41207e-08
4.38321e-06
1.66973e-08
4.45614e-06
1.1681e-08
4.48992e-06
9.62786e-09
4.50957e-06
8.51799e-09
7.82446e-09
2.82545e-06
2.65962e-08
3.43869e-08
4.23606e-06
-4.65214e-08
-6.06078e-07
4.6028e-06
6.76845e-08
1.79022e-07
4.10913e-06
1.3454e-07
2.02466e-07
4.08083e-06
4.83816e-07
4.33219e-08
4.4022e-06
6.46825e-07
1.55438e-08
4.46989e-06
6.74966e-07
1.09379e-08
4.50057e-06
6.86414e-07
9.08763e-09
4.51825e-06
6.92559e-07
8.09514e-09
6.96354e-07
7.47754e-09
2.82874e-06
2.63921e-08
3.21869e-08
4.23392e-06
-4.54114e-08
-5.97851e-07
4.5988e-06
6.79349e-08
1.77494e-07
4.10875e-06
1.36465e-07
2.01479e-07
4.07613e-06
4.83077e-07
4.37208e-08
4.39256e-06
6.4352e-07
1.61268e-08
4.46296e-06
6.72788e-07
1.13115e-08
4.49521e-06
6.84842e-07
9.35863e-09
4.51389e-06
6.91353e-07
8.30701e-09
6.95396e-07
7.65123e-09
2.83189e-06
2.61972e-08
3.00593e-08
4.23176e-06
-4.43261e-08
-5.89839e-07
4.59489e-06
6.81889e-08
1.75985e-07
4.1084e-06
1.3833e-07
2.00516e-07
4.07167e-06
4.82329e-07
4.4118e-08
4.38325e-06
6.4031e-07
1.66959e-08
4.45617e-06
6.70635e-07
1.16801e-08
4.48994e-06
6.8327e-07
9.62718e-09
4.50959e-06
6.90138e-07
8.51744e-09
6.94421e-07
7.82398e-09
2.83493e-06
2.79994e-08
4.22957e-06
-5.82023e-07
4.59106e-06
1.74494e-07
4.10809e-06
1.99575e-07
4.06743e-06
4.45136e-08
4.37425e-06
1.72518e-08
4.44952e-06
1.20439e-08
4.48474e-06
9.89334e-09
4.50533e-06
8.72645e-09
7.99581e-09
2.8293e-06
2.6366e-08
3.199e-08
4.23412e-06
-4.53211e-08
-5.97287e-07
4.59852e-06
6.7952e-08
1.77513e-07
4.1086e-06
1.36599e-07
2.01388e-07
4.07616e-06
4.82919e-07
4.37185e-08
4.39257e-06
6.43295e-07
1.61263e-08
4.46296e-06
6.72538e-07
1.13112e-08
4.49522e-06
6.84573e-07
9.35842e-09
4.5139e-06
6.91067e-07
8.30684e-09
6.95093e-07
7.65108e-09
2.83243e-06
2.61728e-08
2.98721e-08
4.23195e-06
-4.42398e-08
-5.89289e-07
4.59462e-06
6.8208e-08
1.76004e-07
4.10826e-06
1.38465e-07
2.00428e-07
4.0717e-06
4.82192e-07
4.41157e-08
4.38326e-06
6.40115e-07
1.66954e-08
4.45618e-06
6.70418e-07
1.16798e-08
4.48994e-06
6.83037e-07
9.62695e-09
4.50959e-06
6.8989e-07
8.51725e-09
6.94159e-07
7.82382e-09
2.83544e-06
2.59882e-08
2.78212e-08
4.22975e-06
-4.31811e-08
-5.81491e-07
4.59079e-06
6.84678e-08
1.74514e-07
4.10796e-06
1.40274e-07
1.9949e-07
4.06745e-06
4.81454e-07
4.45113e-08
4.37426e-06
6.37023e-07
1.72512e-08
4.44953e-06
6.6832e-07
1.20436e-08
4.48475e-06
6.815e-07
9.89309e-09
4.50534e-06
6.887e-07
8.72625e-09
6.93205e-07
7.99564e-09
2.83834e-06
2.58329e-08
4.22753e-06
-5.73875e-07
4.58703e-06
1.73043e-07
4.10768e-06
1.98573e-07
4.06341e-06
4.49051e-08
4.36557e-06
1.77946e-08
4.44302e-06
1.24027e-08
4.47963e-06
1.01569e-08
4.50113e-06
8.93387e-09
8.16654e-09
2.83307e-06
2.61439e-08
2.96094e-08
4.23218e-06
-4.4138e-08
-5.87778e-07
4.59429e-06
6.82308e-08
1.75765e-07
4.1081e-06
1.38621e-07
2.00027e-07
4.07172e-06
4.82026e-07
4.40471e-08
4.38326e-06
6.39875e-07
1.6669e-08
4.45618e-06
6.70154e-07
1.16606e-08
4.48995e-06
6.82753e-07
9.61044e-09
4.50959e-06
6.89589e-07
8.50201e-09
6.93842e-07
7.80921e-09
2.83605e-06
2.59613e-08
2.75718e-08
4.22996e-06
-4.30848e-08
-5.79966e-07
4.59048e-06
6.84918e-08
1.74263e-07
4.1078e-06
1.40429e-07
1.99078e-07
4.06747e-06
4.8131e-07
4.44384e-08
4.37427e-06
6.36816e-07
1.72225e-08
4.44953e-06
6.68091e-07
1.20228e-08
4.48475e-06
6.81255e-07
9.87529e-09
4.50534e-06
6.8844e-07
8.7099e-09
6.92932e-07
7.98004e-09
2.83891e-06
2.57865e-08
2.55959e-08
4.22773e-06
-4.20521e-08
-5.72342e-07
4.58673e-06
6.87568e-08
1.7278e-07
4.10753e-06
1.42184e-07
1.9815e-07
4.06344e-06
4.80582e-07
4.48279e-08
4.36557e-06
6.33835e-07
1.77635e-08
4.44302e-06
6.66045e-07
1.23802e-08
4.47963e-06
6.79752e-07
1.01378e-08
4.50114e-06
6.87276e-07
8.91637e-09
6.91999e-07
8.14992e-09
2.84168e-06
2.36783e-08
4.22549e-06
-5.64888e-07
4.58305e-06
1.71315e-07
4.10729e-06
1.9724e-07
4.05959e-06
4.52156e-08
4.35717e-06
1.82926e-08
4.43665e-06
1.27331e-08
4.47459e-06
1.03979e-08
4.49698e-06
9.12145e-09
8.31887e-09
2.83678e-06
2.59293e-08
4.23022e-06
-4.29702e-08
4.59011e-06
6.8521e-08
4.10761e-06
1.4061e-07
4.06749e-06
4.81134e-07
4.37426e-06
6.36558e-07
4.44952e-06
6.67808e-07
4.48474e-06
6.80954e-07
4.50533e-06
6.88122e-07
6.92597e-07
2.8396e-06
2.57569e-08
4.22797e-06
-4.19443e-08
4.58638e-06
6.87863e-08
4.10735e-06
1.42362e-07
4.06345e-06
4.8043e-07
4.36556e-06
6.33612e-07
4.44302e-06
6.65801e-07
4.47963e-06
6.79491e-07
4.50113e-06
6.87001e-07
6.91711e-07
2.84232e-06
2.55918e-08
4.2257e-06
-4.09369e-08
4.58271e-06
6.90562e-08
4.10712e-06
1.44064e-07
4.05961e-06
4.79711e-07
4.35716e-06
6.30737e-07
4.43664e-06
6.63807e-07
4.47458e-06
6.78021e-07
4.49698e-06
6.85862e-07
6.90799e-07
2.84497e-06
4.22343e-06
4.57911e-06
4.10692e-06
4.05594e-06
4.34902e-06
4.4304e-06
4.46962e-06
4.49287e-06
)
;

boundaryField
{
    inlet
    {
        type            calculated;
        value           nonuniform 0();
    }
    outlet
    {
        type            calculated;
        value           nonuniform 0();
    }
    bottom
    {
        type            calculated;
        value           uniform 0;
    }
    top
    {
        type            symmetryPlane;
        value           uniform 0;
    }
    side1
    {
        type            symmetryPlane;
        value           nonuniform 0();
    }
    side2
    {
        type            symmetryPlane;
        value           nonuniform 0();
    }
    procBoundary19to11
    {
        type            processor;
        value           nonuniform List<scalar> 
50
(
-2.70546e-08
4.88762e-08
-6.72036e-08
-1.30465e-07
-4.85457e-07
-6.54016e-07
-6.79698e-07
-6.89886e-07
-6.95282e-07
-6.98582e-07
-2.68023e-08
4.76189e-08
-6.74577e-08
-1.32647e-07
-4.84547e-07
-6.50228e-07
-6.77164e-07
-6.87982e-07
-6.93746e-07
-6.97286e-07
-2.65585e-08
4.63781e-08
-6.77254e-08
-1.34793e-07
-4.83637e-07
-6.46562e-07
-6.74673e-07
-6.86099e-07
-6.92222e-07
-6.95997e-07
-2.63232e-08
4.51548e-08
-6.80059e-08
-1.36901e-07
-4.82731e-07
-6.43013e-07
-6.72227e-07
-6.84238e-07
-6.90712e-07
-6.94718e-07
-2.60959e-08
4.39472e-08
-6.82991e-08
-1.38975e-07
-4.81827e-07
-6.39573e-07
-6.69822e-07
-6.82399e-07
-6.89213e-07
-6.93446e-07
)
;
    }
    procBoundary19to18
    {
        type            processor;
        value           nonuniform List<scalar> 
20
(
-1.91761e-06
-1.91932e-06
-1.92096e-06
-1.92255e-06
-1.91953e-06
-1.92117e-06
-1.92275e-06
-1.92427e-06
-1.92142e-06
-1.92299e-06
-1.9245e-06
-1.92597e-06
-1.92327e-06
-1.92477e-06
-1.92623e-06
-1.92764e-06
-1.9251e-06
-1.92654e-06
-1.92793e-06
-1.92929e-06
)
;
    }
    procBoundary19to20
    {
        type            processor;
        value           nonuniform List<scalar> 
20
(
4.53352e-06
4.52974e-06
4.52601e-06
4.52232e-06
4.52982e-06
4.52607e-06
4.52237e-06
4.51872e-06
4.52615e-06
4.52244e-06
4.51877e-06
4.51515e-06
4.52251e-06
4.51883e-06
4.5152e-06
4.51162e-06
4.5189e-06
4.51525e-06
4.51165e-06
4.5081e-06
)
;
    }
    procBoundary19to27
    {
        type            processor;
        value           nonuniform List<scalar> 
50
(
2.62531e-08
-4.45884e-08
6.80641e-08
1.37744e-07
4.82422e-07
6.40488e-07
6.70828e-07
6.83476e-07
6.90355e-07
6.94649e-07
2.60505e-08
-4.34758e-08
6.83222e-08
1.39613e-07
4.81551e-07
6.37216e-07
6.68528e-07
6.8172e-07
6.88931e-07
6.93448e-07
2.58546e-08
-4.2377e-08
6.85899e-08
1.41452e-07
4.80681e-07
6.34037e-07
6.66264e-07
6.79982e-07
6.87518e-07
6.92252e-07
2.56656e-08
-4.12936e-08
6.88665e-08
1.43259e-07
4.79814e-07
6.30952e-07
6.64038e-07
6.78265e-07
6.86117e-07
6.91065e-07
2.54831e-08
-4.02233e-08
6.91523e-08
1.45037e-07
4.78948e-07
6.27952e-07
6.61848e-07
6.76565e-07
6.84727e-07
6.89884e-07
)
;
    }
}


// ************************************************************************* //
