/*--------------------------------*- C++ -*----------------------------------*\
| =========                 |                                                 |
| \\      /  F ield         | OpenFOAM: The Open Source CFD Toolbox           |
|  \\    /   O peration     | Version:  2.4.0                                 |
|   \\  /    A nd           | Web:      www.OpenFOAM.org                      |
|    \\/     M anipulation  |                                                 |
\*---------------------------------------------------------------------------*/
FoamFile
{
    version     2.0;
    format      ascii;
    class       volVectorField;
    location    "0.01";
    object      Ua;
}
// * * * * * * * * * * * * * * * * * * * * * * * * * * * * * * * * * * * * * //

dimensions      [0 1 -1 0 0 0 0];

internalField   nonuniform List<vector> 
200
(
(0.874954 0.00375668 -0.577885)
(0.869048 0.0160504 0.194035)
(0.881833 0.0150595 0.198083)
(1.68598 -0.0530706 -0.304879)
(1.75125 -0.0320114 -0.324478)
(2.10788 0.661122 0.00250477)
(2.13441 0.737576 -0.0198614)
(2.15881 0.812835 -0.0592059)
(2.31781 0.933577 -0.107328)
(2.32192 0.936684 -0.108568)
(0.87377 0.00399772 -0.570832)
(0.869066 0.0160224 0.192179)
(0.882522 0.0150019 0.196732)
(1.68374 -0.0504679 -0.301682)
(1.7555 -0.0235696 -0.320815)
(2.1118 0.673533 -0.00263376)
(2.13664 0.744756 -0.0236273)
(2.15942 0.813298 -0.0593894)
(2.31715 0.933084 -0.10713)
(2.32158 0.936433 -0.108466)
(0.87262 0.00423107 -0.564011)
(0.869082 0.0159944 0.190332)
(0.883185 0.0149498 0.195402)
(1.68161 -0.0476676 -0.298431)
(1.76013 -0.0143448 -0.316893)
(2.11507 0.683844 -0.00690744)
(2.13851 0.750645 -0.026712)
(2.16002 0.813748 -0.0595678)
(2.3165 0.932592 -0.106933)
(2.32124 0.936179 -0.108364)
(0.871498 0.00445776 -0.557399)
(0.869097 0.0159664 0.188493)
(0.883836 0.0149026 0.194086)
(1.67963 -0.044618 -0.295112)
(1.76517 -0.00427051 -0.31269)
(2.11788 0.692634 -0.0105521)
(2.14012 0.755577 -0.0292914)
(2.16061 0.814187 -0.0597416)
(2.31585 0.932102 -0.106737)
(2.32089 0.935925 -0.108262)
(0.873629 0.00402142 -0.570232)
(0.869062 0.0160172 0.192182)
(0.882609 0.0149792 0.196673)
(1.68337 -0.0516087 -0.302148)
(1.75362 -0.0275142 -0.322007)
(2.10792 0.660861 0.0025826)
(2.1347 0.737794 -0.0199544)
(2.15944 0.813287 -0.0593812)
(2.31713 0.933049 -0.107119)
(2.32155 0.936394 -0.108455)
(0.872478 0.00425491 -0.563418)
(0.869078 0.01599 0.190335)
(0.88327 0.0149269 0.195343)
(1.68119 -0.0488975 -0.298918)
(1.75811 -0.0185845 -0.318169)
(2.11182 0.673215 -0.00253606)
(2.13692 0.744942 -0.0237037)
(2.16005 0.813742 -0.0595617)
(2.31648 0.932563 -0.106924)
(2.32121 0.936147 -0.108354)
(0.871358 0.00448138 -0.556818)
(0.869092 0.0159627 0.188496)
(0.883911 0.0148797 0.194033)
(1.67913 -0.0459791 -0.295634)
(1.76298 -0.00887184 -0.314074)
(2.11509 0.68352 -0.00680826)
(2.13878 0.750812 -0.0267775)
(2.16063 0.814184 -0.059737)
(2.31583 0.932077 -0.106729)
(2.32087 0.935897 -0.108253)
(0.870264 0.00470175 -0.55041)
(0.869105 0.0159353 0.186666)
(0.884544 0.0148371 0.192733)
(1.67723 -0.0428029 -0.292281)
(1.76825 0.00168724 -0.309703)
(2.11791 0.692326 -0.0104599)
(2.14038 0.755731 -0.02935)
(2.16121 0.814615 -0.0599077)
(2.31519 0.931593 -0.106536)
(2.32054 0.935645 -0.108152)
(0.872319 0.00428204 -0.562718)
(0.869074 0.0159845 0.190334)
(0.883376 0.014901 0.19527)
(1.6808 -0.0501268 -0.29942)
(1.75608 -0.0228689 -0.319443)
(2.10795 0.660572 0.0026734)
(2.13498 0.73801 -0.0200474)
(2.16007 0.813733 -0.0595535)
(2.31645 0.932525 -0.106912)
(2.32118 0.936106 -0.108342)
(0.871201 0.00450828 -0.556135)
(0.869088 0.015958 0.188495)
(0.88401 0.014854 0.193962)
(1.67868 -0.0473083 -0.296158)
(1.7608 -0.0134608 -0.315437)
(2.11183 0.672887 -0.00243224)
(2.13719 0.745131 -0.0237813)
(2.16066 0.81418 -0.0597312)
(2.31581 0.932045 -0.106719)
(2.32085 0.935862 -0.108243)
(0.870109 0.00472813 -0.549748)
(0.8691 0.0159313 0.186664)
(0.884629 0.0148115 0.19267)
(1.67669 -0.0442714 -0.292842)
(1.7659 -0.0032679 -0.311177)
(2.1151 0.683195 -0.00670729)
(2.13904 0.750981 -0.0268451)
(2.16124 0.814614 -0.0599036)
(2.31517 0.931565 -0.106527)
(2.32051 0.935615 -0.108143)
(0.869041 0.00494243 -0.543537)
(0.869111 0.0159046 0.184842)
(0.885247 0.0147736 0.191385)
(1.67487 -0.040968 -0.289457)
(1.7714 0.00776803 -0.306645)
(2.11793 0.692024 -0.0103686)
(2.14064 0.755889 -0.0294112)
(2.1618 0.815037 -0.0600715)
(2.31453 0.931088 -0.106335)
(2.32018 0.935366 -0.108042)
(0.871025 0.00453835 -0.555349)
(0.869083 0.0159521 0.188492)
(0.884133 0.014825 0.193877)
(1.67828 -0.0486282 -0.2967)
(1.7586 -0.0180916 -0.316795)
(2.10797 0.660268 0.00277155)
(2.13526 0.738226 -0.0201405)
(2.1607 0.814171 -0.0597226)
(2.31578 0.932004 -0.106707)
(2.32081 0.935818 -0.108229)
(0.869938 0.00475758 -0.548989)
(0.869094 0.0159264 0.186661)
(0.884741 0.014783 0.19259)
(1.67621 -0.0457037 -0.293409)
(1.76356 -0.0082156 -0.312629)
(2.11185 0.672557 -0.00232602)
(2.13746 0.74532 -0.0238602)
(2.16128 0.814611 -0.0598977)
(2.31514 0.931531 -0.106516)
(2.32048 0.935578 -0.108131)
(0.868875 0.00497105 -0.542807)
(0.869105 0.0159004 0.184839)
(0.885341 0.0147454 0.191315)
(1.6743 -0.0425487 -0.290062)
(1.76888 0.00244811 -0.308211)
(2.11512 0.682876 -0.00660688)
(2.13931 0.751154 -0.0269147)
(2.16184 0.815037 -0.0600674)
(2.31451 0.931058 -0.106326)
(2.32015 0.935334 -0.108032)
(0.867832 0.00517951 -0.536787)
(0.869114 0.0158743 0.183026)
(0.885943 0.0147121 0.190045)
(1.67256 -0.0391178 -0.286646)
(1.77461 0.013951 -0.303525)
(2.11795 0.691732 -0.0102795)
(2.14089 0.756051 -0.0294748)
(2.16239 0.815453 -0.0602326)
(2.31388 0.930586 -0.106137)
(2.31982 0.935088 -0.107933)
(0.869745 0.00479078 -0.54649)
(0.869089 0.0159202 0.186106)
(0.884883 0.0147508 0.191891)
(1.6758 -0.0471115 -0.29307)
(1.7612 -0.0131841 -0.313134)
(2.10799 0.659959 0.00286421)
(2.13554 0.738442 -0.0201736)
(2.16132 0.814603 -0.0597201)
(2.31511 0.931487 -0.106204)
(2.32045 0.935531 -0.107796)
(0.868688 0.00500327 -0.540275)
(0.869098 0.0158953 0.184259)
(0.885466 0.014714 0.190598)
(1.67379 -0.0440818 -0.289713)
(1.76637 -0.00284985 -0.308778)
(2.11186 0.672231 -0.00221257)
(2.13773 0.745512 -0.0238652)
(2.16188 0.815036 -0.0598824)
(2.31448 0.93102 -0.105999)
(2.32012 0.935294 -0.107682)
(0.867652 0.00521059 -0.534223)
(0.869107 0.0158699 0.182421)
(0.886047 0.0146811 0.189312)
(1.67194 -0.0408085 -0.286301)
(1.77192 0.00827598 -0.304174)
(2.11514 0.682567 -0.00648609)
(2.13957 0.75133 -0.026897)
(2.16243 0.815455 -0.0600391)
(2.31386 0.930553 -0.105794)
(2.31979 0.935054 -0.107567)
(0.866633 0.00541341 -0.528319)
(0.869114 0.0158444 0.180593)
(0.886635 0.0146524 0.18803)
(1.67029 -0.0372496 -0.282822)
(1.77787 0.0202366 -0.299307)
(2.11798 0.691452 -0.0101567)
(2.14115 0.756217 -0.0294381)
(2.16297 0.815864 -0.0601912)
(2.31324 0.930087 -0.10559)
(2.31946 0.934811 -0.107451)
)
;

boundaryField
{
    inlet
    {
        type            calculated;
        value           nonuniform 0();
    }
    outlet
    {
        type            calculated;
        value           nonuniform 0();
    }
    bottom
    {
        type            calculated;
        value           uniform (0 0 0);
    }
    top
    {
        type            symmetryPlane;
    }
    side1
    {
        type            symmetryPlane;
    }
    side2
    {
        type            symmetryPlane;
    }
    procBoundary19to11
    {
        type            processor;
        value           nonuniform List<vector> 
50
(
(0.875986 0.00353905 -0.584506)
(0.869028 0.0160783 0.195898)
(0.881227 0.0151123 0.199388)
(1.68857 -0.0554343 -0.308119)
(1.74752 -0.0393972 -0.327723)
(2.10317 0.646044 0.00882076)
(2.13173 0.728788 -0.0152457)
(2.15819 0.812372 -0.0590221)
(2.31847 0.934072 -0.107526)
(2.32225 0.936932 -0.108668)
(0.874586 0.00381894 -0.576425)
(0.869044 0.0160443 0.194037)
(0.882065 0.0150237 0.197933)
(1.68599 -0.0540749 -0.305458)
(1.74969 -0.0353265 -0.325392)
(2.10327 0.645935 0.00886147)
(2.13205 0.729107 -0.0153926)
(2.15885 0.812838 -0.0592027)
(2.31778 0.933536 -0.107315)
(2.32188 0.936638 -0.108554)
(0.873202 0.00409432 -0.568491)
(0.869058 0.0160107 0.19218)
(0.882897 0.0149372 0.196486)
(1.68345 -0.0526845 -0.302796)
(1.75196 -0.0310724 -0.322947)
(2.10335 0.645794 0.00891468)
(2.13237 0.729421 -0.0155372)
(2.1595 0.813298 -0.0593803)
(2.31709 0.933004 -0.107105)
(2.32151 0.936344 -0.108439)
(0.871836 0.00436495 -0.560709)
(0.869068 0.0159776 0.19033)
(0.88372 0.0148527 0.195046)
(1.68097 -0.0512663 -0.300137)
(1.75432 -0.0266502 -0.320396)
(2.10343 0.645637 0.0089746)
(2.13268 0.72973 -0.0156794)
(2.16015 0.81375 -0.0595545)
(2.31641 0.932475 -0.106897)
(2.32114 0.936052 -0.108325)
(0.870487 0.00463129 -0.551523)
(0.869076 0.0159448 0.187961)
(0.884539 0.01477 0.193042)
(1.67854 -0.0498197 -0.2966)
(1.75677 -0.0220635 -0.316855)
(2.1035 0.645473 0.00901051)
(2.13299 0.730033 -0.0157749)
(2.16079 0.814196 -0.0595674)
(2.31574 0.931951 -0.106408)
(2.32077 0.935761 -0.107909)
)
;
    }
    procBoundary19to18
    {
        type            processor;
        value           nonuniform List<vector> 
20
(
(0.556345 0.0483232 -0.0252287)
(0.556953 0.0481968 -0.0257728)
(0.557525 0.0480761 -0.0262527)
(0.558068 0.0479606 -0.0266786)
(0.557097 0.0481596 -0.0260356)
(0.557671 0.0480408 -0.0265227)
(0.558212 0.0479272 -0.0269508)
(0.558727 0.047818 -0.0273293)
(0.557833 0.0479999 -0.0268166)
(0.558374 0.0478887 -0.0272483)
(0.558886 0.0477818 -0.0276261)
(0.559373 0.0476789 -0.0279586)
(0.558554 0.0478442 -0.0275712)
(0.559063 0.0477403 -0.0279492)
(0.559545 0.0476401 -0.0282781)
(0.560005 0.0475434 -0.0285659)
(0.559261 0.0476923 -0.0282141)
(0.559738 0.0475956 -0.0285343)
(0.560191 0.0475019 -0.02881)
(0.560625 0.0474111 -0.0290487)
)
;
    }
    procBoundary19to20
    {
        type            processor;
        value           nonuniform List<vector> 
20
(
(2.32333 0.937753 -0.108995)
(2.3231 0.937584 -0.108926)
(2.32286 0.937409 -0.108855)
(2.32262 0.937229 -0.108782)
(2.32308 0.93755 -0.108916)
(2.32285 0.937383 -0.108848)
(2.32261 0.937209 -0.108777)
(2.32237 0.937031 -0.108705)
(2.32282 0.937346 -0.108838)
(2.32259 0.937182 -0.10877)
(2.32236 0.93701 -0.108699)
(2.32212 0.936833 -0.108628)
(2.32257 0.937144 -0.108759)
(2.32234 0.936981 -0.108692)
(2.32211 0.936811 -0.108622)
(2.32187 0.936636 -0.10855)
(2.32232 0.936941 -0.108341)
(2.32209 0.936781 -0.108257)
(2.32185 0.936612 -0.10817)
(2.32161 0.936438 -0.108081)
)
;
    }
    procBoundary19to27
    {
        type            processor;
        value           nonuniform List<vector> 
50
(
(0.871383 0.00450915 -0.554828)
(0.86912 0.0159382 0.186689)
(0.883868 0.0149097 0.193171)
(1.67602 -0.0417931 -0.291121)
(1.76909 0.00368423 -0.309591)
(2.11987 0.699044 -0.0135009)
(2.14119 0.758852 -0.0310037)
(2.16095 0.814438 -0.0598406)
(2.31521 0.931621 -0.106544)
(2.32056 0.935673 -0.10816)
(0.870244 0.00473432 -0.54837)
(0.869127 0.0159075 0.18487)
(0.884487 0.0148534 0.191877)
(1.67345 -0.0399554 -0.2882)
(1.77214 0.00960396 -0.306675)
(2.11985 0.698611 -0.0133813)
(2.14141 0.75891 -0.0310123)
(2.1615 0.814835 -0.0599946)
(2.31456 0.931117 -0.106345)
(2.3202 0.935396 -0.108051)
(0.869115 0.00495666 -0.542015)
(0.869132 0.0158772 0.183055)
(0.885099 0.0147989 0.190588)
(1.67091 -0.0381103 -0.285291)
(1.77524 0.0156033 -0.303708)
(2.11982 0.698187 -0.0132629)
(2.14163 0.758976 -0.0310258)
(2.16206 0.815226 -0.0601462)
(2.31391 0.930617 -0.106147)
(2.31985 0.93512 -0.107943)
(0.867996 0.00517588 -0.53577)
(0.869134 0.0158474 0.181247)
(0.885705 0.0147462 0.189306)
(1.66841 -0.036262 -0.2824)
(1.77837 0.021663 -0.3007)
(2.1198 0.697776 -0.013147)
(2.14185 0.759049 -0.0310435)
(2.1626 0.815612 -0.0602952)
(2.31326 0.93012 -0.10595)
(2.31949 0.934844 -0.107834)
(0.866886 0.0053924 -0.527711)
(0.869134 0.0158179 0.178799)
(0.886305 0.0146952 0.187321)
(1.66595 -0.0344073 -0.278471)
(1.78153 0.0277874 -0.296573)
(2.11978 0.69738 -0.012985)
(2.14207 0.759129 -0.0309526)
(2.16314 0.815992 -0.0602318)
(2.31262 0.929626 -0.105388)
(2.31914 0.934569 -0.107336)
)
;
    }
}


// ************************************************************************* //
