/*--------------------------------*- C++ -*----------------------------------*\
| =========                 |                                                 |
| \\      /  F ield         | OpenFOAM: The Open Source CFD Toolbox           |
|  \\    /   O peration     | Version:  2.4.0                                 |
|   \\  /    A nd           | Web:      www.OpenFOAM.org                      |
|    \\/     M anipulation  |                                                 |
\*---------------------------------------------------------------------------*/
FoamFile
{
    version     2.0;
    format      ascii;
    class       volVectorField;
    location    "0.01";
    object      Uc;
}
// * * * * * * * * * * * * * * * * * * * * * * * * * * * * * * * * * * * * * //

dimensions      [0 1 -1 0 0 0 0];

internalField   nonuniform List<vector> 
200
(
(3.15363e-24 1.35403e-26 -2.08289e-24)
(5.47991e-24 1.01208e-25 1.22351e-24)
(3.28399e-25 5.60824e-27 7.37673e-26)
(3.25656e-25 -1.02509e-26 -5.88891e-26)
(5.65361e-24 -1.03344e-25 -1.04752e-24)
(1.59143e-23 4.9914e-24 1.89108e-26)
(4.84602e-22 1.67461e-22 -4.50939e-24)
(8.11169e-21 3.05422e-21 -2.22465e-22)
(8.71515e-21 3.51033e-21 -4.03561e-22)
(4.66838e-22 1.88327e-22 -2.18283e-23)
(5.22105e-27 2.38876e-29 -3.4109e-27)
(9.01658e-27 1.66233e-28 1.99386e-27)
(5.79066e-28 9.84351e-30 1.29085e-28)
(5.72699e-28 -1.71659e-29 -1.02613e-28)
(9.41226e-27 -1.2637e-28 -1.72008e-27)
(3.04187e-26 9.70169e-27 -3.79372e-29)
(8.81314e-25 3.07194e-25 -9.7457e-27)
(1.39682e-23 5.2608e-24 -3.84159e-25)
(1.50026e-23 6.04132e-24 -6.9362e-25)
(8.6368e-25 3.48375e-25 -4.03519e-26)
(8.3338e-30 4.04081e-32 -5.38649e-30)
(1.43065e-29 2.63293e-31 3.13316e-30)
(9.80188e-31 1.65918e-32 2.16864e-31)
(9.67083e-31 -2.74133e-32 -1.71626e-31)
(1.51305e-29 -1.23311e-31 -2.72409e-30)
(5.53148e-29 1.78844e-29 -1.80648e-31)
(1.52938e-27 5.36831e-28 -1.91034e-29)
(2.30237e-26 8.67377e-27 -6.34935e-28)
(2.47228e-26 9.95305e-27 -1.14124e-27)
(1.52181e-27 6.13761e-28 -7.10437e-29)
(1.28975e-32 6.59713e-35 -8.24907e-33)
(2.20127e-32 4.04401e-34 4.77418e-33)
(1.6026e-33 2.70218e-35 3.51922e-34)
(1.57805e-33 -4.19196e-35 -2.77264e-34)
(2.36208e-32 -5.71462e-35 -4.18429e-33)
(9.6504e-32 3.15607e-32 -4.8082e-34)
(2.55166e-30 9.00874e-31 -3.49241e-32)
(3.65929e-29 1.37894e-29 -1.01181e-30)
(3.92863e-29 1.58123e-29 -1.8107e-30)
(2.57422e-30 1.03808e-30 -1.20078e-31)
(1.83155e-26 8.43085e-29 -1.19548e-26)
(3.16072e-26 5.82535e-28 6.98952e-27)
(2.0299e-27 3.44504e-29 4.52323e-28)
(2.01273e-27 -6.17061e-29 -3.61265e-28)
(3.28055e-26 -5.14715e-28 -6.02387e-27)
(9.77073e-26 3.06325e-26 1.1971e-28)
(2.78984e-24 9.64223e-25 -2.60785e-26)
(4.35366e-23 1.63967e-23 -1.19719e-24)
(4.67521e-23 1.88259e-23 -2.16132e-24)
(2.69094e-24 1.08539e-24 -1.25711e-25)
(3.24758e-29 1.58378e-31 -2.09718e-29)
(5.57102e-29 1.025e-30 1.2201e-29)
(3.8169e-30 6.45042e-32 8.44144e-31)
(3.77411e-30 -1.0977e-31 -6.71042e-31)
(5.85541e-29 -6.18959e-31 -1.05966e-29)
(1.9897e-28 6.34286e-29 -2.38941e-31)
(5.43269e-27 1.89387e-27 -6.02619e-29)
(8.07156e-26 3.04075e-26 -2.22568e-27)
(8.66542e-26 3.48851e-26 -3.99978e-27)
(5.33292e-27 2.15077e-27 -2.48941e-28)
(5.52728e-32 2.84267e-34 -3.53206e-32)
(9.42695e-32 1.73146e-33 2.04459e-32)
(6.86295e-33 1.1553e-34 1.50653e-33)
(6.76973e-33 -1.85373e-34 -1.1919e-33)
(1.00469e-31 -5.05592e-34 -1.78986e-32)
(3.84133e-31 1.24138e-31 -1.23649e-33)
(1.00507e-29 3.52827e-30 -1.25835e-31)
(1.42511e-28 5.37018e-29 -3.94012e-30)
(1.52967e-28 6.15662e-29 -7.04976e-30)
(1.0021e-29 4.041e-30 -4.67414e-31)
(9.08544e-35 4.90857e-37 -5.74621e-35)
(1.54084e-34 2.82519e-36 3.30941e-35)
(1.1878e-35 1.99239e-37 2.5881e-36)
(1.16946e-35 -2.98446e-37 -2.03795e-36)
(1.66763e-34 1.59123e-37 -2.9208e-35)
(7.09239e-34 2.31844e-34 -3.5028e-36)
(1.78088e-32 6.28801e-33 -2.44205e-34)
(2.4154e-31 9.10427e-32 -6.69539e-33)
(2.5923e-31 1.0431e-31 -1.19287e-32)
(1.80069e-32 7.26043e-33 -8.39237e-34)
(5.70849e-29 2.80219e-31 -3.68245e-29)
(9.78417e-29 1.79956e-30 2.14281e-29)
(6.70469e-30 1.13097e-31 1.48207e-30)
(6.64853e-30 -1.9828e-31 -1.18438e-30)
(1.02197e-28 -1.33088e-30 -1.85903e-29)
(3.20531e-28 1.00445e-28 4.06512e-31)
(8.62002e-27 2.97973e-27 -8.09417e-29)
(1.26031e-25 4.74778e-26 -3.47469e-27)
(1.35272e-25 5.4456e-26 -6.24328e-27)
(8.3245e-27 3.35718e-27 -3.88548e-28)
(1.0794e-31 5.58565e-34 -6.89039e-32)
(1.83941e-31 3.37749e-33 3.98946e-32)
(1.33933e-32 2.25048e-34 2.93866e-33)
(1.32432e-32 -3.73217e-34 -2.33641e-33)
(1.94721e-31 -1.48858e-33 -3.4883e-32)
(6.92885e-31 2.20772e-31 -7.98011e-34)
(1.78969e-29 6.23975e-30 -1.99145e-31)
(2.50318e-28 9.43247e-29 -6.92001e-30)
(2.68617e-28 1.0811e-28 -1.23787e-29)
(1.75962e-29 7.09551e-30 -8.20673e-31)
(1.95146e-34 1.06042e-36 -1.23296e-34)
(3.3069e-34 6.06183e-36 7.10251e-35)
(2.54955e-35 4.26876e-37 5.55285e-36)
(2.51497e-35 -6.64054e-37 -4.39251e-36)
(3.55274e-34 -6.57455e-37 -6.26044e-35)
(1.41563e-33 4.57259e-34 -4.48916e-36)
(3.51666e-32 1.23464e-32 -4.41342e-34)
(4.7137e-31 1.77669e-31 -1.30651e-32)
(5.05759e-31 2.03505e-31 -2.32713e-32)
(3.5129e-32 1.41638e-32 -1.63711e-33)
(3.39566e-37 1.93119e-39 -2.1238e-37)
(5.72281e-37 1.04727e-38 1.21713e-37)
(4.6573e-38 7.77243e-40 1.00688e-38)
(4.58592e-38 -1.12174e-39 -7.92556e-39)
(6.24896e-37 2.74032e-39 -1.08175e-37)
(2.75812e-36 9.01204e-37 -1.35027e-38)
(6.59574e-35 2.32905e-35 -9.0622e-37)
(8.48759e-34 3.19997e-34 -2.3585e-35)
(9.10611e-34 3.66319e-34 -4.18357e-35)
(6.68327e-35 2.69432e-35 -3.11215e-36)
(1.26572e-31 6.59482e-34 -8.06995e-32)
(2.15481e-31 3.95519e-33 4.67349e-32)
(1.56939e-32 2.63152e-34 3.44142e-33)
(1.55664e-32 -4.51038e-34 -2.75196e-33)
(2.26573e-31 -2.33086e-33 -4.08149e-32)
(7.45194e-31 2.33413e-31 9.79777e-34)
(1.89495e-29 6.55144e-30 -1.78738e-31)
(2.6071e-28 9.82379e-29 -7.20613e-30)
(2.79689e-28 1.12563e-28 -1.28876e-29)
(1.8321e-29 7.38755e-30 -8.54384e-31)
(2.54233e-34 1.39037e-36 -1.60438e-34)
(4.30412e-34 7.88743e-36 9.24425e-35)
(3.31913e-35 5.54589e-37 7.22507e-36)
(3.28258e-35 -8.9503e-37 -5.74591e-36)
(4.59048e-34 -2.1385e-36 -8.13764e-35)
(1.70432e-33 5.42774e-34 -1.87717e-36)
(4.17859e-32 1.45705e-32 -4.66451e-34)
(5.52288e-31 2.08164e-31 -1.53061e-32)
(5.92403e-31 2.38362e-31 -2.72556e-32)
(4.11457e-32 1.65892e-32 -1.91733e-33)
(4.86574e-37 2.78382e-39 -3.03975e-37)
(8.19298e-37 1.49892e-38 1.74247e-37)
(6.66878e-38 1.11069e-39 1.44107e-38)
(6.57992e-38 -1.67215e-39 -1.13993e-38)
(8.87547e-37 1.22835e-39 -1.54647e-37)
(3.67401e-36 1.18617e-36 -1.14763e-38)
(8.69106e-35 3.05161e-35 -1.09343e-36)
(1.10491e-33 4.16565e-34 -3.07004e-35)
(1.18507e-33 4.76718e-34 -5.44409e-35)
(8.69725e-35 3.50616e-35 -4.04967e-36)
(8.93544e-40 5.33297e-42 -5.52691e-40)
(1.49659e-39 2.73352e-41 3.15166e-40)
(1.28223e-40 2.12929e-42 2.75053e-41)
(1.26302e-40 -2.95396e-42 -2.16459e-41)
(1.64924e-39 1.29654e-41 -2.82082e-40)
(7.53336e-39 2.46043e-39 -3.65631e-41)
(1.72021e-37 6.07488e-38 -2.3683e-39)
(2.1064e-36 7.9434e-37 -5.86731e-38)
(2.25915e-36 9.08575e-37 -1.03626e-37)
(1.74652e-37 7.03997e-38 -8.12591e-39)
(2.24e-34 1.23385e-36 -1.40747e-34)
(3.78812e-34 6.93918e-36 8.11186e-35)
(2.92235e-35 4.87149e-37 6.33725e-36)
(2.89986e-35 -8.15234e-37 -5.07138e-36)
(4.01091e-34 -3.0025e-36 -7.13123e-35)
(1.37833e-33 4.31522e-34 1.87279e-36)
(3.32529e-32 1.14984e-32 -3.14128e-34)
(4.32132e-31 1.62871e-31 -1.19404e-32)
(4.63365e-31 1.86435e-31 -2.12565e-32)
(3.21854e-32 1.29761e-32 -1.49517e-33)
(4.7634e-37 2.74351e-39 -2.96256e-37)
(8.01224e-37 1.46539e-38 1.69869e-37)
(6.52393e-38 1.0841e-39 1.40429e-38)
(6.45466e-38 -1.69993e-39 -1.11722e-38)
(8.61193e-37 -1.38944e-39 -1.50544e-37)
(3.32557e-36 1.05857e-36 -3.48417e-39)
(7.76199e-35 2.70692e-35 -8.66534e-37)
(9.72654e-34 3.66693e-34 -2.69417e-35)
(1.04285e-33 4.19497e-34 -4.77606e-35)
(7.65393e-35 3.08547e-35 -3.55236e-36)
(9.62219e-40 5.7785e-42 -5.92449e-40)
(1.61e-39 2.93987e-41 3.37932e-40)
(1.3798e-40 2.28623e-42 2.94808e-41)
(1.36203e-40 -3.32442e-42 -2.33232e-41)
(1.75919e-39 8.21649e-42 -3.01987e-40)
(7.54426e-39 2.43457e-39 -2.31345e-41)
(1.70378e-37 5.983e-38 -2.14186e-39)
(2.0604e-36 7.76979e-37 -5.72063e-38)
(2.20904e-36 8.884e-37 -1.01002e-37)
(1.70786e-37 6.88396e-38 -7.91918e-39)
(1.85987e-42 1.16176e-44 -1.13382e-42)
(3.09598e-42 5.64413e-44 6.43312e-43)
(2.78574e-43 4.60368e-45 5.90775e-44)
(2.74558e-43 -6.12298e-45 -4.64895e-44)
(3.44419e-42 3.92033e-44 -5.79833e-43)
(1.62413e-41 5.30225e-42 -7.78842e-44)
(3.54929e-40 1.25355e-40 -4.87983e-42)
(4.14624e-39 1.56394e-39 -1.15382e-40)
(4.44546e-39 1.78739e-39 -2.02917e-40)
(3.61033e-40 1.45507e-40 -1.67251e-41)
)
;

boundaryField
{
    inlet
    {
        type            calculated;
        value           nonuniform 0();
    }
    outlet
    {
        type            calculated;
        value           nonuniform 0();
    }
    bottom
    {
        type            calculated;
        value           uniform (0 0 0);
    }
    top
    {
        type            symmetryPlane;
    }
    side1
    {
        type            symmetryPlane;
    }
    side2
    {
        type            symmetryPlane;
    }
    procBoundary19to11
    {
        type            processor;
        value           nonuniform List<vector> 
50
(
(1.82467e-21 7.37181e-24 -1.21752e-21)
(3.18829e-21 5.89883e-23 7.18711e-22)
(1.77413e-22 3.04248e-24 4.01417e-23)
(1.7722e-22 -5.81796e-24 -3.23377e-23)
(3.25675e-21 -7.34224e-23 -6.1076e-22)
(7.88125e-21 2.42093e-21 3.30541e-23)
(2.5229e-19 8.62518e-20 -1.80432e-21)
(4.46557e-18 1.6809e-18 -1.22124e-19)
(4.79914e-18 1.93349e-18 -2.22575e-19)
(2.3779e-19 9.59383e-20 -1.11272e-20)
(9.8466e-24 4.29959e-26 -6.48973e-24)
(1.70794e-23 3.15321e-25 3.81342e-24)
(1.02387e-24 1.74391e-26 2.29755e-25)
(1.02393e-24 -3.28406e-26 -1.8551e-25)
(1.7539e-23 -3.54115e-25 -3.26175e-24)
(4.52882e-23 1.39085e-23 1.90808e-25)
(1.35059e-21 4.61866e-22 -9.75075e-24)
(2.21306e-20 8.3325e-21 -6.06894e-22)
(2.37693e-20 9.57359e-21 -1.10054e-21)
(1.27304e-21 5.13538e-22 -5.95176e-23)
(2.8658e-26 1.34373e-28 -1.86575e-26)
(4.93488e-26 9.09157e-28 1.09128e-26)
(3.17116e-27 5.36509e-29 7.05732e-28)
(3.17529e-27 -9.9372e-29 -5.71125e-28)
(5.0966e-26 -9.03925e-28 -9.39482e-27)
(1.39641e-25 4.28742e-26 5.91844e-28)
(3.89957e-24 1.33393e-24 -2.84137e-26)
(5.9499e-23 2.24081e-23 -1.63605e-24)
(6.38657e-23 2.57162e-23 -2.95213e-24)
(3.67591e-24 1.48262e-24 -1.71705e-25)
(5.95988e-29 2.98389e-31 -3.83301e-29)
(1.01894e-28 1.87329e-30 2.23152e-29)
(6.98755e-30 1.1744e-31 1.54222e-30)
(7.00595e-30 -2.13668e-31 -1.25091e-30)
(1.05873e-28 -1.60834e-30 -1.93359e-29)
(3.06296e-28 9.4016e-29 1.30686e-30)
(8.04567e-27 2.75295e-27 -5.91516e-29)
(1.14893e-25 4.32813e-26 -3.16755e-27)
(1.2325e-25 4.96144e-26 -5.68769e-27)
(7.58485e-27 3.05876e-27 -3.53978e-28)
(9.93088e-32 5.28357e-34 -6.292e-32)
(1.6858e-31 3.09291e-33 3.64599e-32)
(1.22899e-32 2.05216e-34 2.68215e-33)
(1.23397e-32 -3.66247e-34 -2.18044e-33)
(1.76293e-31 -2.21409e-33 -3.17966e-32)
(5.36258e-31 1.64554e-31 2.2971e-33)
(1.33009e-29 4.55233e-30 -9.83687e-32)
(1.78546e-28 6.72768e-29 -4.92204e-30)
(1.91416e-28 7.7034e-29 -8.7956e-30)
(1.25402e-29 5.05637e-30 -5.83082e-31)
)
;
    }
    procBoundary19to18
    {
        type            processor;
        value           nonuniform List<vector> 
20
(
(2.01679e-24 1.75175e-25 -9.1456e-26)
(3.35147e-27 2.90024e-28 -1.55088e-28)
(5.36967e-30 4.63033e-31 -2.52847e-31)
(8.34141e-33 7.16863e-34 -3.98763e-34)
(1.17563e-26 1.01631e-27 -5.49426e-28)
(2.09239e-29 1.80251e-30 -9.95138e-31)
(3.5746e-32 3.06909e-33 -1.72583e-33)
(5.89787e-35 5.04763e-36 -2.88486e-36)
(3.67766e-29 3.16452e-30 -1.76796e-30)
(6.98021e-32 5.98654e-33 -3.4063e-33)
(1.26673e-34 1.08299e-35 -6.26152e-36)
(2.21251e-37 1.88586e-38 -1.10585e-38)
(8.18423e-32 7.01038e-33 -4.03988e-33)
(1.65012e-34 1.40909e-35 -8.24943e-36)
(3.1701e-37 2.69905e-38 -1.60209e-38)
(5.84359e-40 4.9611e-41 -2.98081e-41)
(1.4537e-34 1.23968e-35 -7.33377e-36)
(3.10307e-37 2.6386e-38 -1.58188e-38)
(6.29205e-40 5.3354e-41 -3.23593e-41)
(1.2208e-42 1.03241e-43 -6.32554e-44)
)
;
    }
    procBoundary19to20
    {
        type            processor;
        value           nonuniform List<vector> 
20
(
(1.34228e-23 5.41776e-24 -6.29708e-25)
(2.6397e-26 1.06536e-26 -1.23771e-27)
(4.92682e-29 1.98826e-29 -2.30883e-30)
(8.80129e-32 3.55152e-32 -4.12217e-33)
(8.26759e-26 3.33664e-26 -3.87622e-27)
(1.73376e-28 6.99658e-29 -8.12435e-30)
(3.43761e-31 1.38713e-31 -1.60997e-32)
(6.50145e-34 2.62321e-34 -3.04318e-35)
(2.72174e-28 1.09832e-28 -1.27529e-29)
(6.0634e-31 2.44662e-31 -2.83956e-32)
(1.27287e-33 5.1357e-34 -5.95776e-35)
(2.5411e-36 1.02518e-36 -1.18871e-37)
(6.35102e-31 2.5626e-31 -2.97399e-32)
(1.4979e-33 6.04347e-34 -7.01055e-35)
(3.3191e-36 1.33903e-36 -1.55258e-37)
(6.97498e-39 2.81369e-39 -3.2609e-40)
(1.17912e-33 4.75717e-34 -5.50084e-35)
(2.93538e-36 1.1842e-36 -1.36849e-37)
(6.84709e-39 2.76204e-39 -3.18989e-40)
(1.511e-41 6.09473e-42 -7.03436e-43)
)
;
    }
    procBoundary19to27
    {
        type            processor;
        value           nonuniform List<vector> 
50
(
(1.9169e-35 9.91937e-38 -1.22053e-35)
(3.26883e-35 5.99447e-37 7.02154e-36)
(2.51507e-36 4.2426e-38 5.49675e-37)
(2.41834e-36 -6.03034e-38 -4.2006e-37)
(3.5458e-35 7.38433e-38 -6.20516e-36)
(1.5604e-34 5.14555e-35 -9.93781e-37)
(4.01135e-33 1.42165e-33 -5.8083e-35)
(5.60363e-32 2.11195e-32 -1.55175e-33)
(6.02442e-32 2.42417e-32 -2.77239e-33)
(4.1836e-33 1.68687e-33 -1.94996e-34)
(1.42761e-37 7.76652e-40 -8.99586e-38)
(2.42064e-37 4.43047e-39 5.1489e-38)
(1.96572e-38 3.30109e-40 4.26435e-39)
(1.88697e-38 -4.50535e-40 -3.24973e-39)
(2.64819e-37 1.43516e-39 -4.58277e-38)
(1.206e-36 3.97448e-37 -7.61278e-39)
(2.95667e-35 1.04784e-35 -4.28192e-37)
(3.92625e-34 1.4801e-34 -1.08977e-35)
(4.22071e-34 1.69794e-34 -1.93925e-35)
(3.09663e-35 1.24841e-35 -1.44209e-36)
(5.62476e-40 3.20786e-42 -3.50783e-40)
(9.48371e-40 1.73248e-41 1.99744e-40)
(8.10662e-41 1.35543e-42 1.74559e-41)
(7.77163e-41 -1.77256e-42 -1.32693e-41)
(1.04664e-39 9.19935e-42 -1.79059e-40)
(4.92013e-39 1.6205e-39 -3.07834e-41)
(1.15323e-37 4.08695e-38 -1.67068e-39)
(1.4597e-36 5.50396e-37 -4.06074e-38)
(1.56905e-36 6.31046e-37 -7.19774e-38)
(1.2126e-37 4.88794e-38 -5.64224e-39)
(1.55613e-42 9.27921e-45 -9.60518e-43)
(2.60917e-42 4.75744e-44 5.44109e-43)
(2.34179e-43 3.89887e-45 5.00521e-44)
(2.24278e-43 -4.87457e-45 -3.7962e-44)
(2.90545e-42 3.53924e-44 -4.91275e-43)
(1.40658e-41 4.63006e-42 -8.72362e-44)
(3.15929e-40 1.11962e-40 -4.57902e-42)
(3.82121e-39 1.44115e-39 -1.06539e-40)
(4.10717e-39 1.65142e-39 -1.88112e-40)
(3.33432e-40 1.34386e-40 -1.55014e-41)
(3.39731e-45 2.11327e-47 -2.06809e-45)
(5.66503e-45 1.03101e-46 1.16541e-45)
(5.32685e-46 8.83205e-48 1.12583e-46)
(5.09808e-46 -1.05292e-47 -8.52169e-47)
(6.36648e-45 9.93011e-47 -1.05983e-45)
(3.16764e-44 1.04211e-44 -1.94038e-46)
(6.83153e-43 2.42102e-43 -9.87145e-45)
(7.91309e-42 2.98502e-42 -2.20337e-43)
(8.50469e-42 3.41871e-42 -3.87566e-43)
(7.23528e-43 2.91568e-43 -3.34868e-44)
)
;
    }
}


// ************************************************************************* //
