/*--------------------------------*- C++ -*----------------------------------*\
| =========                 |                                                 |
| \\      /  F ield         | OpenFOAM: The Open Source CFD Toolbox           |
|  \\    /   O peration     | Version:  2.4.0                                 |
|   \\  /    A nd           | Web:      www.OpenFOAM.org                      |
|    \\/     M anipulation  |                                                 |
\*---------------------------------------------------------------------------*/
FoamFile
{
    version     2.0;
    format      ascii;
    class       volVectorField;
    location    "0.01";
    object      Ur;
}
// * * * * * * * * * * * * * * * * * * * * * * * * * * * * * * * * * * * * * //

dimensions      [0 1 -1 0 0 0 0];

internalField   nonuniform List<vector> 
200
(
(-5.80494 -0.662227 -0.689485)
(-4.28596 0.641082 0.0531772)
(-3.77306 -0.360217 1.26678)
(-2.90713 -0.209488 -0.183166)
(-3.69421 0.110852 0.474144)
(-3.03542 0.777413 -0.245805)
(-2.97015 -6.00787 1.54883)
(-4.86057 0.724135 -0.430147)
(-4.65762 0.314428 -0.704825)
(-4.24479 1.23486 -0.579305)
(-3.79444 -2.02 -0.707769)
(-4.17243 -0.456032 0.0975685)
(-4.37069 0.0817025 -0.0904368)
(-3.64088 -0.362395 -0.859028)
(-2.70993 0.0819355 0.111367)
(-2.59599 -0.0209987 0.486435)
(-2.73624 0.921538 4.9332)
(-5.62556 -0.145163 -0.561444)
(-5.37001 0.604557 -0.133389)
(-4.23862 0.43986 -0.773787)
(-3.95178 -2.01192 -1.8986)
(-3.21437 -1.07711 0.110053)
(-4.0785 -0.781958 -0.969156)
(-4.47127 -0.739184 -1.23601)
(-3.30698 -0.660376 -0.151649)
(-3.89058 -0.356801 -0.125724)
(-2.78042 -1.04248 2.40043)
(-4.01038 -0.61541 0.811676)
(-4.33174 -0.119597 -0.493087)
(-4.84426 -0.030952 -0.0439705)
(-3.11503 -1.46237 -1.98723)
(-3.48971 -1.21904 0.0712606)
(-3.51578 -1.30531 0.277026)
(-2.63333 -0.995928 0.237509)
(-3.05458 0.605565 -1.15202)
(1.03308 1.56807 15.8453)
(-5.53666 -3.78143 1.32769)
(-5.12909 -0.315601 -0.814395)
(-4.7109 0.129893 -0.554321)
(-4.36779 0.615275 -0.302848)
(-6.29878 -0.171335 -0.369295)
(-4.24089 1.87013 -0.355161)
(-5.35364 0.213531 -1.4389)
(-5.53262 -0.958237 0.890716)
(-5.00427 0.115576 0.662116)
(-4.63921 0.766588 0.575789)
(-3.82679 0.660154 0.623588)
(-3.61054 0.393691 -2.23492)
(-4.74908 2.46286 0.800377)
(-4.48433 0.964366 -4.45967)
(-4.7352 -0.90212 -1.68779)
(-5.98526 -0.846876 0.0635917)
(-4.42162 0.857012 1.77814)
(-3.87166 -0.0865435 -2.21368)
(-4.72286 -0.400965 -1.48201)
(-3.26504 0.929719 4.81757)
(-3.75785 0.770394 0.0515389)
(-2.12981 2.08568 14.6406)
(-5.95623 -0.108165 -2.97999)
(-7.30889 1.15097 -3.65986)
(-3.68049 -1.67594 -1.88955)
(-5.6399 -0.304996 -0.971152)
(-0.54885 -9.70949 22.5244)
(-3.5738 -0.77115 -1.28383)
(-5.33089 -0.350236 -2.24459)
(-4.14491 0.0536751 -2.223)
(-2.76409 0.244621 2.13597)
(-3.79962 -0.352788 -0.578801)
(-0.42603 7.35688 11.1639)
(-5.96397 -1.40879 -7.83711)
(-3.85356 -0.475965 -1.45992)
(-3.18454 -2.02125 1.35815)
(-4.27674 -0.765798 -1.72734)
(-4.87877 -0.25497 -2.29853)
(-4.70317 0.0586376 -0.645997)
(-4.4902 0.15542 -2.33321)
(-3.65456 -0.196552 -4.05728)
(-4.28174 0.456671 -0.793376)
(-3.98974 -0.0722461 -1.85115)
(-2.71218 0.212946 -2.19905)
(-3.76428 0.176589 -0.140061)
(-4.46964 1.96197 -1.64547)
(-6.41585 -0.836452 19.3613)
(-4.55996 0.227197 -3.03798)
(-7.84988 -0.188503 -2.14479)
(-4.97959 0.741845 1.21453)
(-4.69271 1.68645 0.337358)
(-2.94917 3.43274 6.69857)
(-2.10306 0.701998 -3.05854)
(-1.58601 21.0765 0.527247)
(-5.55866 1.63959 1.75172)
(-3.49439 1.10041 4.3485)
(-6.36701 -0.869509 -0.856077)
(-5.84591 -1.0698 6.18848)
(-4.86318 -0.86043 -1.52962)
(-4.43437 0.331821 -0.864255)
(-3.79997 1.26548 5.62197)
(-3.45354 0.432442 -0.749207)
(-1.66929 10.5274 25.9836)
(1.89731 3.0924 -15.4843)
(-4.41001 -1.17781 -3.4448)
(-7.45406 -1.59338 2.5117)
(-4.09048 0.780582 -0.916789)
(-3.18287 -5.11514 9.52355)
(-3.36266 -0.655092 0.398515)
(-4.60119 1.05631 -0.963359)
(-4.76338 0.588385 -0.705578)
(-4.47404 4.32796 3.6601)
(-4.67629 -2.32585 0.376598)
(2.21651 29.2243 40.8219)
(-4.21654 3.38323 -5.4936)
(-1.32766 0.766809 -3.00531)
(-2.2169 -4.01952 3.68817)
(-3.23802 -0.408548 0.0754713)
(-3.69157 2.74603 1.54382)
(-3.31445 2.46585 2.82704)
(-5.55489 0.658482 0.145332)
(-5.81146 0.141407 -1.21052)
(-5.68606 2.41022 0.20802)
(-4.53703 1.40536 -1.06412)
(-6.31703 2.35351 3.53589)
(-6.6286 -0.454122 6.92602)
(-5.32147 3.19937 -1.25658)
(-8.18151 -2.44287 32.9153)
(-2.9895 -2.12266 -1.08634)
(-4.61743 0.299607 -1.5074)
(-4.06653 0.602786 -1.4031)
(-3.86338 1.26909 -0.388496)
(-3.0733 0.237214 -1.24319)
(-3.47745 0.676297 -0.928398)
(-4.92137 -2.89777 -4.01656)
(-11.5295 8.7274 16.4136)
(-4.15129 2.17598 16.2531)
(-4.85853 -1.16962 -0.987072)
(-4.65868 -1.18071 -1.02253)
(-5.11387 0.0922794 -0.0975523)
(-3.88255 1.71293 0.220335)
(-3.28412 1.45406 2.90678)
(-2.92301 0.286596 -2.02054)
(-1.32397 -1.32525 -1.31764)
(-8.92358 1.19536 2.27539)
(-7.71462 -1.16982 0.930456)
(-12.0197 0.364009 4.69002)
(-2.09743 1.79313 0.319788)
(-4.59058 0.13472 -1.95626)
(-4.56098 0.922925 -0.300656)
(-4.65281 -3.88595 0.797357)
(-6.47517 7.42862 1.08557)
(-4.46099 3.45617 -0.385435)
(-3.56416 0.474513 -0.817001)
(-14.8841 20.2935 -42.3645)
(-6.70716 5.96208 2.69327)
(-2.07736 -4.37209 3.61936)
(-2.87511 -5.90808 1.08944)
(-4.8239 0.813067 -1.14624)
(-4.26301 0.969321 -0.732235)
(-7.89433 2.77977 0.999464)
(-4.61167 0.243223 -0.601861)
(-4.08061 1.02602 -0.13103)
(-2.986 1.30247 0.368211)
(-4.66834 1.26866 -0.730016)
(-5.40139 0.143278 -0.483101)
(-7.43754 0.944571 2.39335)
(-4.36065 1.05711 -2.42299)
(-2.21198 4.50956 0.645292)
(-0.78052 0.737323 3.64793)
(6.78247 -3.94019 2.35249)
(1.36906 0.559394 -2.5124)
(0.952111 0.975985 -1.07281)
(-0.933709 -2.32441 -0.287041)
(-5.71651 0.975489 1.93526)
(-6.0645 8.07619 -3.09074)
(-3.63518 -0.771927 0.895012)
(-7.37981 1.38031 0.724828)
(-5.18257 0.718001 -0.792858)
(-3.44519 1.8797 -0.882463)
(-4.90951 -0.549408 1.70977)
(-2.52507 1.31369 1.99677)
(-2.68353 0.641077 0.305209)
(-2.9262 -0.0300489 -0.0675615)
(-15.9367 6.99177 -16.3737)
(-8.55929 -1.94678 5.26114)
(-21.4979 33.032 -15.4613)
(-8.7359 4.94406 -2.72494)
(-4.85783 1.78344 -0.55319)
(-2.77239 1.01395 -0.132552)
(-3.62631 0.871027 0.11663)
(-3.60308 0.538823 0.153715)
(-3.6834 1.58445 0.899308)
(-3.40376 0.546651 1.35977)
(-6.14366 4.07648 -0.0475701)
(-25.1235 12.8247 -31.178)
(-10.493 2.74265 -1.24301)
(-13.6374 -35.0505 9.1902)
(-4.86481 -19.6107 24.9316)
(-4.84314 1.75187 2.88757)
(-4.11263 0.45036 -0.058069)
(-4.31081 0.829838 -0.426975)
(-3.8419 1.47054 -0.0120957)
(-3.53063 0.698628 0.29298)
)
;

boundaryField
{
    inlet
    {
        type            calculated;
        value           nonuniform 0();
    }
    outlet
    {
        type            calculated;
        value           nonuniform 0();
    }
    bottom
    {
        type            calculated;
        value           uniform (0 0 0);
    }
    top
    {
        type            symmetryPlane;
    }
    side1
    {
        type            symmetryPlane;
    }
    side2
    {
        type            symmetryPlane;
    }
    procBoundary19to11
    {
        type            processor;
        value           nonuniform List<vector> 
50
(
(-5.00226 1.31874 -0.947645)
(-4.45981 1.54313 -1.06102)
(-2.77539 1.71807 1.32247)
(-1.91856 -1.09317 1.46791)
(-2.43536 -0.181928 6.74032)
(-2.81305 1.44922 1.74906)
(-4.54465 1.15932 -1.1679)
(-2.06219 -4.8402 -1.60338)
(-4.27168 2.06242 -0.696653)
(-6.94748 0.594621 -0.570586)
(-4.38217 1.24379 -0.434576)
(-5.30956 1.70436 0.0495691)
(-5.28357 0.627424 -0.483359)
(-4.35107 -0.344609 2.5489)
(-3.5421 0.392864 1.83463)
(-3.37258 0.366479 2.54398)
(0.892338 9.52131 16.646)
(-5.17562 -0.135094 -5.26911)
(-5.52765 0.288268 -2.41262)
(-5.01177 0.827709 -1.2103)
(-4.51082 1.15258 -3.04552)
(-4.9474 0.422747 1.80632)
(-4.31168 1.9072 -2.93842)
(-4.3781 2.74329 -2.27926)
(-5.02693 0.45818 1.52451)
(-4.51971 3.14351 4.47222)
(-2.84471 -0.338691 3.61572)
(0.127579 12.7465 18.2312)
(-1.56415 6.36342 -1.42989)
(-3.932 0.475341 -1.32958)
(-4.19584 -1.17793 -1.79555)
(-4.58798 1.24216 -1.95112)
(-5.76264 -0.957055 3.48298)
(-4.65039 -0.699698 -0.197224)
(-5.08192 6.88072 2.31956)
(-3.46044 0.876034 1.40445)
(-4.92873 2.20306 2.95461)
(-3.12365 0.657344 -1.5768)
(-1.9285 0.678829 -0.407441)
(-2.30788 -1.36746 -5.23433)
(-4.2233 -1.06954 -0.929853)
(-5.16215 -2.17735 0.164587)
(-5.45132 -1.55971 -0.469278)
(-5.74244 1.34636 -0.183009)
(-3.21353 -0.564969 -5.30716)
(-10.6973 30.7201 15.774)
(-0.783828 -1.8903 6.46347)
(-2.8287 -2.44934 0.869952)
(-1.788 -2.81403 -1.33429)
(-2.7975 -2.15447 1.00006)
)
;
    }
    procBoundary19to18
    {
        type            processor;
        value           nonuniform List<vector> 
20
(
(-6.52541 -1.12236 0.418604)
(-7.19211 -11.1404 -3.01685)
(-3.32581 -2.09131 -1.91421)
(-1.93104 3.4651 -5.74216)
(-7.99513 -1.30954 9.61459)
(-5.7456 -2.40562 -1.20109)
(-5.97228 -1.68087 -5.60809)
(-4.92325 0.670245 -6.36903)
(-2.18373 -0.857112 -1.62629)
(-4.72458 -3.36796 -3.34358)
(-5.3651 -1.19166 -2.03293)
(-8.1773 -1.52487 -1.79685)
(-4.38017 -1.87918 -1.54565)
(-8.20458 1.08085 2.18988)
(-7.18601 2.47971 -8.76244)
(-1.72724 2.86802 -16.5579)
(-4.40412 -0.393585 1.62685)
(-5.89379 1.95786 -1.80363)
(-7.358 2.15734 2.47339)
(-12.8311 5.81256 -11.368)
)
;
    }
    procBoundary19to20
    {
        type            processor;
        value           nonuniform List<vector> 
20
(
(-3.86761 1.29681 -0.688336)
(-2.298 1.28153 0.718726)
(-4.42315 -0.526527 -1.07638)
(-4.62428 0.590087 -0.385358)
(-4.40147 0.835921 -2.91318)
(-4.76583 0.699487 -2.09123)
(-6.36923 -0.67065 -2.83855)
(-6.14843 -1.53411 -3.06519)
(-4.60961 1.44669 -1.615)
(-6.35976 -0.890911 -2.68736)
(-5.0499 5.04269 -3.36878)
(-2.5813 1.30486 -1.4038)
(-4.05081 -0.942688 -0.213903)
(-3.93048 1.07566 0.63373)
(-0.448917 -2.79537 0.394983)
(-4.1255 0.754405 0.0542316)
(-1.9059 -1.66685 0.293942)
(-3.25134 -1.41755 -0.596857)
(-3.87011 -0.642257 -0.879744)
(-4.10961 -0.158414 -0.481259)
)
;
    }
    procBoundary19to27
    {
        type            processor;
        value           nonuniform List<vector> 
50
(
(-4.60697 -0.637104 -2.58056)
(-4.70781 -0.691411 0.00338827)
(-4.35094 -0.825422 0.0778531)
(-3.48823 -1.09942 -0.651169)
(-3.11306 -0.44562 1.27992)
(-3.04097 -1.2484 -2.31613)
(0.745606 11.0501 19.7199)
(-5.18721 0.764691 2.72678)
(-3.85208 0.534303 -0.225876)
(-4.26872 0.271197 -0.87241)
(-5.92728 0.0841777 2.0569)
(-5.13084 -0.143833 -1.35445)
(-4.51388 -0.400391 -2.75616)
(-4.33451 -0.359745 -1.34167)
(-3.9643 0.758533 0.56103)
(-5.21197 0.855328 -4.08165)
(-4.86581 0.616212 -3.69169)
(-3.38297 0.89304 -0.655967)
(-2.6307 2.675 0.982231)
(-3.60657 2.09809 -2.0415)
(-3.22051 0.283493 -4.07375)
(3.30749 -0.784427 -11.2009)
(-4.24101 2.54117 -3.51403)
(-3.73457 0.757657 0.814625)
(-3.95932 -0.524007 1.74083)
(-2.05189 5.65368 9.97794)
(-3.6961 3.92235 -1.52279)
(-4.22882 1.72679 -0.295147)
(-4.07206 1.42486 -0.712546)
(-3.49456 5.12866 1.82812)
(-2.3409 2.73661 -2.99653)
(-0.63751 -0.380889 3.56143)
(-1.66198 -2.10494 -0.449286)
(-4.78084 2.03514 0.092774)
(-5.01991 0.681731 -0.122834)
(-4.74471 3.56911 0.234261)
(-3.23353 0.848824 -0.0780353)
(-3.92133 0.57337 -0.189271)
(-4.21289 0.734509 -0.211822)
(-3.88015 1.48648 2.87224)
(-10.1248 3.66 -5.97674)
(-6.51408 -2.28343 0.537209)
(-3.44635 -9.73724 10.2451)
(-1.2245 -3.19293 -0.763332)
(-6.59289 0.882715 0.888521)
(-6.6578 -0.18911 1.44388)
(-3.36333 0.833565 -1.45263)
(-5.90155 -0.988125 0.901692)
(-2.82545 0.342288 0.471218)
(-3.18425 1.0105 -0.401928)
)
;
    }
}


// ************************************************************************* //
