/*--------------------------------*- C++ -*----------------------------------*\
| =========                 |                                                 |
| \\      /  F ield         | OpenFOAM: The Open Source CFD Toolbox           |
|  \\    /   O peration     | Version:  2.4.0                                 |
|   \\  /    A nd           | Web:      www.OpenFOAM.org                      |
|    \\/     M anipulation  |                                                 |
\*---------------------------------------------------------------------------*/
FoamFile
{
    version     2.0;
    format      ascii;
    class       surfaceScalarField;
    location    "0.05";
    object      phia;
}
// * * * * * * * * * * * * * * * * * * * * * * * * * * * * * * * * * * * * * //

dimensions      [0 3 -1 0 0 0 0];

internalField   nonuniform List<scalar> 
490
(
-6.51889e-05
-7.5543e-06
-5.67891e-06
-6.46875e-05
-7.47955e-06
-5.63522e-06
-6.409e-05
-7.39193e-06
-5.58315e-06
-6.33663e-05
-7.28782e-06
-5.52006e-06
-6.33662e-05
-7.16217e-06
-5.44206e-06
-6.40878e-05
-7.28738e-06
-5.52008e-06
-6.46769e-05
-7.39012e-06
-5.58303e-06
-6.5163e-05
-7.47525e-06
-5.6344e-06
-6.55466e-05
-7.53615e-06
-5.67703e-06
-1.29727e-06
-5.67527e-06
-6.02943e-05
-7.01311e-06
-5.25258e-06
-5.94407e-05
-6.91159e-06
-5.17819e-06
-5.84382e-05
-6.7874e-06
-5.09081e-06
-5.72444e-05
-6.64135e-06
-4.98671e-06
-5.72405e-05
-6.46724e-06
-4.86068e-06
-5.84204e-05
-6.64103e-06
-4.9864e-06
-5.93981e-05
-6.7856e-06
-5.08942e-06
-6.02457e-05
-6.88003e-06
-5.17502e-06
-7.58819e-05
-7.44043e-07
-5.23759e-06
5.67982e-06
2.9504e-06
-5.59582e-05
1.25317e-06
-4.86504e-06
-5.4899e-05
-6.38342e-06
-4.78256e-06
-5.36468e-05
-6.26733e-06
-4.6734e-06
-5.2169e-05
-6.09575e-06
-4.5445e-06
-5.217e-05
-5.89282e-06
-4.39008e-06
-5.36464e-05
-6.09718e-06
-4.54497e-06
-5.49709e-05
-6.21475e-06
-4.67411e-06
-7.38661e-05
-3.41874e-07
-4.75882e-06
-9.25991e-05
5.92207e-06
3.54506e-06
6.09369e-06
4.00352e-06
-3.08325e-05
1.56272e-05
-5.08653e-05
-4.37311e-06
-4.95423e-05
-4.31582e-06
-4.78952e-05
-4.17214e-06
-4.79063e-05
-4.00132e-06
-4.97697e-05
-4.174e-06
-7.15936e-05
-4.27119e-06
-9.27719e-05
3.7509e-06
-9.30876e-05
4.0035e-06
4.00353e-06
-6.46866e-05
-7.47942e-06
-5.63517e-06
-6.4089e-05
-7.39178e-06
-5.58311e-06
-6.33646e-05
-7.28761e-06
-5.51999e-06
-6.24687e-05
-7.16178e-06
-5.4419e-06
-6.24687e-05
-7.00682e-06
-5.34281e-06
-6.33645e-05
-7.16181e-06
-5.4419e-06
-6.40868e-05
-7.28737e-06
-5.52001e-06
-6.46787e-05
-7.39063e-06
-5.58297e-06
-6.51335e-05
-7.47386e-06
-5.63474e-06
-1.97497e-06
-5.63298e-06
-5.94392e-05
-6.90813e-06
-5.17812e-06
-5.84362e-05
-6.78716e-06
-5.09072e-06
-5.72412e-05
-6.64103e-06
-4.98657e-06
-5.57937e-05
-6.46662e-06
-4.86037e-06
-5.57939e-05
-6.25501e-06
-4.70435e-06
-5.7239e-05
-6.46715e-06
-4.86039e-06
-5.84257e-05
-6.6419e-06
-4.98637e-06
-5.9423e-05
-6.78009e-06
-5.09002e-06
-7.37692e-05
-1.02574e-06
-5.1746e-06
4.98277e-06
-1.31962e-06
-5.48876e-05
1.1854e-06
-4.77637e-06
-5.36441e-05
-6.24832e-06
-4.67327e-06
-5.21644e-05
-6.09532e-06
-4.54431e-06
-5.03906e-05
-5.892e-06
-4.38963e-06
-5.03948e-05
-5.64759e-06
-4.20108e-06
-5.21783e-05
-5.89375e-06
-4.38997e-06
-5.36924e-05
-6.08402e-06
-4.54564e-06
-7.23e-05
-4.72559e-07
-4.67055e-06
-9.16454e-05
5.60432e-06
-7.05395e-07
6.09366e-06
2.67493e-06
-3.05371e-05
1.49908e-05
-4.94898e-05
-4.27989e-06
-4.78894e-05
-4.17189e-06
-4.59271e-05
-4.00075e-06
-4.59376e-05
-3.7941e-06
-4.79869e-05
-4.00159e-06
-7.00665e-05
-4.16464e-06
-9.21322e-05
-3.12757e-07
-9.30877e-05
3.04148e-06
3.95623e-06
-6.40888e-05
-7.39174e-06
-5.58309e-06
-6.33642e-05
-7.28757e-06
-5.51997e-06
-6.24677e-05
-7.1617e-06
-5.44186e-06
-6.13298e-05
-7.00657e-06
-5.34269e-06
-6.13298e-05
-6.81068e-06
-5.2126e-06
-6.24677e-05
-7.00656e-06
-5.34269e-06
-6.33641e-05
-7.1617e-06
-5.44186e-06
-6.40886e-05
-7.28759e-06
-5.51998e-06
-6.46293e-05
-7.39178e-06
-5.5831e-06
-7.45672e-06
-5.56239e-06
-5.84358e-05
-6.78567e-06
-5.09069e-06
-5.72405e-05
-6.64096e-06
-4.98653e-06
-5.57918e-05
-6.46648e-06
-4.86029e-06
-5.40001e-05
-6.25459e-06
-4.7041e-06
-5.40001e-05
-5.99231e-06
-4.50592e-06
-5.57919e-05
-6.25455e-06
-4.7041e-06
-5.72407e-05
-6.46716e-06
-4.86029e-06
-5.84361e-05
-6.64295e-06
-4.98653e-06
-5.93281e-05
-6.78935e-06
-5.09067e-06
-2.47304e-06
-5.02335e-06
-5.36395e-05
8.98174e-07
-4.67136e-06
-5.21634e-05
-6.08685e-06
-4.54425e-06
-5.03878e-05
-5.89181e-06
-4.38951e-06
-4.82223e-05
-5.64702e-06
-4.20072e-06
-4.82221e-05
-5.3479e-06
-3.96666e-06
-5.03935e-05
-5.64689e-06
-4.20069e-06
-5.21862e-05
-5.89418e-06
-4.38999e-06
-5.3695e-05
-6.09963e-06
-4.5462e-06
-6.79587e-05
-1.61057e-06
-4.67633e-06
4.07305e-06
-1.50488e-06
-3.07149e-05
5.1389e-06
-4.78666e-05
-4.16071e-06
-4.59235e-05
-4.00059e-06
-4.35499e-05
-3.79362e-06
-4.35493e-05
-3.5415e-06
-4.59373e-05
-3.79356e-06
-4.79521e-05
-4.00176e-06
-6.64495e-05
-4.17475e-06
-8.84839e-05
-5.97998e-07
1.56444e-06
-6.3364e-05
-7.28754e-06
-5.56921e-06
-6.24674e-05
-7.16166e-06
-5.50736e-06
-6.13289e-05
-7.00649e-06
-5.43052e-06
-5.98351e-05
-6.81042e-06
-5.33262e-06
-5.98351e-05
-6.55484e-06
-5.2038e-06
-6.13289e-05
-6.81042e-06
-5.33262e-06
-6.24674e-05
-7.00648e-06
-5.43051e-06
-6.33641e-05
-7.16165e-06
-5.50734e-06
-6.39846e-05
-7.28752e-06
-5.42956e-06
-7.35125e-06
8.59741e-06
-5.72401e-05
-6.64092e-06
-5.0759e-06
-5.57911e-05
-6.46642e-06
-4.97365e-06
-5.39982e-05
-6.25446e-06
-4.84903e-06
-5.17224e-05
-5.99189e-06
-4.69411e-06
-5.17224e-05
-5.65972e-06
-4.49721e-06
-5.39983e-05
-5.99189e-06
-4.69411e-06
-5.57913e-05
-6.25441e-06
-4.84901e-06
-5.72405e-05
-6.46708e-06
-4.97394e-06
-5.82307e-05
-6.64286e-06
-4.78285e-06
-6.67812e-06
8.92624e-06
-5.21629e-05
-6.0926e-06
-4.6588e-06
-5.03868e-05
-5.89172e-06
-4.53187e-06
-4.82195e-05
-5.64683e-06
-4.37867e-06
-4.55315e-05
-5.34732e-06
-4.19076e-06
-4.55315e-05
-4.97779e-06
-3.95802e-06
-4.82194e-05
-5.34732e-06
-4.19077e-06
-5.03926e-05
-5.6467e-06
-4.37877e-06
-5.21859e-05
-5.8939e-06
-4.5336e-06
-5.36786e-05
-5.46713e-06
-4.03783e-06
-3.84972e-06
1.77833e-06
-4.78808e-05
-4.29689e-06
-4.59222e-05
-4.16036e-06
-4.35463e-05
-3.99035e-06
-4.06504e-05
-3.78369e-06
-4.06504e-05
-3.53292e-06
-4.35457e-05
-3.7837e-06
-4.59376e-05
-3.98969e-06
-5.32074e-05
-2.9192e-06
-7.27724e-05
-2.02579e-06
-7.78211e-07
-6.409e-05
-7.39069e-06
-6.33657e-05
-7.28739e-06
-6.24694e-05
-7.16201e-06
-6.13318e-05
-7.00687e-06
-6.13318e-05
-6.81102e-06
-6.24695e-05
-7.00687e-06
-6.33658e-05
-7.16196e-06
-6.37803e-05
-7.28779e-06
-3.27385e-05
-7.27215e-06
4.57888e-07
-5.84234e-05
-6.78521e-06
-5.72397e-05
-6.64103e-06
-5.57952e-05
-6.46743e-06
-5.40036e-05
-6.25501e-06
-5.40036e-05
-5.99282e-06
-5.57951e-05
-6.25501e-06
-5.72436e-05
-6.46756e-06
-5.78322e-05
-6.64321e-06
-2.96088e-05
-6.32225e-06
-1.03019e-07
-5.36401e-05
-6.2654e-06
-5.21726e-05
-6.09717e-06
-5.03961e-05
-5.8941e-06
-4.82268e-05
-5.64748e-06
-4.82268e-05
-5.34855e-06
-5.03978e-05
-5.64747e-06
-5.21906e-05
-5.89351e-06
-5.46669e-05
-4.48209e-06
-5.56271e-05
-3.54659e-06
-1.01767e-06
-4.95531e-05
-4.79143e-05
-4.59385e-05
-4.3555e-05
-4.3555e-05
-4.59534e-05
-6.13939e-05
-8.09547e-05
-8.61726e-05
)
;

boundaryField
{
    inlet
    {
        type            calculated;
        value           nonuniform 0();
    }
    outlet
    {
        type            calculated;
        value           nonuniform 0();
    }
    bottom
    {
        type            calculated;
        value           uniform 0;
    }
    top
    {
        type            symmetryPlane;
        value           uniform 0;
    }
    side1
    {
        type            symmetryPlane;
        value           nonuniform 0();
    }
    side2
    {
        type            symmetryPlane;
        value           nonuniform 0();
    }
    procBoundary20to12
    {
        type            processor;
        value           nonuniform List<scalar> 
50
(
8.16811e-06
8.14058e-06
8.10805e-06
8.06901e-06
8.02135e-06
8.06903e-06
8.10787e-06
8.13969e-06
8.16621e-06
8.17959e-06
8.14054e-06
8.10799e-06
8.06894e-06
8.02122e-06
7.96161e-06
8.02122e-06
8.06897e-06
8.10781e-06
8.13995e-06
8.16025e-06
8.10798e-06
8.06893e-06
8.02119e-06
7.96153e-06
7.88487e-06
7.96153e-06
8.0212e-06
8.06894e-06
8.10801e-06
8.13317e-06
8.06891e-06
8.02117e-06
7.9615e-06
7.88478e-06
7.78254e-06
7.88478e-06
7.9615e-06
8.02117e-06
8.06892e-06
8.09444e-06
8.10809e-06
8.06903e-06
8.02129e-06
7.96164e-06
7.88499e-06
7.96164e-06
8.02129e-06
8.06901e-06
8.06776e-06
3.93296e-06
)
;
    }
    procBoundary20to19
    {
        type            processor;
        value           nonuniform List<scalar> 
20
(
6.56145e-05
6.09434e-05
3.65234e-05
9.43496e-06
6.5187e-05
6.02192e-05
3.74226e-05
9.75707e-06
6.46854e-05
5.938e-05
4.00274e-05
1.06644e-05
6.40876e-05
5.83938e-05
5.35846e-05
3.36617e-05
6.46585e-05
5.93507e-05
5.48084e-05
3.76681e-05
)
;
    }
    procBoundary20to21
    {
        type            processor;
        value           nonuniform List<scalar> 
20
(
-5.32612e-05
-9.20965e-05
-9.30884e-05
-9.30878e-05
-4.12922e-05
-9.03517e-05
-9.30884e-05
-9.30879e-05
-3.4443e-05
-3.22491e-05
-8.72047e-05
-9.29989e-05
-3.33814e-05
-3.02293e-05
-4.33709e-05
-8.61695e-05
-1.44632e-06
-1.33083e-06
-4.43101e-05
-8.61744e-05
)
;
    }
    procBoundary20to28
    {
        type            processor;
        value           nonuniform List<scalar> 
50
(
9.5538e-06
1.80867e-06
-5.62035e-06
-5.62212e-06
-5.40428e-06
-5.62714e-06
-5.47815e-06
5.76893e-06
5.87881e-06
5.87012e-06
9.42828e-06
1.8487e-06
-5.51011e-06
-5.40324e-06
-5.14326e-06
-5.4082e-06
-5.53257e-06
5.48246e-06
5.83575e-06
5.84249e-06
9.07363e-06
1.85233e-06
-5.35428e-06
-5.14254e-06
-4.82737e-06
-5.14476e-06
-5.40984e-06
-4.01175e-06
9.72708e-07
2.30493e-06
1.51279e-06
-5.39031e-06
-5.14231e-06
-4.82663e-06
-4.44084e-06
-4.82649e-06
-5.14233e-06
-3.70984e-06
-2.9692e-06
-1.35503e-06
9.85216e-07
-5.61981e-06
-5.40861e-06
-5.14545e-06
-4.82798e-06
-5.12022e-06
-3.52687e-06
-1.98394e-06
-1.35535e-06
-1.35581e-06
)
;
    }
}


// ************************************************************************* //
