/*--------------------------------*- C++ -*----------------------------------*\
| =========                 |                                                 |
| \\      /  F ield         | OpenFOAM: The Open Source CFD Toolbox           |
|  \\    /   O peration     | Version:  2.4.0                                 |
|   \\  /    A nd           | Web:      www.OpenFOAM.org                      |
|    \\/     M anipulation  |                                                 |
\*---------------------------------------------------------------------------*/
FoamFile
{
    version     2.0;
    format      ascii;
    class       volVectorField;
    location    "0.04";
    object      U;
}
// * * * * * * * * * * * * * * * * * * * * * * * * * * * * * * * * * * * * * //

dimensions      [0 1 -1 0 0 0 0];

internalField   nonuniform List<vector> 
200
(
(-54.475 -81.9148 100.465)
(-0.785532 -26.0148 -501.509)
(7.74931 -57.7495 101.792)
(10.6667 -44.0321 -257.766)
(18.4903 -91.6781 115.311)
(15.1711 -83.9667 -126.8)
(19.772 -153.104 -51.4259)
(-16.7303 -42.2261 23.3396)
(33.5934 -210.136 -65.2786)
(-32.1208 -38.7637 -27.6283)
(9.94648 -63.7128 -425.319)
(-26.8557 -12.3713 114.164)
(-31.3227 -22.5197 -164.69)
(-33.3698 -38.2208 115.244)
(-38.0471 -62.144 -61.0746)
(-30.8546 -138.584 -140.088)
(-65.614 -7.79888 41.0429)
(15.1084 -210.481 -70.5824)
(-58.6414 -22.5614 -31.1916)
(34.5353 -224.582 62.3001)
(-70.1733 3.00486 108.647)
(-90.7414 -0.578526 7.28682)
(-65.0292 15.2692 90.7098)
(-102.189 -68.6065 131.208)
(-80.3321 -165.232 -241.865)
(-90.1348 -15.6356 30.7295)
(-14.8253 -210.9 -58.2976)
(-90.4073 -11.9968 -31.5906)
(2.61574 -224.308 67.0527)
(-110.303 -127.122 -29.3756)
(-117.673 -77.4035 63.8533)
(-137.221 -39.4631 30.8629)
(-152.411 -68.6034 199.361)
(-92.2475 -132.723 -159.167)
(-126.189 -3.88646 11.7367)
(-49.13 -211.818 -52.5963)
(-129.229 -3.59547 -31.8571)
(-36.579 -217.682 66.2214)
(-149.82 -120.573 -32.0379)
(-12.6732 -260.267 149.382)
(-47.7737 -66.9611 -142.414)
(-52.9725 -76.6835 37.323)
(-31.6467 -35.9183 -95.5858)
(-21.6218 -102.27 59.773)
(-29.3872 -57.8595 -47.2902)
(15.8657 -119.522 23.5163)
(-10.8105 -47.5881 -14.9662)
(34.2567 -154.544 -15.1546)
(-7.81056 -10.288 -29.0983)
(55.2767 -168.532 25.2771)
(-94.9938 -85.0185 40.6432)
(-94.4812 -27.2744 -3.87031)
(-53.5375 -101.458 65.2598)
(-71.4575 -40.5154 -29.5108)
(-9.82146 -116.639 15.7404)
(-45.5851 -24.5471 3.1998)
(12.653 -168.046 -58.7762)
(-33.8266 19.8763 -56.9646)
(44.0429 -190.941 43.7867)
(-22.8241 -34.0832 18.0603)
(-203.653 51.0304 144.628)
(-83.23 -140.833 100.687)
(-149.597 -18.1643 57.1163)
(-38.6293 -111.686 -0.226324)
(-84.5335 0.636921 -2.51583)
(-15.5452 -194.017 -34.9481)
(-70.1041 23.5018 -49.5585)
(16.1616 -214.674 61.9794)
(-55.0714 -44.7644 32.13)
(73.0839 -219.126 104.545)
(-71.3466 -205.292 22.1355)
(-208.938 12.3051 76.4551)
(-70.9401 -125.489 -47.4293)
(-113.828 23.3152 -48.7096)
(-37.92 -212.413 -33.335)
(-93.0786 17.404 -38.867)
(-17.382 -216.505 56.6454)
(-89.2949 -53.2779 33.2119)
(44.5819 -229.078 95.6622)
(-38.4467 -87.2084 -108.868)
(89.8679 -52.0423 -87.0276)
(56.9697 -26.3279 -102.884)
(67.3199 -48.455 -82.2266)
(55.9385 -17.4219 -97.6324)
(65.218 -49.5263 -58.4789)
(67.0162 -14.8234 -80.8749)
(75.4044 -58.8054 -42.5098)
(76.3809 -5.69014 -81.7503)
(84.7411 -85.2076 -26.6059)
(83.5024 -9.79425 -49.8804)
(18.818 -32.4581 -67.8251)
(35.9051 -60.0922 -105.597)
(14.7689 -19.4027 -57.9189)
(15.9582 -61.35 -66.0174)
(13.1962 17.5558 -115.042)
(33.5702 -95.3617 -51.5664)
(29.9676 19.0085 -86.9737)
(60.8603 -135.344 -8.07638)
(35.6324 16.4761 -48.3966)
(94.5557 -159.195 19.4263)
(-59.0426 -58.0877 -109.902)
(-97.1444 37.4301 -14.3325)
(-50.3758 -82.4095 -76.9663)
(-47.8763 53.5058 -145.113)
(-5.09353 -168.97 -23.2686)
(-22.4777 38.1677 -108.104)
(30.8829 -222.574 20.6305)
(-4.35979 -3.83154 -18.6701)
(79.8363 -221.61 26.2346)
(59.9318 -18.1684 -51.3658)
(-182.041 103.993 51.5633)
(-55.9999 -92.7374 -93.2296)
(-91.9757 65.6549 -148.051)
(-32.7128 -205.447 -30.5767)
(-54.2323 22.0358 -98.7245)
(-5.23941 -236.534 5.7028)
(-38.1274 -29.4972 -14.1319)
(47.3239 -248.392 -1.16305)
(40.1618 -58.315 -95.396)
(55.6953 -212.556 -144.087)
(85.0355 -36.7655 -26.2024)
(92.6185 -31.5129 -17.6064)
(93.8116 -30.968 -28.772)
(94.4349 -42.5671 -14.269)
(95.087 -30.7887 -34.8413)
(93.692 -47.7109 -14.618)
(120.422 -21.9111 -24.7539)
(123.362 -43.8267 -9.11201)
(140.296 -11.7701 -8.19554)
(133.41 -41.8306 -8.90639)
(-7.91725 -94.3625 -91.2873)
(63.9187 -86.6125 -22.2981)
(26.3121 -51.1932 -24.4185)
(57.2388 -29.0935 -56.8678)
(37.4001 -55.5 -18.5135)
(59.9762 -5.48582 -68.1072)
(58.8752 -110.135 -3.60469)
(84.2531 11.1406 -44.8922)
(101.189 -118.852 15.9186)
(116.043 32.1973 -22.0833)
(-0.923654 5.43328 -17.665)
(-45.7308 -67.9911 -103.76)
(-20.0623 14.3038 -139.51)
(-11.8425 -156.69 -12.4312)
(0.759926 11.2873 -100.42)
(29.5804 -230.623 15.2135)
(31.7615 5.85286 -36.8027)
(70.3231 -233.193 13.7936)
(109.7 8.94836 -34.5599)
(97.4832 -191.327 -43.9632)
(-37.2889 -65.3793 -103.58)
(-19.9552 -1.69225 -80.1371)
(-34.9756 -190.105 -33.6087)
(-31.9398 -11.7973 -89.6635)
(-10.3243 -249.976 -11.9456)
(-12.3825 -25.0271 -32.5472)
(17.905 -271.425 -26.0006)
(75.1528 -60.5495 -70.8372)
(22.0512 -237.749 -154.77)
(38.4909 58.9279 131.396)
(77.4643 -78.1264 -71.6918)
(101.637 -53.9367 14.8011)
(119.099 20.3756 -48.6135)
(97.3911 -38.9573 -20.5628)
(110.054 -46.8721 9.61701)
(118.134 -6.3113 -27.2313)
(101.012 -7.08143 -28.3414)
(134.325 9.23137 24.4052)
(106.98 17.1003 -40.7792)
(164.061 27.5288 164.724)
(91.2694 -74.9554 -28.1228)
(-3.17806 -78.1656 -52.2236)
(76.9972 -63.8992 -31.261)
(40.4004 -45.3173 -9.37038)
(73.1365 -15.8 -52.8657)
(60.3074 -63.3529 2.96378)
(94.6593 16.9572 -55.6959)
(95.2263 -80.4828 8.80559)
(141.94 51.928 -21.2211)
(124.879 -44.3857 -15.0642)
(-13.2262 -62.6824 -58.2371)
(34.1872 -82.9214 -16.9959)
(-7.30305 -157.722 -17.1693)
(13.5692 -35.2619 -52.8819)
(20.3835 -207.312 8.09203)
(34.3217 -5.52632 -53.506)
(54.9302 -236.263 0.913609)
(114.215 0.33183 -41.5565)
(77.5321 -201.634 -78.9148)
(119.464 93.6836 39.4798)
(12.8287 -90.5586 27.129)
(-17.1276 -188.037 -3.87933)
(-13.2748 -78.5723 -4.79296)
(-22.2962 -226.133 -10.6733)
(-20.9984 -32.925 -43.6781)
(-21.1848 -279.357 -25.613)
(37.5908 -66.6856 -49.9629)
(-60.4831 -279.944 -187.904)
(-21.4064 73.3641 162.55)
(-26.327 -180.088 -193.36)
)
;

boundaryField
{
    inlet
    {
        type            calculated;
        value           nonuniform 0();
    }
    outlet
    {
        type            calculated;
        value           nonuniform 0();
    }
    bottom
    {
        type            calculated;
        value           uniform (0 0 0);
    }
    top
    {
        type            symmetryPlane;
    }
    side1
    {
        type            symmetryPlane;
    }
    side2
    {
        type            symmetryPlane;
    }
    procBoundary20to12
    {
        type            processor;
        value           nonuniform List<vector> 
50
(
(-18.679 -8.74641 -691.404)
(-26.1901 -115.66 106.425)
(12.5426 -20.8222 -449.396)
(31.3575 -97.0051 109.622)
(34.9606 -59.3612 -276.486)
(42.707 -128.865 115.18)
(36.9426 -107.677 -92.1746)
(36.9476 -171.036 -18.3397)
(10.5505 -77.9356 15.3269)
(44.7183 -213.99 -53.4292)
(-36.1402 -46.3406 60.7825)
(-66.5948 -34.146 -156.545)
(-43.423 -63.5503 48.3965)
(-23.455 -33.2011 -77.4067)
(-9.67173 -104.206 62.5601)
(-11.2214 -61.6119 -36.5953)
(25.2299 -127.348 35.1611)
(11.3897 -60.3975 1.8658)
(45.7028 -151.866 8.39931)
(16.8895 -41.2648 4.9522)
(68.8131 -5.06599 -90.9866)
(88.8876 -21.9717 -53.3577)
(68.5028 1.10176 -93.3535)
(81.6268 -19.9801 -50.9848)
(71.795 2.31707 -73.8382)
(90.2962 -24.5202 -30.5137)
(88.5934 -3.25623 -62.1893)
(96.8452 -39.3605 -12.1396)
(98.7243 -8.72417 -44.4412)
(102.371 -45.1476 17.8132)
(102.494 -16.265 -19.2366)
(99.9756 -5.72253 -22.0584)
(113.874 -36.5524 -31.1456)
(105.118 -24.8986 -28.8429)
(108.648 -5.78019 -11.6686)
(113.53 6.44575 -7.83238)
(126.312 -5.56155 -10.8634)
(139.167 4.4677 11.2489)
(138.446 -15.4026 -7.81618)
(132.146 14.6794 153.202)
(112.206 -28.0057 -17.4449)
(119.363 -4.30899 -28.7432)
(100.379 -14.58 -19.8237)
(87.9352 -12.3565 -24.0997)
(99.2458 -1.4023 -9.0024)
(88.4563 4.40847 -33.0155)
(116.451 8.34047 59.0065)
(87.3996 15.6151 -45.6694)
(145.124 1.02544 233.469)
(83.9552 22.5123 -75.1402)
)
;
    }
    procBoundary20to19
    {
        type            processor;
        value           nonuniform List<vector> 
20
(
(-19.688 -37.5689 -817.695)
(-87.9319 -41.8863 96.1866)
(8.67363 -87.9222 -334.29)
(-127.922 3.89901 92.3509)
(-64.5384 -88.8542 38.2054)
(-57.8143 -123.554 -118.129)
(-126.832 -79.1818 17.8576)
(-336.171 214.977 323.97)
(65.4242 -26.717 -130.862)
(69.5087 -73.8915 -115.42)
(-159.197 97.9668 186.001)
(-15.19 -90.8647 -144.042)
(43.7631 -61.9672 -82.0206)
(76.2009 -79.5175 -46.6951)
(-17.3878 -69.9556 -71.8571)
(-58.3569 93.8161 -10.0415)
(114.999 -45.8449 -42.1267)
(42.0727 -37.1667 2.79265)
(58.4226 -90.9516 10.8802)
(-23.7647 -64.9829 -39.434)
)
;
    }
    procBoundary20to21
    {
        type            processor;
        value           nonuniform List<vector> 
20
(
(52.669 -221.627 40.4901)
(-74.4089 -126.17 -28.7738)
(25.9359 -265.051 152.252)
(-161.595 -194.695 -218.585)
(2.33782 -34.2867 9.21374)
(94.349 -199.154 94.9062)
(-13.2384 -81.8562 -84.6919)
(56.6996 -193.029 -106.931)
(105.92 -84.5432 2.68018)
(68.3347 17.3729 -34.2769)
(107.003 -186.541 -39.2954)
(17.4073 9.31084 42.4781)
(144.296 7.65059 20.0588)
(129.006 -101.628 21.9817)
(113.227 63.3879 18.3918)
(30.0948 -190.894 -151.851)
(103.672 25.0143 -60.2202)
(149.137 110.724 51.6193)
(98.1858 -115.785 -58.3798)
(-23.952 180.107 112.879)
)
;
    }
    procBoundary20to28
    {
        type            processor;
        value           nonuniform List<vector> 
50
(
(-152.137 -90.1252 50.7875)
(-168.301 -75.9689 113.798)
(-103.648 -134.216 -121.129)
(-139.992 -3.48487 15.2717)
(-70.4122 -201.435 -54.6593)
(-157.493 5.44231 -26.9628)
(-74.9304 -201.209 59.4199)
(-189.391 -103.795 -34.4462)
(-50.9083 -249.407 141.736)
(-202.242 -176.595 -239.925)
(-227.78 58.7889 93.2639)
(-51.887 -131.055 -96.8806)
(-120.508 41.5125 -101.478)
(-43.5442 -210.501 -35.3095)
(-99.7632 12.3363 -23.0187)
(-44.19 -195.868 41.4392)
(-119.504 -46.3944 26.7973)
(13.6515 -227.15 77.2082)
(-77.964 -80.7788 -139.499)
(17.6022 -188.774 -118.054)
(-20.7921 -104.029 -135.725)
(-87.3379 61.7221 -140.322)
(-37.1408 -199.137 -60.161)
(-65.0879 -5.99032 -76.2016)
(-33.3369 -214.075 -16.0179)
(-71.6105 -40.1077 -16.4969)
(4.74262 -249.63 -27.5549)
(-13.7896 -69.4014 -128.396)
(-9.99541 -219.217 -165.942)
(-95.3665 51.9145 128.989)
(-28.6447 5.47353 -49.3998)
(-42.3138 -162.84 -58.6644)
(-50.5125 -39.7069 -64.9517)
(-42.34 -227.8 -39.5993)
(-56.4664 -43.4923 -28.7735)
(-38.9363 -273.391 -46.8341)
(-5.19194 -76.7414 -99.0274)
(-64.3759 -246.883 -182.668)
(-114.979 77.3259 158.421)
(-50.1802 -215.883 -222.754)
(-25.7616 -127.829 -12.4875)
(-37.7495 -96.7014 16.5715)
(-53.5806 -190.056 -26.4879)
(-72.4096 -46.3617 -36.8674)
(-89.8449 -277.813 -34.7429)
(-58.46 -74.7629 -61.0608)
(-177.37 -291.032 -186.44)
(-174.575 68.0983 131.351)
(-162.681 -288.488 -182.858)
(-214.198 196.745 274.745)
)
;
    }
}


// ************************************************************************* //
