/*--------------------------------*- C++ -*----------------------------------*\
| =========                 |                                                 |
| \\      /  F ield         | OpenFOAM: The Open Source CFD Toolbox           |
|  \\    /   O peration     | Version:  2.4.0                                 |
|   \\  /    A nd           | Web:      www.OpenFOAM.org                      |
|    \\/     M anipulation  |                                                 |
\*---------------------------------------------------------------------------*/
FoamFile
{
    version     2.0;
    format      ascii;
    class       volScalarField;
    location    "0.06";
    object      nut;
}
// * * * * * * * * * * * * * * * * * * * * * * * * * * * * * * * * * * * * * //

dimensions      [0 2 -1 0 0 0 0];

internalField   nonuniform List<scalar> 
200
(
11.781
12.7253
11.4519
27.8052
41.5562
100.323
95.0788
42.5379
50.3539
118.977
16.4923
8.3867
26.3552
20.4245
110.605
25.0685
74.3624
57.2933
180.889
127.264
11.111
23.0048
22.5485
108.048
24.548
96.3347
51.1404
158.884
83.0714
157.459
20.1705
18.9095
59.7018
30.0798
48.7973
57.9925
116.464
129.535
33.5076
461.192
34.4767
26.1471
45.007
45.2971
47.8593
42.3306
19.1768
35.3089
61.24
82.1459
19.129
16.0816
35.0192
16.0975
51.4842
32.5776
92.2289
28.5759
33.2392
37.765
14.1973
49.8305
7.62395
55.6476
27.6748
46.2338
51.6409
95.6208
53.3317
97.9008
46.887
18.859
35.9994
23.956
16.821
44.1766
36.3347
33.5042
186.442
22.6058
16.5746
35.2033
28.2394
37.4114
29.2333
13.4662
64.5011
50.6707
46.9296
63.8926
18.9292
11.8033
34.4973
36.5797
86.2931
44.5794
23.6805
41.9394
32.7266
52.5692
32.2424
22.6968
24.4831
90.1328
34.2977
55.9794
64.4591
43.0418
38.8471
7.94405
7.02936
37.9665
55.5892
32.3472
44.1917
61.7286
24.8007
80.0137
32.9283
94.7805
24.0527
24.2208
15.5993
23.9158
16.2891
51.8025
30.5797
41.0394
59.3888
27.0599
14.4716
18.3773
29.0263
18.372
40.2961
11.6453
43.4574
43.1901
28.7113
82.4793
12.4757
11.8646
19.1264
21.8311
26.8077
28.2834
47.3053
30.3234
27.4942
66.8537
19.7451
6.34817
20.5922
17.5439
6.3201
45.4177
29.4526
41.6618
64.4499
7.16358
29.4227
29.3347
38.9492
45.6569
72.4145
49.4314
79.2545
90.9828
38.07
27.9933
7.78302
32.2903
29.1838
53.6384
33.0165
84.6694
30.7986
48.1843
85.941
15.8151
26.5517
22.4647
44.794
24.092
62.8545
22.483
34.3048
114.72
15.3482
48.3008
18.0732
36.9463
25.9734
48.6803
22.1446
32.7365
97.0244
19.7923
27.815
19.8954
)
;

boundaryField
{
    inlet
    {
        type            calculated;
        value           nonuniform 0();
    }
    outlet
    {
        type            calculated;
        value           nonuniform List<scalar> 
20
(
1.14176e-22
4.73332e-23
1.09445e-22
2.61757e-22
5.21419e-23
2.33148e-23
7.60848e-23
1.91092e-23
5.03271e-23
2.94454e-23
2.92833e-24
8.43556e-23
7.6219e-24
5.06234e-23
3.46885e-23
4.92209e-24
1.66329e-23
1.66545e-23
1.83204e-23
9.34078e-24
)
;
    }
    bottom
    {
        type            calculated;
        value           nonuniform List<scalar> 
40
(
8.81056e-24
2.19714e-23
2.14105e-23
1.80695e-23
1.79545e-23
1.35928e-23
3.04262e-23
2.0576e-23
9.07875e-24
2.566e-23
2.85338e-23
5.19472e-23
2.63598e-23
1.87516e-23
8.75858e-23
4.86929e-23
3.05091e-23
8.64826e-23
5.41579e-23
3.74561e-23
7.87505e-23
5.25594e-23
7.06171e-23
9.95917e-23
8.06051e-23
6.38353e-23
1.04462e-22
9.17744e-23
4.54908e-23
6.22808e-23
1.21947e-22
2.38823e-22
4.538e-23
1.31664e-22
1.94509e-22
6.13335e-23
1.08031e-22
1.32715e-22
1.30623e-22
4.64476e-22
)
;
    }
    top
    {
        type            symmetryPlane;
    }
    side1
    {
        type            symmetryPlane;
    }
    side2
    {
        type            symmetryPlane;
    }
    procBoundary7to6
    {
        type            processor;
        value           nonuniform List<scalar> 
20
(
11.4105
11.7326
18.0826
14.2421
33.0806
10.9388
64.8333
4.20951
25.087
30.4874
3.72376
111.839
17.4133
19.3153
19.4006
6.37089
6.11676
12.3974
21.3664
23.6687
)
;
    }
    procBoundary7to15
    {
        type            processor;
        value           nonuniform List<scalar> 
50
(
21.3978
19.6211
27.7898
47.7989
54.1549
99.3035
152.282
41.3866
697.282
557.174
25.3339
24.5952
28.0203
27.8076
26.0564
59.9412
19.8395
186.083
41.3985
233.492
50.4795
75.4444
50.7418
41.5126
39.7134
17.4903
93.5957
8.01933
154.801
66.6159
6.13561
20.6923
27.0251
10.4612
30.9642
27.6824
44.4778
76.5535
33.4728
104.603
28.3072
23.1811
38.8174
14.7176
34.9112
97.9295
30.5761
64.0547
22.7288
15.6424
)
;
    }
}


// ************************************************************************* //
