/*--------------------------------*- C++ -*----------------------------------*\
| =========                 |                                                 |
| \\      /  F ield         | OpenFOAM: The Open Source CFD Toolbox           |
|  \\    /   O peration     | Version:  2.4.0                                 |
|   \\  /    A nd           | Web:      www.OpenFOAM.org                      |
|    \\/     M anipulation  |                                                 |
\*---------------------------------------------------------------------------*/
FoamFile
{
    version     2.0;
    format      ascii;
    class       volVectorField;
    location    "0.17";
    object      gradp;
}
// * * * * * * * * * * * * * * * * * * * * * * * * * * * * * * * * * * * * * //

dimensions      [1 -2 -2 0 0 0 0];

internalField   nonuniform List<vector> 
200
(
(-1.18797e+37 -8.01538e+36 -1.32878e+37)
(-1.16005e+37 -1.26989e+37 -2.12654e+37)
(-7.52875e+36 -9.2963e+36 -1.25903e+37)
(-5.54643e+37 -3.44765e+37 -1.14798e+37)
(-6.76826e+37 -1.45478e+37 -6.68117e+35)
(-3.17187e+37 -2.31093e+37 -2.85889e+37)
(-8.81642e+37 -1.5092e+37 -5.36266e+37)
(-1.20236e+38 1.05266e+37 -2.91174e+37)
(-7.02605e+37 -8.08286e+36 -1.98366e+37)
(5.04571e+37 4.29121e+36 -9.73953e+36)
(-2.26692e+37 -1.9051e+37 -1.38966e+37)
(-1.41623e+37 -2.49322e+37 -1.73292e+37)
(-5.1084e+37 -3.83817e+37 -3.83094e+37)
(-6.59674e+37 -4.91064e+37 -3.08262e+37)
(-4.49482e+37 -2.92022e+37 -4.58974e+37)
(-3.28071e+37 -3.31958e+37 -4.61349e+37)
(-2.08923e+37 -3.10401e+37 -5.33694e+37)
(-1.06217e+38 -4.37662e+36 -5.8524e+37)
(-8.27313e+37 1.75756e+37 -2.75528e+37)
(5.80404e+37 1.55534e+37 -1.34272e+37)
(-3.76188e+37 -1.90093e+37 -1.47929e+37)
(-5.02619e+37 -2.45845e+37 -2.4882e+37)
(-5.58772e+37 -3.31748e+37 -2.95943e+37)
(-3.71052e+37 -1.93563e+37 -3.58711e+37)
(-3.58614e+37 -1.55945e+37 -3.74614e+37)
(-3.53946e+37 -8.51326e+36 -2.8685e+37)
(-3.05258e+37 -7.96177e+36 -2.25308e+37)
(-2.30042e+37 -8.09792e+36 -1.18722e+37)
(-3.04004e+37 2.64272e+37 -1.47197e+37)
(-1.58011e+37 2.05933e+37 8.586e+36)
(-4.10036e+37 -1.62803e+37 -1.31435e+37)
(-4.24935e+37 -1.71783e+37 -1.40209e+37)
(-4.06275e+37 -8.85552e+36 -1.70012e+37)
(-3.08068e+37 -1.35255e+36 -1.58193e+37)
(-2.32622e+37 -5.85909e+36 -1.95192e+37)
(-1.75415e+37 7.4036e+36 -1.83854e+37)
(-2.00616e+37 -2.69975e+36 -2.00454e+37)
(-3.74394e+37 6.73177e+36 -2.04574e+37)
(-2.53488e+37 -8.73072e+36 -1.07977e+37)
(-3.60007e+37 4.46646e+35 -1.01499e+37)
(-5.35466e+37 -8.98951e+36 -2.92612e+37)
(-9.36855e+36 -6.40106e+36 -2.01026e+37)
(2.37852e+37 -5.04469e+37 -1.58468e+37)
(-1.73134e+37 -6.54309e+37 -2.80568e+36)
(-1.22432e+38 -8.69147e+37 3.85086e+37)
(-2.01186e+38 -5.11828e+37 3.62592e+37)
(-8.98552e+37 -1.46805e+37 5.84888e+37)
(-1.21077e+37 -3.65239e+37 7.07035e+37)
(-8.25129e+36 -2.04289e+37 8.39313e+37)
(1.45101e+38 -1.609e+36 6.53864e+37)
(-5.26791e+37 -2.14592e+37 -2.39274e+37)
(-9.22833e+37 -3.07187e+37 -4.2025e+37)
(-9.42744e+37 -6.55882e+37 -6.86476e+37)
(-9.0249e+37 -8.81326e+37 -4.23756e+37)
(-9.39359e+37 -8.80715e+37 -3.50598e+37)
(-5.67173e+37 -3.33494e+37 -4.0585e+36)
(-6.05374e+37 1.87131e+37 -2.55217e+36)
(-2.36045e+37 2.32157e+37 8.67025e+36)
(6.15785e+37 2.57626e+37 1.34307e+37)
(1.89176e+38 4.48743e+37 1.52252e+37)
(-8.53002e+37 -1.78043e+37 -2.74796e+37)
(-9.76265e+37 -1.92912e+37 -3.80324e+37)
(-9.10426e+37 9.18377e+35 -3.89479e+37)
(-6.228e+37 4.65487e+36 -3.43894e+37)
(-1.28656e+37 2.66106e+37 -2.02531e+37)
(1.23834e+37 3.58859e+37 -1.19561e+37)
(2.32751e+37 4.53565e+37 -4.31242e+36)
(1.99124e+36 5.28086e+37 -1.3921e+37)
(3.50658e+37 5.32355e+37 -1.7775e+37)
(3.82682e+36 2.58369e+37 -9.65787e+36)
(-5.92797e+37 -5.71729e+36 -2.80389e+37)
(-5.48381e+37 9.31472e+36 -2.80132e+37)
(-4.63822e+37 2.08306e+37 -3.22886e+37)
(-3.88645e+37 3.4922e+37 -2.60945e+37)
(-3.14739e+37 3.14601e+37 -2.45862e+37)
(-1.92255e+37 2.18762e+37 -1.55505e+37)
(-2.66918e+37 5.87615e+35 -2.16388e+37)
(-7.84647e+36 -9.45657e+36 -1.90138e+37)
(7.63498e+36 4.91625e+36 -1.42287e+37)
(3.10316e+37 -1.57954e+37 -7.99728e+36)
(-4.34225e+37 5.18706e+35 4.07523e+37)
(3.13253e+37 -4.77748e+37 6.29732e+37)
(4.78213e+37 -9.37775e+37 6.85667e+37)
(1.18473e+38 -9.77884e+37 9.22818e+37)
(5.7325e+37 -1.32257e+38 8.12574e+37)
(3.2218e+37 -8.76176e+37 8.80393e+37)
(2.20577e+37 -1.12758e+38 9.94504e+37)
(-3.88198e+37 -8.87266e+37 7.07745e+37)
(-8.72753e+37 -1.20884e+38 8.51801e+37)
(-4.2736e+38 -7.59667e+37 7.60318e+37)
(-9.76968e+37 -1.62005e+37 1.61493e+37)
(-1.57267e+38 -5.36199e+37 1.61181e+37)
(-5.2206e+37 -7.53434e+37 5.33626e+37)
(4.15136e+37 -9.96403e+37 6.92372e+37)
(7.76666e+37 -1.23221e+38 9.27281e+37)
(7.12172e+37 -1.1034e+38 9.02642e+37)
(1.98397e+37 -1.31522e+38 7.80311e+37)
(-5.50723e+37 -1.39776e+38 6.7319e+37)
(-6.17553e+37 -1.45154e+38 5.34739e+37)
(-3.36585e+37 -1.04517e+38 2.40463e+37)
(-9.04676e+37 -2.55877e+37 1.50667e+36)
(-8.69605e+37 -2.16563e+36 2.0936e+37)
(-4.42196e+37 2.49996e+37 3.99959e+37)
(2.2718e+37 6.69358e+36 6.71824e+37)
(3.59251e+37 1.1632e+36 6.59359e+37)
(1.56157e+37 -2.69005e+37 5.63668e+37)
(-3.68135e+37 -3.85004e+37 2.12954e+37)
(-6.60843e+37 -5.23924e+37 2.51136e+37)
(-1.67584e+37 -1.78277e+37 -2.92e+37)
(7.1984e+37 -1.65627e+37 -1.3971e+37)
(-5.68071e+37 -4.53572e+36 1.10312e+36)
(-5.60924e+37 9.9241e+36 1.50857e+37)
(-3.44876e+37 1.92974e+37 3.21276e+37)
(-6.15918e+36 8.62513e+36 2.62704e+37)
(1.04784e+37 -1.49022e+37 2.25814e+37)
(-8.1099e+36 -2.44703e+37 -9.24614e+36)
(-3.1144e+37 -2.19577e+37 2.55144e+37)
(-1.37271e+37 -1.97155e+36 -1.40752e+37)
(9.90401e+36 5.76885e+36 -8.57647e+36)
(3.51223e+37 1.24184e+37 2.41659e+36)
(9.24554e+37 -4.83544e+37 5.82528e+37)
(7.96376e+37 -8.13693e+37 8.2677e+37)
(1.17573e+38 -7.47735e+37 1.1737e+38)
(2.32969e+37 -1.02302e+38 1.05897e+38)
(-1.36008e+38 -6.85616e+37 6.74882e+37)
(-1.42968e+38 -4.7623e+37 4.03439e+37)
(-1.45103e+38 -4.89513e+37 -2.593e+36)
(-5.77728e+37 -4.20526e+37 -1.63258e+37)
(8.57199e+36 -7.11587e+37 -3.87916e+37)
(-3.70777e+38 -8.47858e+37 -4.77808e+37)
(-2.17517e+37 -8.42522e+37 1.28849e+37)
(2.67993e+37 -9.79783e+37 5.63498e+37)
(7.57069e+37 -1.11301e+38 9.19087e+37)
(3.57208e+37 -1.28292e+38 8.99476e+37)
(-2.66495e+37 -1.12586e+38 8.21504e+37)
(-1.03748e+38 -8.40254e+37 5.3763e+37)
(-1.33962e+38 -1.06335e+38 3.69551e+37)
(-1.02187e+38 -4.98417e+37 1.36065e+37)
(-7.68943e+37 -1.57245e+38 1.2508e+37)
(-5.88884e+37 -9.91301e+37 1.20248e+36)
(-1.34889e+37 -4.18781e+37 1.73624e+37)
(2.55391e+37 -2.0943e+37 4.14792e+37)
(5.6946e+37 -3.30576e+37 5.83962e+37)
(2.0728e+37 -6.40921e+37 6.08635e+37)
(-4.74755e+37 -8.56242e+37 5.17274e+37)
(-1.30466e+38 -1.23331e+38 3.55041e+37)
(-7.67353e+37 -3.86703e+37 2.83664e+37)
(-1.59594e+38 -7.74221e+37 1.68069e+37)
(-9.00048e+37 -4.60452e+37 1.99858e+37)
(1.41974e+38 -8.7706e+36 1.10058e+37)
(2.47058e+37 -3.3803e+36 2.25154e+37)
(4.44402e+37 9.05069e+36 3.41551e+37)
(-1.05913e+37 7.68202e+36 4.39084e+37)
(-6.94124e+37 1.26837e+37 4.79458e+37)
(-1.45127e+38 2.64177e+37 3.675e+37)
(-9.83984e+36 -5.59859e+37 3.62234e+37)
(-4.21446e+37 -8.77117e+37 3.07902e+37)
(-1.16937e+38 -6.17957e+37 3.1986e+37)
(6.04086e+37 7.05082e+37 1.66068e+37)
(5.07432e+37 7.38019e+36 6.04008e+36)
(1.43082e+38 -7.207e+37 1.5271e+36)
(2.20501e+38 -8.98983e+37 2.08666e+37)
(1.22126e+38 -1.34516e+38 4.55468e+37)
(-4.11488e+37 -1.23308e+38 2.22893e+37)
(-1.52445e+38 -1.08798e+38 2.54075e+37)
(-1.92042e+38 -6.61471e+37 1.71528e+37)
(-1.59286e+38 -4.94807e+37 1.0072e+37)
(-1.54655e+38 -4.08348e+37 1.27206e+37)
(-1.87931e+38 -3.88045e+37 -2.02038e+37)
(-1.50328e+38 2.40654e+36 -4.86866e+37)
(5.68097e+37 -8.1625e+37 -1.32952e+37)
(9.56093e+37 -1.19536e+38 1.5536e+37)
(5.53071e+37 -1.69702e+38 8.20797e+36)
(1.02869e+37 -1.71694e+38 9.16104e+36)
(-3.81241e+37 -1.48438e+38 2.59882e+35)
(-7.34076e+37 -1.18084e+38 5.57523e+36)
(-1.08661e+38 -8.19871e+37 9.74115e+36)
(-1.33303e+38 -8.67635e+37 1.34817e+37)
(-1.01448e+38 -5.11106e+37 1.75853e+34)
(-7.75322e+37 -1.04589e+37 5.80861e+36)
(5.01473e+37 -1.01788e+37 3.16907e+36)
(4.43474e+37 -3.76771e+37 7.39281e+36)
(1.78102e+37 -5.18008e+37 9.04664e+36)
(1.37791e+36 -6.05094e+37 -4.83712e+36)
(-4.5225e+37 -7.14774e+37 2.99974e+36)
(-5.91394e+37 -5.49639e+37 -4.13384e+36)
(-9.66444e+37 -4.83642e+37 2.52893e+37)
(-9.29023e+37 -2.29852e+37 -1.03555e+37)
(-3.5322e+37 -1.12697e+37 4.61305e+37)
(-2.7189e+37 -8.82254e+36 6.73291e+36)
(3.10681e+37 2.8226e+36 6.51687e+36)
(1.23653e+37 -7.5827e+36 5.07718e+36)
(9.64255e+36 -6.79939e+36 -3.50654e+36)
(-2.90662e+37 -1.27413e+37 1.14002e+37)
(-2.70332e+37 2.90979e+36 9.10165e+36)
(-2.71812e+37 1.27039e+37 4.83045e+37)
(-4.47038e+37 -2.1671e+37 3.68247e+36)
(-5.9114e+37 -5.42756e+36 4.75047e+37)
(-7.31229e+37 -9.81499e+36 2.17522e+37)
(-3.73477e+37 3.37849e+36 5.77614e+36)
)
;

boundaryField
{
    inlet
    {
        type            zeroGradient;
    }
    outlet
    {
        type            zeroGradient;
    }
    bottom
    {
        type            zeroGradient;
    }
    top
    {
        type            symmetryPlane;
    }
    side1
    {
        type            symmetryPlane;
    }
    side2
    {
        type            symmetryPlane;
    }
    procBoundary7to6
    {
        type            processor;
        value           nonuniform List<vector> 
20
(
(-1.57823e+37 -7.30416e+36 -8.24447e+36)
(-2.1323e+37 -1.20626e+37 -7.95114e+36)
(-3.32678e+37 -1.54173e+37 -9.98154e+36)
(-4.01571e+37 -2.20135e+37 -8.30965e+36)
(-4.47378e+37 -6.83484e+36 -1.02454e+37)
(-5.29223e+37 -1.48419e+37 -1.85789e+37)
(-7.16175e+37 -1.59909e+37 -2.15172e+37)
(-5.76564e+37 -1.24672e+37 -2.30746e+37)
(-9.40688e+37 -2.06376e+37 1.73476e+37)
(-7.57868e+37 -3.00974e+37 6.45327e+36)
(-7.45885e+37 -2.26105e+37 -1.50508e+36)
(-5.76667e+37 -1.89363e+37 -1.11598e+37)
(4.51961e+37 -2.42657e+37 2.43943e+37)
(1.5865e+37 -4.50062e+37 8.0665e+36)
(-2.96219e+37 -4.41718e+37 -2.46294e+36)
(-6.78258e+36 -2.72573e+37 6.69411e+36)
(7.64007e+37 -4.67621e+37 5.04574e+36)
(-1.07297e+37 -7.3069e+37 -9.01449e+36)
(9.25558e+36 -2.48063e+37 -1.24935e+37)
(2.77257e+37 7.72673e+36 3.08896e+36)
)
;
    }
    procBoundary7to15
    {
        type            processor;
        value           nonuniform List<vector> 
50
(
(-2.79486e+37 -1.24326e+37 -8.191e+36)
(-3.54123e+37 -8.96164e+36 -8.3238e+36)
(-2.42256e+37 -8.88566e+36 -1.10405e+37)
(-3.11124e+37 -6.70417e+36 -1.31996e+37)
(-1.83491e+37 -1.18967e+37 -1.4137e+37)
(-2.90759e+37 -8.62598e+36 -1.96396e+37)
(-3.18694e+37 -1.76069e+37 -2.04762e+37)
(-3.50661e+37 -1.67483e+37 -2.19899e+37)
(-4.29706e+37 -1.93075e+37 -6.19037e+36)
(7.67064e+35 -2.0295e+37 -1.5653e+36)
(-4.17363e+37 4.0858e+36 -2.01392e+37)
(-4.45307e+37 7.33803e+36 -2.10934e+37)
(-3.98281e+37 1.13214e+37 -2.13523e+37)
(-4.10211e+37 5.97953e+36 -2.81533e+37)
(-3.89571e+37 1.06395e+37 -2.59051e+37)
(-4.93614e+37 -1.63324e+36 -3.18773e+37)
(-3.93905e+37 -4.44297e+36 -1.63487e+37)
(1.06485e+37 -7.48033e+36 -1.93606e+37)
(2.23881e+37 -1.85222e+35 -8.71274e+36)
(2.55852e+37 5.15723e+36 -2.17553e+36)
(-3.27467e+37 7.44292e+36 2.96729e+36)
(-3.92943e+37 1.69791e+37 2.07709e+37)
(-4.68175e+37 2.08632e+37 3.17781e+37)
(-4.56812e+37 1.19056e+37 5.32834e+37)
(-3.02658e+37 5.08428e+36 6.27844e+37)
(1.50471e+36 -9.1805e+36 7.70299e+36)
(8.18402e+36 -9.33642e+36 -3.38916e+37)
(-1.06312e+37 -5.79533e+36 -7.59838e+36)
(1.20216e+37 -2.25708e+35 1.1795e+37)
(3.56095e+37 1.53059e+36 5.13772e+35)
(5.91271e+37 1.09259e+37 2.19614e+37)
(4.76638e+37 1.88308e+37 3.05375e+37)
(6.42119e+37 1.54997e+37 4.20857e+37)
(5.81993e+37 3.6769e+37 4.75095e+37)
(-1.84815e+38 4.36565e+37 6.28599e+37)
(-3.58725e+38 9.67006e+37 5.8738e+37)
(-8.83549e+37 -5.3622e+37 2.85456e+37)
(1.56846e+38 -2.22882e+37 1.46469e+37)
(4.8347e+37 -2.73703e+37 1.02459e+37)
(-1.3803e+37 -5.97192e+36 5.35584e+36)
(1.95284e+37 8.72171e+35 7.04588e+36)
(2.51034e+37 6.5704e+36 -3.00306e+36)
(7.49293e+36 2.55169e+36 -4.23615e+33)
(2.07963e+37 1.85356e+36 -2.07278e+37)
(5.66539e+36 5.48787e+36 -1.16927e+37)
(-1.08301e+38 -6.41697e+36 3.87972e+37)
(-1.32907e+38 -1.02785e+37 6.65647e+37)
(-6.91903e+37 -3.20406e+37 2.48746e+37)
(-1.77099e+37 -2.1246e+37 -4.07153e+36)
(-1.4316e+37 -5.87004e+36 4.23184e+36)
)
;
    }
}


// ************************************************************************* //
