/*--------------------------------*- C++ -*----------------------------------*\
| =========                 |                                                 |
| \\      /  F ield         | OpenFOAM: The Open Source CFD Toolbox           |
|  \\    /   O peration     | Version:  2.4.0                                 |
|   \\  /    A nd           | Web:      www.OpenFOAM.org                      |
|    \\/     M anipulation  |                                                 |
\*---------------------------------------------------------------------------*/
FoamFile
{
    version     2.0;
    format      ascii;
    class       volVectorField;
    location    "0.17";
    object      Ub;
}
// * * * * * * * * * * * * * * * * * * * * * * * * * * * * * * * * * * * * * //

dimensions      [0 1 -1 0 0 0 0];

internalField   nonuniform List<vector> 
200
(
(5.35889e+16 1.48995e+17 -1.10752e+17)
(1.18903e+17 -1.71731e+17 -3.25327e+16)
(1.20727e+17 2.63878e+17 -6.60975e+16)
(1.79433e+17 -8.16979e+17 1.13654e+17)
(2.70739e+17 2.74179e+17 -3.97984e+17)
(4.41703e+17 1.54828e+17 -2.55957e+17)
(5.93021e+17 -2.71445e+17 -7.00545e+17)
(6.65966e+17 3.82867e+17 -2.04333e+17)
(9.86129e+17 1.39646e+15 -6.85079e+17)
(8.40183e+17 -2.81113e+17 -1.07891e+17)
(2.34396e+17 1.103e+17 7.99194e+15)
(1.56609e+17 2.33301e+17 8.72483e+15)
(3.3865e+17 -6.23031e+16 3.58197e+16)
(1.16823e+17 2.73675e+17 -2.20543e+17)
(3.88934e+17 -1.55158e+16 2.00647e+16)
(3.74068e+17 -1.2409e+17 -3.48927e+17)
(4.84001e+17 2.72882e+17 3.73403e+16)
(3.98886e+17 -4.78583e+17 -7.15696e+17)
(6.48033e+17 6.30587e+16 2.11668e+17)
(6.56885e+17 -1.10959e+17 6.17559e+16)
(3.11102e+17 1.81026e+17 1.37789e+16)
(4.01363e+17 7.55461e+16 2.24011e+15)
(3.11509e+17 1.8607e+17 1.69003e+17)
(4.13366e+17 -2.5787e+17 4.21131e+16)
(4.24071e+17 1.45545e+17 -4.43328e+16)
(4.15474e+17 3.08307e+17 1.07686e+17)
(4.18955e+17 -1.04474e+17 -2.03983e+16)
(4.44079e+17 1.14216e+17 1.5832e+17)
(2.99095e+17 -3.36957e+17 -2.52752e+17)
(4.51848e+17 -2.66025e+17 -6.1112e+15)
(4.02423e+17 1.48886e+17 1.44675e+16)
(3.65084e+17 1.16865e+17 7.00695e+16)
(4.56929e+17 -1.67144e+15 -9.53273e+16)
(3.29188e+17 1.95899e+17 2.58464e+17)
(3.89262e+17 -1.13551e+17 -1.55026e+17)
(3.80052e+17 -6.10985e+16 8.37534e+15)
(4.41622e+17 1.33214e+17 2.30607e+17)
(4.73421e+17 -6.89805e+16 8.13793e+16)
(4.21485e+17 -7.34725e+16 1.7503e+17)
(2.15928e+17 -8.12938e+16 -3.26921e+17)
(-3.85875e+17 1.73169e+17 -4.30012e+17)
(-5.92791e+17 -3.69466e+16 -4.17781e+17)
(-5.15994e+16 9.14432e+16 -1.51215e+17)
(-3.29641e+17 7.42632e+16 -6.50046e+17)
(2.46233e+17 -3.33334e+17 -2.47952e+17)
(2.83907e+16 -4.51738e+17 -1.06719e+18)
(5.12462e+17 5.59054e+16 -3.35801e+17)
(4.28995e+17 -4.94506e+17 -8.90463e+17)
(6.20607e+17 1.45247e+17 -1.69434e+17)
(5.61112e+17 -2.45973e+17 1.55532e+18)
(-2.82325e+16 2.32757e+17 -2.6856e+17)
(3.55291e+16 1.69631e+17 -2.34999e+17)
(-2.19751e+16 -1.97204e+17 -8.50382e+17)
(3.3478e+17 -3.90743e+17 -3.3603e+16)
(-2.86911e+16 -5.11813e+17 -1.14002e+18)
(4.28894e+17 8.06396e+16 -1.40622e+16)
(7.23351e+16 -5.27893e+17 -5.26188e+17)
(5.52442e+17 1.97876e+17 -1.51931e+17)
(1.55559e+17 -5.00195e+17 1.07691e+17)
(6.01013e+17 6.68702e+17 -1.02984e+17)
(2.80776e+17 2.65984e+17 -1.88251e+17)
(1.79434e+17 1.39472e+17 -1.84512e+17)
(4.58559e+17 1.44806e+17 -7.58509e+16)
(2.71638e+17 1.66627e+16 -2.97819e+17)
(4.41416e+17 9.92185e+16 2.87811e+16)
(2.01646e+17 -2.34074e+17 -1.62484e+17)
(4.01961e+17 1.34395e+17 1.06772e+17)
(1.13408e+17 -5.33317e+17 -2.06739e+17)
(2.58447e+17 3.65409e+17 1.25055e+17)
(4.84485e+16 -6.09543e+17 -1.40392e+17)
(2.08281e+17 1.80616e+17 -3.60901e+16)
(4.07156e+17 1.33905e+17 -7.59399e+16)
(2.5997e+17 4.10539e+16 -4.04649e+16)
(4.69395e+17 5.68337e+16 -2.5385e+16)
(3.4813e+17 -9.06856e+16 -1.55763e+16)
(4.3664e+17 2.25922e+17 1.95393e+17)
(3.59233e+17 -1.39323e+17 3.52294e+16)
(4.06298e+17 1.59383e+17 2.46791e+17)
(2.98124e+17 -6.27406e+16 3.38573e+17)
(2.03857e+17 -1.52224e+17 2.02883e+17)
(-8.47628e+17 -2.61529e+17 -4.93287e+17)
(-4.58884e+17 2.61643e+17 -3.34084e+17)
(-7.39696e+17 -7.07747e+17 -1.41458e+18)
(1.09973e+17 -3.76103e+17 -3.01178e+17)
(-3.60171e+17 -4.75636e+17 -9.1651e+17)
(3.28869e+17 -4.06775e+17 -2.97441e+17)
(-1.05098e+17 -4.19764e+17 -6.67924e+17)
(3.91842e+17 -2.51087e+17 -2.85191e+17)
(2.41395e+16 -7.51608e+17 -3.41695e+17)
(6.52042e+17 2.08959e+17 -2.74948e+17)
(-1.30586e+17 3.09249e+17 -3.3316e+17)
(-3.72471e+17 -4.73191e+17 -9.42986e+17)
(2.02141e+17 -3.67932e+17 -2.19373e+17)
(-2.16453e+17 -4.5771e+17 -4.73612e+17)
(1.92581e+17 -5.02934e+17 -1.88108e+17)
(-2.00658e+17 -4.18043e+17 -5.0947e+17)
(1.36188e+17 -3.98209e+17 -2.79228e+17)
(-2.80709e+17 -4.14886e+17 -2.83912e+17)
(-1.46913e+17 -2.01254e+17 -8.23888e+16)
(-2.95976e+17 -7.12427e+17 -1.31961e+16)
(-7.22125e+16 -2.58156e+17 -4.15847e+17)
(3.29456e+17 -3.49763e+17 -2.91943e+17)
(-2.17572e+16 -5.11422e+17 -4.09877e+17)
(3.5452e+17 -3.77689e+17 -2.27961e+17)
(-8.27607e+16 -4.09392e+17 -2.86044e+17)
(1.52722e+17 -3.54602e+17 -1.2205e+17)
(-1.14775e+17 -2.2158e+17 -1.42547e+17)
(-2.24254e+17 -2.66226e+17 -3.0286e+16)
(-3.26215e+17 5.88203e+16 1.16077e+17)
(-3.09834e+17 -1.77212e+17 7.85538e+16)
(2.9454e+17 -1.70908e+17 -3.39103e+17)
(4.2498e+16 -3.3694e+17 -1.65965e+17)
(3.42746e+17 -2.8574e+17 -3.24248e+17)
(7.94597e+15 -3.90573e+17 -2.0858e+17)
(2.88971e+17 -2.27431e+17 -1.87424e+17)
(5.37974e+16 -1.6385e+17 -1.18988e+17)
(-1.28266e+17 -1.06608e+17 4.5509e+16)
(-6.9924e+16 1.54228e+17 2.1989e+17)
(-2.25603e+17 -3.95806e+17 2.08222e+17)
(-1.68643e+17 -2.26763e+16 1.2518e+17)
(-5.56929e+17 2.40462e+17 -4.60378e+17)
(-7.56865e+17 -4.43477e+17 -7.46346e+17)
(-8.56126e+16 -7.36243e+17 -3.46693e+17)
(-4.29861e+17 -3.21444e+17 -3.08411e+17)
(1.38495e+17 -7.61029e+17 -3.0246e+17)
(-1.26148e+17 -3.23248e+17 -2.16351e+17)
(3.09876e+17 -4.91111e+17 -2.12856e+17)
(-2.91771e+16 -4.02482e+17 -2.80292e+17)
(5.48659e+17 -1.37898e+17 -1.41323e+17)
(1.43724e+17 -4.02101e+17 -2.17708e+17)
(-4.43081e+17 -4.53011e+17 -6.01874e+17)
(2.64402e+16 -7.6507e+17 -2.87542e+17)
(-4.56377e+17 -4.71313e+17 -2.02524e+17)
(-1.44199e+17 -8.29004e+17 -2.96152e+17)
(-4.64723e+17 -4.12153e+17 -1.01689e+17)
(-5.51602e+17 4.69205e+15 -2.25312e+17)
(-7.57791e+17 -3.57077e+17 1.32543e+17)
(-1.02614e+18 2.5567e+17 3.31006e+16)
(-5.1657e+17 -3.92067e+17 -2.49114e+16)
(-1.3189e+18 1.09882e+17 1.64729e+17)
(9.84436e+16 -6.01075e+17 -3.14759e+17)
(-3.44543e+17 -5.20441e+17 -1.40148e+17)
(-1.81387e+17 -7.23849e+17 -3.41978e+17)
(-5.14201e+17 -4.36624e+17 -3.94194e+16)
(-7.74138e+17 -6.56598e+16 -1.9825e+17)
(-7.20163e+17 -3.02474e+17 -9.90945e+16)
(-1.13074e+18 2.4445e+17 8.30979e+16)
(-8.50938e+17 -4.90427e+17 1.41797e+16)
(-1.45125e+18 9.18226e+15 1.77831e+17)
(-1.14541e+18 1.5887e+18 6.04704e+17)
(-2.45122e+17 -4.69102e+17 -4.82929e+16)
(-1.20235e+17 -5.39721e+17 -4.0716e+17)
(-4.68886e+17 -4.24319e+17 7.71674e+15)
(-6.61236e+17 -2.32426e+17 -1.97098e+17)
(-5.54987e+17 -2.9197e+17 -8.65317e+16)
(-1.01006e+18 8.52983e+16 2.55992e+17)
(-1.26166e+18 7.16435e+17 5.12264e+17)
(-1.60775e+18 -2.69823e+17 1.05988e+17)
(-1.43004e+18 1.53034e+18 5.93722e+17)
(-7.61654e+17 -7.38623e+17 -3.73266e+16)
(-1.0708e+18 -6.36188e+17 -6.34977e+17)
(-3.95457e+17 -6.40241e+17 -2.21657e+17)
(-7.59635e+17 -5.17861e+17 -1.73602e+17)
(-7.66268e+16 -5.6439e+17 -2.21009e+17)
(-3.26417e+17 -5.00753e+17 5.8325e+15)
(-2.43899e+16 -7.57104e+16 -1.64975e+17)
(-9.36143e+16 -5.67475e+17 -8.10608e+14)
(1.51933e+17 -1.41575e+15 -1.76613e+17)
(3.53704e+16 -6.32818e+17 -4.66953e+16)
(2.96115e+17 3.67414e+16 -8.9895e+16)
(-1.59406e+17 -7.42408e+17 -1.42453e+17)
(-7.09193e+17 -6.05838e+17 -3.35847e+16)
(-2.50641e+17 -7.20173e+17 -1.89318e+17)
(-6.00901e+17 -5.99523e+17 1.56871e+17)
(-3.37606e+17 -1.89886e+17 -1.17389e+17)
(-4.27558e+17 -6.11558e+17 1.21072e+17)
(-3.13601e+17 3.52913e+16 -1.53932e+17)
(-3.42284e+17 -5.73437e+17 1.06334e+17)
(-2.54966e+17 2.80935e+15 -5.63646e+16)
(-3.53242e+17 -3.37299e+17 1.3539e+17)
(-4.98166e+17 -6.46208e+17 2.30494e+16)
(-2.21361e+17 -7.49794e+17 -1.84605e+17)
(-5.73262e+17 -6.95272e+17 3.01361e+17)
(-4.09399e+17 -3.89911e+17 -6.87091e+16)
(-5.49273e+17 -6.90145e+17 2.54542e+17)
(-4.95335e+17 -1.23808e+17 -1.01528e+17)
(-5.15618e+17 -6.07565e+17 2.28433e+17)
(-4.73758e+17 -1.26582e+17 -5.20026e+16)
(-5.05605e+17 -3.39543e+17 1.49491e+17)
(-4.85342e+17 -1.33807e+17 -1.28616e+17)
(-1.6321e+17 -6.02664e+17 -2.14925e+17)
(-4.71287e+17 -6.47101e+17 4.39614e+17)
(-3.45362e+17 -4.28207e+17 -5.67364e+16)
(-5.12021e+17 -6.12425e+17 3.51204e+17)
(-5.06132e+17 -1.94069e+17 -6.71465e+16)
(-5.3863e+17 -5.47321e+17 2.7965e+17)
(-4.92197e+17 -1.29699e+17 -5.05663e+16)
(-5.96871e+17 -1.43762e+17 2.12322e+17)
(-5.51346e+17 -1.63211e+17 -1.20439e+17)
(-5.62919e+17 4.07994e+17 2.18099e+17)
)
;

boundaryField
{
    inlet
    {
        type            fixedValue;
        value           nonuniform 0();
    }
    outlet
    {
        type            zeroGradient;
    }
    bottom
    {
        type            fixedValue;
        value           uniform (0 0 0);
    }
    top
    {
        type            symmetryPlane;
    }
    side1
    {
        type            symmetryPlane;
    }
    side2
    {
        type            symmetryPlane;
    }
    procBoundary7to6
    {
        type            processor;
        value           nonuniform List<vector> 
20
(
(1.04991e+17 3.01568e+16 -6.4009e+16)
(1.78433e+17 2.03268e+17 -6.54372e+16)
(2.93805e+17 3.49259e+17 9.14383e+16)
(4.13098e+17 2.61941e+17 2.19251e+16)
(-3.42685e+17 1.00368e+17 -2.82237e+17)
(-1.22443e+17 2.92831e+17 -3.4406e+17)
(3.11236e+16 1.28595e+17 -2.59622e+17)
(3.013e+17 2.02131e+17 -1.75607e+16)
(-6.41293e+17 2.61866e+17 -5.92438e+17)
(-3.76595e+17 3.32698e+16 -3.5762e+17)
(9.01693e+16 2.27173e+17 -2.92125e+17)
(-4.44329e+16 -1.53697e+17 -2.134e+17)
(-7.82433e+17 -2.95493e+17 -3.81308e+17)
(-1.85654e+17 2.11579e+17 -2.75528e+17)
(-3.1681e+17 -4.80154e+17 -3.99137e+17)
(7.27378e+16 -3.87247e+17 -3.8282e+17)
(-7.67795e+17 3.11716e+17 -2.33673e+17)
(-6.86428e+17 -5.81619e+17 -5.73904e+17)
(-1.66601e+16 -6.27731e+17 -2.08858e+17)
(-3.47975e+17 -5.94629e+17 1.41978e+16)
)
;
    }
    procBoundary7to15
    {
        type            processor;
        value           nonuniform List<vector> 
50
(
(3.87099e+17 1.24145e+17 1.44007e+16)
(4.26197e+17 8.31749e+16 -3.81891e+16)
(3.7698e+17 1.45323e+17 2.69533e+15)
(4.56577e+17 -1.04533e+17 -1.5097e+17)
(3.43886e+17 -6.39834e+16 -4.06768e+16)
(4.23965e+17 2.27301e+17 2.1312e+17)
(3.47288e+17 -6.87399e+17 -6.24733e+17)
(5.90484e+17 -9.7491e+16 3.79632e+17)
(5.9595e+17 -5.51584e+16 3.76681e+16)
(3.65432e+17 -9.57193e+15 1.51782e+17)
(3.23504e+17 2.23233e+17 -4.6543e+16)
(2.64442e+17 1.11406e+17 -1.33758e+16)
(4.36487e+17 7.81051e+16 -7.44099e+16)
(3.27409e+17 1.68227e+16 2.17433e+15)
(4.72666e+17 1.33352e+17 1.33496e+17)
(3.82294e+17 -9.15843e+16 -2.25579e+16)
(5.20451e+17 1.10099e+17 2.89803e+17)
(3.85869e+17 -1.1993e+17 3.62456e+16)
(3.52434e+17 4.24993e+17 5.2563e+17)
(2.96536e+17 2.92384e+16 5.69268e+17)
(4.97969e+16 -1.50322e+17 -4.43214e+16)
(2.62176e+17 -2.05963e+17 -3.7672e+17)
(6.70408e+16 -2.45431e+17 -5.40864e+16)
(2.84618e+17 -2.34301e+17 -3.9583e+17)
(1.00828e+17 -2.50601e+17 -2.03162e+17)
(2.3331e+17 -6.70091e+16 -2.08419e+17)
(6.14188e+16 1.44434e+16 1.72869e+17)
(8.15763e+16 -1.37664e+17 2.37543e+17)
(4.34217e+15 4.03051e+16 2.06865e+17)
(5.25935e+16 -1.47404e+17 2.63129e+17)
(-1.14429e+17 -4.29757e+17 -3.76759e+17)
(-3.99946e+17 -3.50123e+17 5.76562e+16)
(-5.82264e+17 -2.20351e+17 -2.23955e+17)
(-6.16239e+17 -2.20042e+17 5.58517e+16)
(-8.15801e+17 2.55509e+17 4.78567e+17)
(-2.13867e+18 2.19835e+18 1.01283e+18)
(-4.89197e+17 -3.4033e+17 -2.54138e+17)
(-1.04495e+18 1.66269e+17 2.46226e+17)
(-6.28565e+17 -3.66309e+17 1.07968e+17)
(-4.72496e+17 2.51181e+17 2.46213e+17)
(-3.93325e+17 -5.89232e+17 5.683e+17)
(-2.60618e+17 -3.73877e+17 -1.00619e+17)
(-4.6033e+17 -4.87457e+17 4.40053e+17)
(-4.67575e+17 -1.47718e+17 -3.23704e+16)
(-4.8545e+17 -3.76757e+17 3.39068e+17)
(-4.43849e+17 -4.96634e+16 -6.49746e+16)
(-5.72276e+17 -1.3927e+15 2.43241e+17)
(-4.50276e+17 -1.15616e+17 -7.61936e+16)
(-4.72584e+17 -9.13542e+16 1.85106e+17)
(-2.8456e+17 -2.12057e+17 -8.52118e+16)
)
;
    }
}


// ************************************************************************* //
