/*--------------------------------*- C++ -*----------------------------------*\
| =========                 |                                                 |
| \\      /  F ield         | OpenFOAM: The Open Source CFD Toolbox           |
|  \\    /   O peration     | Version:  2.4.0                                 |
|   \\  /    A nd           | Web:      www.OpenFOAM.org                      |
|    \\/     M anipulation  |                                                 |
\*---------------------------------------------------------------------------*/
FoamFile
{
    version     2.0;
    format      ascii;
    class       vectorField;
    location    "0.01/lagrangian/defaultCloud";
    object      U;
}
// * * * * * * * * * * * * * * * * * * * * * * * * * * * * * * * * * * * * * //


33
(
(0.502116 0.0287006 -0.0104557)
(0.461868 -0.00802288 -0.00143384)
(0.465308 0.0245808 -0.00528129)
(0.442266 0.0561834 0.0358063)
(0.39673 0.047597 0.0236554)
(0.406406 0.0176571 0.0174132)
(0.410469 0.104499 0.0330278)
(0.454538 0.0101692 0.0137898)
(0.465181 0.121238 0.0512529)
(0.464664 0.0499173 0.115529)
(0.527354 0.0480183 0.213869)
(0.547211 0.0512091 -0.012438)
(0.411643 0.0186206 -0.0139543)
(0.384367 -0.00209408 -0.0454512)
(0.387508 0.0133542 0.00961326)
(0.382866 -0.00372546 0.0297294)
(0.416805 0.0263066 0.0333652)
(0.451996 0.0199981 0.0333329)
(0.461545 0.00299955 0.0422224)
(0.491187 0.00317835 0.0278361)
(0.483071 -0.000310149 -0.00781847)
(0.513151 0.0160904 0.00455286)
(0.496278 0.048063 0.00161655)
(0.499724 0.0195204 0.000262092)
(0.542852 0.0921271 0.0125114)
(0.590328 0.0223569 0.00681191)
(0.630964 0.0879683 0.00344351)
(0.59413 0.0124936 0.00234838)
(0.581925 0.0100708 0.0555067)
(0.565019 0.0179787 0.0158585)
(0.628039 0.0236115 0.00322188)
(0.589881 0.0518522 0.00505828)
(0.61332 0.0695894 0.0131226)
)


// ************************************************************************* //
