/*--------------------------------*- C++ -*----------------------------------*\
| =========                 |                                                 |
| \\      /  F ield         | OpenFOAM: The Open Source CFD Toolbox           |
|  \\    /   O peration     | Version:  2.4.0                                 |
|   \\  /    A nd           | Web:      www.OpenFOAM.org                      |
|    \\/     M anipulation  |                                                 |
\*---------------------------------------------------------------------------*/
FoamFile
{
    version     2.0;
    format      ascii;
    class       volScalarField;
    location    "0.14";
    object      p;
}
// * * * * * * * * * * * * * * * * * * * * * * * * * * * * * * * * * * * * * //

dimensions      [1 -1 -2 0 0 0 0];

internalField   nonuniform List<scalar> 
200
(
2.41018e+28
2.49998e+28
2.60834e+28
2.20691e+28
1.67101e+28
1.12843e+28
1.05274e+28
9.5978e+27
8.19052e+27
6.57979e+27
2.25533e+28
2.10483e+28
1.86818e+28
2.23078e+28
1.61419e+28
1.79311e+28
1.71539e+28
1.43824e+28
9.10283e+27
5.55529e+27
2.61701e+28
1.65669e+28
6.50111e+27
8.30599e+27
1.67589e+28
1.66705e+28
1.79031e+28
1.69915e+28
1.28706e+28
3.1926e+27
2.20199e+28
1.1905e+28
8.70959e+27
1.32149e+28
7.10927e+27
7.04007e+27
3.4335e+27
6.42525e+27
-7.26325e+27
-8.84617e+27
2.02785e+28
1.93899e+28
1.75281e+28
1.34574e+28
9.43778e+27
7.35313e+27
6.60868e+27
5.57565e+27
5.68618e+27
5.22458e+27
1.7914e+28
1.63242e+28
1.39781e+28
1.04873e+28
7.91266e+27
4.78739e+27
1.88032e+27
1.65435e+27
1.10828e+27
-6.38471e+26
1.31186e+28
9.61319e+27
5.1403e+27
5.43248e+27
2.63483e+27
4.3726e+27
8.38394e+26
-2.74503e+27
-6.55566e+27
-9.30323e+27
8.45081e+27
8.8018e+26
-2.57899e+27
-9.95402e+27
-1.03534e+28
-2.03708e+28
-2.81361e+28
-2.88887e+28
-3.19848e+28
-3.52954e+28
1.878e+28
1.62209e+28
1.36927e+28
9.84043e+27
9.0846e+27
8.08217e+27
6.75437e+27
5.82243e+27
4.19726e+27
2.92603e+27
1.3303e+28
1.03746e+28
7.89545e+27
5.88185e+27
2.95984e+27
1.393e+27
-2.93133e+26
-1.73299e+27
-3.13949e+27
-4.64899e+27
7.47112e+27
2.85728e+27
-9.27326e+26
-5.07383e+27
-9.21667e+27
-1.23995e+28
-1.37424e+28
-1.43917e+28
-1.50916e+28
-1.67023e+28
-3.25597e+26
-6.69338e+27
-1.42631e+28
-2.55633e+28
-3.98491e+28
-4.98356e+28
-4.24884e+28
-3.86262e+28
-3.80732e+28
-3.89152e+28
1.8911e+28
1.70429e+28
1.55317e+28
1.4276e+28
1.32351e+28
1.21715e+28
9.52636e+27
7.04367e+27
4.96253e+27
2.94299e+27
1.58168e+28
1.34079e+28
1.13779e+28
9.45052e+27
7.91316e+27
6.34308e+27
4.39993e+27
1.98985e+27
-9.34855e+26
-3.37995e+27
1.18628e+28
8.09447e+27
5.13167e+27
2.335e+27
6.4691e+26
-2.00498e+26
-1.12255e+27
-3.36082e+27
-7.27682e+27
-1.23279e+28
5.5917e+27
-4.77821e+26
-6.4798e+27
-1.03813e+28
-9.45771e+27
-6.69895e+27
-1.00693e+28
-1.42454e+28
-2.11667e+28
-2.79151e+28
2.05238e+28
1.93246e+28
1.79222e+28
1.63831e+28
1.50008e+28
1.3141e+28
1.10556e+28
8.91723e+27
6.60432e+27
4.37147e+27
1.94963e+28
1.7828e+28
1.59192e+28
1.45015e+28
1.29039e+28
1.10519e+28
8.9072e+27
5.96938e+27
2.67047e+27
-1.45267e+27
1.7952e+28
1.61366e+28
1.47015e+28
1.35856e+28
1.26538e+28
1.11701e+28
9.34268e+27
5.78878e+27
2.96754e+26
-9.25065e+27
1.71009e+28
1.49299e+28
1.37036e+28
1.43146e+28
1.57636e+28
1.64625e+28
1.34633e+28
4.74953e+27
-1.21279e+28
-3.6809e+28
)
;

boundaryField
{
    inlet
    {
        type            zeroGradient;
    }
    outlet
    {
        type            fixedValue;
        value           nonuniform 0();
    }
    bottom
    {
        type            zeroGradient;
    }
    top
    {
        type            symmetryPlane;
    }
    side1
    {
        type            symmetryPlane;
    }
    side2
    {
        type            symmetryPlane;
    }
    procBoundary17to9
    {
        type            processor;
        value           nonuniform List<scalar> 
50
(
2.35458e+28
2.23444e+28
2.29862e+28
1.92684e+28
1.64847e+28
1.44382e+28
1.27447e+28
1.22475e+28
1.11734e+28
9.67136e+27
2.27104e+28
2.17046e+28
1.91214e+28
1.82304e+28
1.66243e+28
1.39709e+28
1.25406e+28
1.20434e+28
1.07545e+28
9.58971e+27
2.16987e+28
1.87145e+28
1.71614e+28
1.58274e+28
1.48352e+28
1.45812e+28
1.34744e+28
1.16741e+28
9.81174e+27
8.21111e+27
2.12384e+28
1.95942e+28
1.81076e+28
1.70054e+28
1.59445e+28
1.50658e+28
1.41137e+28
1.18987e+28
9.73384e+27
8.07826e+27
2.15059e+28
2.04315e+28
1.9211e+28
1.79999e+28
1.6881e+28
1.54759e+28
1.37327e+28
1.19472e+28
1.02308e+28
8.4242e+27
)
;
    }
    procBoundary17to16
    {
        type            processor;
        value           nonuniform List<scalar> 
20
(
2.39907e+28
2.21364e+28
2.39831e+28
2.59567e+28
2.23348e+28
1.88104e+28
1.4793e+28
1.28201e+28
2.09166e+28
1.77897e+28
1.17002e+28
5.80918e+27
2.05239e+28
1.89084e+28
1.56161e+28
1.213e+28
2.18731e+28
2.09953e+28
1.99258e+28
1.94081e+28
)
;
    }
    procBoundary17to18
    {
        type            processor;
        value           nonuniform List<scalar> 
20
(
5.24473e+27
1.20618e+27
-2.5081e+27
-1.88464e+28
4.70266e+27
-2.04667e+27
-1.23179e+28
-3.37447e+28
1.72912e+27
-5.69865e+27
-1.7886e+28
-4.03931e+28
1.59924e+27
-5.72702e+27
-1.66553e+28
-3.84116e+28
1.99001e+27
-5.55252e+27
-2.02257e+28
-7.55296e+28
)
;
    }
    procBoundary17to25
    {
        type            processor;
        value           nonuniform List<scalar> 
50
(
1.86046e+28
1.5409e+28
2.18983e+28
9.83928e+27
4.73864e+27
-1.99315e+28
-5.28855e+28
-1.10461e+29
-7.78052e+28
-6.33315e+28
5.25837e+27
-1.67911e+27
-2.08671e+28
-2.88318e+28
-7.79301e+28
-1.61841e+29
-1.92379e+29
-1.46586e+29
-1.16399e+29
-9.2167e+28
-3.94127e+27
-1.48185e+28
-3.71051e+28
-8.94259e+28
-1.35112e+29
-1.13168e+29
-9.68487e+28
-7.77503e+28
-7.63844e+28
-7.45285e+28
3.07188e+27
-1.08785e+28
-3.65314e+28
-5.27409e+28
-3.73328e+28
-3.38869e+28
-3.59035e+28
-4.55027e+28
-6.10581e+28
-8.18228e+28
1.60559e+28
1.44743e+28
1.44839e+28
1.84593e+28
2.58021e+28
3.18381e+28
2.20361e+28
-2.29174e+28
-1.01496e+29
-2.30735e+29
)
;
    }
}


// ************************************************************************* //
