/*--------------------------------*- C++ -*----------------------------------*\
| =========                 |                                                 |
| \\      /  F ield         | OpenFOAM: The Open Source CFD Toolbox           |
|  \\    /   O peration     | Version:  2.4.0                                 |
|   \\  /    A nd           | Web:      www.OpenFOAM.org                      |
|    \\/     M anipulation  |                                                 |
\*---------------------------------------------------------------------------*/
FoamFile
{
    version     2.0;
    format      ascii;
    class       volVectorField;
    location    "0.14";
    object      Ub;
}
// * * * * * * * * * * * * * * * * * * * * * * * * * * * * * * * * * * * * * //

dimensions      [0 1 -1 0 0 0 0];

internalField   nonuniform List<vector> 
200
(
(6.50069e+13 4.05467e+13 -5.42794e+13)
(-2.48615e+12 -2.84558e+13 -2.31435e+13)
(4.98609e+13 9.8936e+12 -8.2194e+13)
(3.75821e+13 -1.10789e+13 6.71786e+12)
(6.20353e+13 5.85002e+13 2.05863e+12)
(3.83243e+13 -9.24383e+12 3.89362e+12)
(5.81981e+13 7.95826e+13 -6.97905e+13)
(4.94409e+13 7.23807e+11 -2.49174e+13)
(6.86468e+13 1.00745e+14 -4.81772e+13)
(6.67864e+13 -2.34209e+13 -6.25435e+13)
(-3.04708e+13 -4.41988e+13 -6.99635e+12)
(7.07539e+13 2.88585e+13 -3.05682e+13)
(4.92872e+12 -1.34662e+13 -8.05951e+12)
(6.50067e+13 3.74606e+13 -7.97224e+12)
(2.32468e+13 7.30766e+11 -2.07547e+12)
(6.3013e+13 6.51303e+13 -3.80471e+13)
(3.7851e+13 1.84938e+13 -2.22183e+13)
(7.6172e+13 8.312e+13 -5.09656e+13)
(5.92816e+13 3.17893e+10 -3.19952e+13)
(7.55757e+13 9.19319e+13 4.41133e+13)
(3.23924e+13 -6.61575e+12 2.23433e+13)
(-5.16611e+13 -5.20541e+13 -1.20824e+13)
(4.27244e+13 2.8721e+11 1.57955e+13)
(-1.93924e+13 -1.68094e+13 -2.03541e+13)
(6.2803e+13 2.51665e+13 -6.45271e+12)
(6.81841e+12 1.51923e+13 -4.43746e+13)
(8.28988e+13 4.67713e+13 -4.56835e+13)
(3.89664e+13 1.96136e+13 -4.64112e+12)
(5.77685e+13 7.22335e+13 4.58876e+13)
(4.31511e+13 -1.18148e+13 -5.23701e+13)
(-6.9455e+13 -6.219e+13 1.36323e+12)
(-1.59983e+13 -1.35037e+13 2.54418e+13)
(-6.00035e+13 -4.87845e+13 3.83546e+11)
(-2.60756e+13 -1.51353e+12 2.99387e+13)
(-4.61237e+13 -2.86499e+13 -5.98782e+12)
(-6.48885e+12 2.67863e+13 1.98145e+13)
(-1.81588e+13 7.81867e+11 -6.69817e+12)
(1.23827e+13 6.51464e+13 3.51666e+13)
(6.46904e+12 3.54605e+12 -2.22295e+13)
(1.18637e+13 8.10242e+13 2.36023e+13)
(-3.73551e+12 -2.78406e+13 -6.0676e+12)
(3.37385e+13 9.76285e+13 -3.95712e+13)
(2.34058e+12 -9.61558e+12 -2.67895e+13)
(4.7623e+13 7.15206e+13 -1.2454e+13)
(1.39238e+13 7.74536e+12 -1.00709e+13)
(4.96503e+13 6.58719e+13 -1.17242e+13)
(1.55026e+13 1.53281e+13 -1.08026e+13)
(3.09341e+13 7.05217e+13 -2.35671e+13)
(1.49885e+13 -1.11596e+13 -2.56702e+13)
(2.25769e+13 6.82771e+13 -1.11904e+12)
(1.55363e+13 7.27957e+13 -1.54608e+13)
(-2.08131e+13 -2.27297e+13 -1.80946e+13)
(3.85966e+13 6.70713e+13 -1.14679e+13)
(-3.99302e+12 2.23577e+12 -8.2982e+12)
(4.65417e+13 6.74848e+13 -1.56111e+12)
(6.39354e+12 1.91684e+13 6.20082e+11)
(4.22682e+13 5.97521e+13 -1.44176e+13)
(1.63077e+13 -1.71846e+12 -3.63284e+12)
(2.63356e+13 5.84517e+13 2.35503e+13)
(1.063e+13 -2.36828e+13 -2.25012e+13)
(-5.58407e+13 -4.10504e+13 1.23306e+12)
(2.0001e+13 4.16392e+13 7.29022e+12)
(-2.66031e+13 -1.22508e+13 -6.68205e+12)
(3.37329e+13 4.58118e+13 6.39006e+12)
(-8.06032e+12 9.84416e+12 -1.50061e+12)
(4.62079e+13 3.70442e+13 -1.54967e+13)
(7.60358e+11 5.23013e+12 8.58119e+12)
(1.99359e+13 4.79355e+13 4.23461e+13)
(1.60768e+12 -1.27493e+13 -1.03006e+13)
(9.44724e+12 6.86311e+13 3.86679e+13)
(-3.4464e+13 -1.33923e+13 4.83843e+13)
(-7.44483e+13 -4.92106e+13 9.48596e+12)
(-3.23192e+13 -2.78091e+12 4.18653e+13)
(-5.85097e+13 -3.26171e+13 2.97004e+12)
(-2.52861e+13 1.26597e+13 3.70676e+13)
(-4.24378e+13 -1.5537e+13 -2.47498e+12)
(-1.8109e+13 3.37784e+13 4.24372e+13)
(-3.66145e+13 -3.62691e+12 -4.42493e+12)
(-1.64555e+13 5.02695e+13 4.64944e+13)
(-3.6309e+13 9.60391e+12 1.32386e+13)
(-8.41555e+12 8.82193e+13 -3.80879e+13)
(-3.43811e+13 -1.23782e+13 -2.46574e+13)
(-2.01496e+13 8.213e+13 -2.72777e+13)
(-3.99455e+13 2.5902e+12 -4.95056e+13)
(-1.35115e+13 5.87651e+13 -9.80305e+12)
(-3.5281e+13 -6.53039e+11 -4.20541e+13)
(-3.22211e+13 5.87871e+13 1.35515e+13)
(-3.97145e+13 -9.70798e+12 -4.47331e+13)
(-4.18145e+13 6.83188e+13 2.94102e+13)
(-4.19146e+13 -1.65073e+13 -6.25653e+13)
(-5.49722e+13 -1.82957e+13 -2.49345e+13)
(-1.69813e+13 7.42595e+13 -1.67965e+13)
(-5.24647e+13 3.90972e+12 -3.50138e+13)
(-1.56398e+13 5.96548e+13 -2.69631e+12)
(-4.60503e+13 5.90599e+12 -2.60426e+13)
(-1.56563e+13 5.76522e+13 5.19914e+12)
(-3.68853e+13 -5.05256e+12 -1.55426e+13)
(-1.98217e+13 5.68099e+13 3.42241e+13)
(-3.73011e+13 -1.04033e+13 -1.27968e+13)
(-2.25139e+13 6.7352e+13 4.1673e+13)
(-1.95788e+13 3.20955e+13 3.47778e+13)
(-5.61629e+13 -9.75379e+12 -3.83362e+11)
(-4.97291e+12 4.25365e+13 2.13652e+13)
(-4.06462e+13 -8.78029e+11 6.05845e+11)
(-6.41092e+12 3.73998e+13 2.98362e+13)
(-3.34344e+13 -3.45681e+12 7.07919e+12)
(-1.15142e+13 4.11436e+13 5.06779e+13)
(-3.47459e+13 -5.47687e+12 4.10795e+12)
(-1.53449e+13 5.28866e+13 5.19647e+13)
(-3.54836e+13 1.33254e+12 6.22119e+12)
(-8.68598e+13 -3.70131e+13 1.96422e+13)
(-5.67644e+13 2.8902e+12 6.67545e+13)
(-7.28737e+13 -2.35767e+13 1.57189e+13)
(-4.53774e+13 1.22228e+13 6.28314e+13)
(-5.89309e+13 -1.36579e+13 8.66873e+12)
(-3.93567e+13 2.23453e+13 6.19262e+13)
(-5.09074e+13 -4.71482e+12 3.80206e+12)
(-3.75948e+13 3.25479e+13 6.50026e+13)
(-4.56064e+13 4.37008e+12 2.73093e+12)
(-3.20776e+13 4.77096e+13 6.3482e+13)
(-6.61379e+13 -1.23119e+13 -2.24124e+13)
(-4.77539e+13 5.96032e+13 -1.48011e+13)
(-6.01367e+13 -1.03512e+12 -4.50109e+13)
(-4.85256e+13 5.22672e+13 2.20601e+11)
(-4.83741e+13 3.79966e+12 -6.21393e+13)
(-3.55366e+13 4.45685e+13 1.25351e+13)
(-3.82302e+13 1.67876e+11 -4.96884e+13)
(-3.88122e+13 4.71248e+13 2.46677e+13)
(-3.93847e+13 -1.38309e+12 -5.97321e+13)
(-3.85261e+13 4.90712e+13 2.54054e+13)
(-6.25111e+13 4.40826e+13 2.63033e+13)
(-7.5577e+13 -5.26894e+12 -2.00891e+13)
(-5.87323e+13 4.20893e+13 3.24032e+13)
(-6.68843e+13 -2.51353e+12 -2.13064e+13)
(-4.99219e+13 4.23089e+13 3.61989e+13)
(-5.63834e+13 -7.27202e+11 -1.9089e+13)
(-4.45313e+13 4.36044e+13 4.34402e+13)
(-5.0884e+13 -1.28295e+12 -1.56758e+13)
(-4.29596e+13 5.19641e+13 4.74614e+13)
(-4.62362e+13 -2.00715e+12 -3.16255e+13)
(-7.99611e+13 -1.49806e+13 6.15989e+12)
(-5.70077e+13 2.52931e+13 5.47868e+13)
(-7.15647e+13 -9.46511e+12 6.70184e+11)
(-5.4882e+13 2.63605e+13 5.85078e+13)
(-6.24084e+13 -4.55072e+12 -6.69884e+11)
(-4.87369e+13 3.05952e+13 6.1582e+13)
(-5.48838e+13 8.78399e+11 -1.92835e+12)
(-4.47942e+13 3.73275e+13 6.61199e+13)
(-4.87064e+13 4.14265e+12 -2.3158e+12)
(-3.92874e+13 4.94967e+13 6.02132e+13)
(-9.72399e+13 1.53706e+13 7.44931e+13)
(-1.02256e+14 -1.57044e+13 6.07085e+12)
(-8.95743e+13 1.86245e+13 6.54618e+13)
(-9.17881e+13 -8.32259e+12 -1.53267e+11)
(-8.03335e+13 2.2633e+13 6.42026e+13)
(-8.06036e+13 -1.78168e+12 -2.53292e+12)
(-7.05356e+13 2.70696e+13 6.75127e+13)
(-6.96721e+13 3.96885e+12 -2.58724e+12)
(-6.08261e+13 3.27232e+13 7.12147e+13)
(-5.37634e+13 6.4651e+12 -1.7244e+12)
(-5.80285e+13 5.84568e+13 -1.57638e+13)
(-6.43457e+13 1.23779e+13 -2.99852e+13)
(-5.38383e+13 4.34719e+13 -3.76147e+12)
(-7.58187e+13 2.45482e+13 -4.60786e+13)
(-3.86703e+13 4.85742e+13 1.11668e+12)
(4.10787e+12 2.45215e+13 -5.39716e+13)
(8.8856e+12 4.14671e+13 2.42203e+13)
(2.34e+12 1.45343e+13 -4.28797e+13)
(3.26587e+12 2.99495e+13 2.93182e+13)
(6.72041e+12 2.65213e+13 -4.52131e+13)
(-9.92296e+13 -1.20468e+13 -2.9393e+13)
(-9.03098e+13 3.22333e+13 4.3538e+13)
(-8.49657e+13 -4.50238e+12 -3.21795e+13)
(-7.65212e+13 3.43052e+13 4.89874e+13)
(-6.29532e+13 7.99353e+12 -3.02794e+13)
(-4.98338e+13 3.7356e+13 5.36656e+13)
(-4.09673e+13 3.00877e+12 -2.29715e+13)
(-3.29605e+13 3.31012e+13 5.93713e+13)
(-2.59306e+13 2.21374e+12 -2.14705e+13)
(-2.34598e+13 3.69118e+13 4.70763e+13)
(-9.61187e+13 3.08197e+13 7.33668e+13)
(-9.31196e+13 -1.02435e+13 -1.46739e+13)
(-8.48896e+13 2.65995e+13 6.50161e+13)
(-7.83257e+13 -5.96533e+12 -1.87905e+13)
(-7.01334e+13 2.92997e+13 6.2919e+13)
(-6.23482e+13 -2.68691e+11 -1.79656e+13)
(-5.34235e+13 3.02071e+13 6.5958e+13)
(-4.44785e+13 3.60986e+12 -1.39919e+13)
(-3.38264e+13 3.18717e+13 6.86555e+13)
(-2.80723e+13 4.90807e+12 -1.42771e+13)
(-1.21431e+14 -4.48686e+12 -1.18415e+13)
(-1.09637e+14 3.72094e+13 8.46252e+13)
(-1.02197e+14 -5.21254e+12 -1.35969e+13)
(-9.56789e+13 3.07104e+13 6.86698e+13)
(-8.64602e+13 -2.0673e+12 -1.70062e+13)
(-7.95666e+13 2.94891e+13 6.32329e+13)
(-7.00728e+13 1.35235e+12 -1.57571e+13)
(-6.00683e+13 2.92041e+13 6.51935e+13)
(-4.81992e+13 5.02676e+12 -1.26448e+13)
(-3.96969e+13 3.26218e+13 6.73917e+13)
)
;

boundaryField
{
    inlet
    {
        type            fixedValue;
        value           nonuniform 0();
    }
    outlet
    {
        type            zeroGradient;
    }
    bottom
    {
        type            fixedValue;
        value           uniform (0 0 0);
    }
    top
    {
        type            symmetryPlane;
    }
    side1
    {
        type            symmetryPlane;
    }
    side2
    {
        type            symmetryPlane;
    }
    procBoundary15to7
    {
        type            processor;
        value           nonuniform List<vector> 
50
(
(-2.70802e+13 -6.8711e+13 -7.83858e+13)
(4.72024e+13 -4.74888e+13 -4.27503e+13)
(2.70776e+13 2.19967e+11 1.18586e+13)
(6.51616e+13 6.77054e+13 2.6197e+13)
(3.86848e+13 -1.43583e+13 1.05708e+13)
(5.99276e+13 6.33394e+13 -2.52109e+13)
(3.51253e+13 -1.61955e+13 -1.10281e+13)
(5.19495e+13 7.93965e+13 -8.05257e+13)
(4.46331e+13 -2.47806e+13 -5.80245e+13)
(7.2595e+13 9.89591e+13 -6.52736e+13)
(6.20686e+13 7.39839e+13 -8.18098e+12)
(2.74053e+13 -1.40302e+13 -4.84752e+12)
(5.05137e+13 9.79199e+13 -3.41974e+13)
(2.99825e+13 -8.56848e+12 -2.26776e+13)
(6.99674e+13 5.82874e+13 -7.87824e+12)
(3.20139e+13 1.05992e+12 -3.81997e+12)
(3.91394e+13 5.51384e+13 -1.68705e+13)
(1.49898e+13 -4.75171e+12 -3.06877e+13)
(-1.57867e+12 6.88639e+13 -1.26308e+13)
(-8.82501e+12 -2.85311e+13 -6.4773e+13)
(7.96795e+12 -4.48645e+13 6.76254e+12)
(3.66596e+13 8.11714e+13 -5.03337e+13)
(-4.65507e+12 -1.41362e+13 -2.21884e+13)
(1.08709e+13 8.55299e+13 -5.1809e+13)
(-1.58305e+13 -9.22065e+12 -5.7313e+13)
(7.04859e+12 4.01171e+13 -8.41898e+12)
(-1.66642e+13 -6.49789e+12 -5.72971e+13)
(-1.60755e+13 4.97582e+13 8.69498e+12)
(-2.5793e+13 -8.89978e+12 -7.84409e+13)
(-2.63404e+13 5.43707e+13 1.76142e+13)
(2.58873e+13 6.5313e+13 -2.91514e+13)
(-5.05329e+12 -7.68576e+12 1.12179e+13)
(1.68866e+13 4.61306e+13 -6.18763e+13)
(-2.28151e+13 1.16941e+13 -3.35818e+13)
(-4.15626e+12 5.28215e+13 -6.65698e+13)
(1.00056e+13 3.70125e+12 -7.92798e+13)
(1.58113e+13 2.78679e+13 -1.69479e+13)
(4.42539e+12 4.58783e+12 -6.77541e+13)
(-1.85589e+12 2.94303e+13 7.67883e+12)
(-1.04996e+12 2.73458e+13 -6.55543e+13)
(5.22925e+13 1.75561e+13 -2.17875e+13)
(7.5136e+13 8.06751e+13 -5.26284e+13)
(4.51988e+13 3.95702e+13 3.16837e+13)
(1.0538e+14 -1.01092e+13 -7.7165e+13)
(2.30888e+13 4.33971e+14 -1.00975e+12)
(2.87363e+13 8.36022e+13 -1.13999e+14)
(8.80871e+13 3.46676e+13 -7.15052e+13)
(8.06124e+13 4.49778e+13 -2.19403e+13)
(5.46676e+13 3.28968e+13 -5.89743e+13)
(4.85712e+13 1.53708e+13 1.78662e+13)
)
;
    }
    procBoundary15to14
    {
        type            processor;
        value           nonuniform List<vector> 
20
(
(-3.76406e+12 -6.06499e+13 -1.77344e+13)
(5.95457e+13 4.07329e+13 -1.1677e+13)
(-6.73269e+13 -7.27703e+13 -1.00881e+13)
(3.19675e+12 -2.10115e+13 2.93004e+13)
(3.98965e+13 7.19121e+13 -1.62849e+13)
(-4.09755e+13 -4.49116e+13 4.31435e+12)
(-4.56153e+12 6.07119e+12 3.86395e+13)
(-8.32923e+13 -6.34741e+13 1.02084e+13)
(-3.34704e+13 -4.20044e+13 -8.97215e+12)
(-1.65106e+13 7.23739e+13 -1.44857e+13)
(-6.89687e+13 -3.07122e+13 1.25748e+13)
(-6.63926e+13 -3.58834e+12 7.06098e+13)
(-4.80257e+13 5.65681e+13 -6.40725e+12)
(-8.25775e+13 -1.85285e+13 -1.31383e+13)
(-6.31464e+13 2.24296e+13 6.16701e+13)
(-1.13511e+14 -2.68261e+13 1.01437e+13)
(-7.61935e+13 -5.23563e+12 -3.35975e+13)
(-1.00028e+14 3.07977e+13 4.74795e+13)
(-1.08388e+14 -1.02602e+13 -1.2763e+13)
(-1.27665e+14 4.16215e+13 9.07989e+13)
)
;
    }
    procBoundary15to23
    {
        type            processor;
        value           nonuniform List<vector> 
50
(
(-3.19912e+13 -1.83241e+13 2.60661e+13)
(-7.91368e+13 -6.51602e+13 5.72015e+12)
(-5.36159e+13 -1.32967e+13 3.02103e+13)
(-8.58704e+13 -5.65591e+13 -6.847e+11)
(-7.11234e+13 -4.88339e+12 4.11964e+13)
(-9.45879e+13 -3.8272e+13 2.52819e+12)
(-8.02475e+13 1.22933e+13 5.02384e+13)
(-9.7591e+13 -1.2074e+13 5.78012e+12)
(-7.88197e+13 4.04629e+13 5.36639e+13)
(-7.72584e+13 1.0924e+13 2.07444e+13)
(-8.59168e+13 -6.17942e+13 1.19995e+13)
(-5.95172e+13 -7.56461e+12 4.00945e+13)
(-8.65426e+13 -4.8907e+13 3.97585e+12)
(-6.87204e+13 -1.43972e+11 4.35164e+13)
(-8.64228e+13 -3.78043e+13 -8.43771e+10)
(-7.28651e+13 8.61717e+12 4.82925e+13)
(-8.32537e+13 -2.33513e+13 2.31185e+11)
(-6.91654e+13 2.02198e+13 5.35407e+13)
(-7.30598e+13 -6.11321e+12 1.60828e+12)
(-5.33549e+13 3.98729e+13 5.46008e+13)
(-8.57352e+13 -2.8483e+11 6.14891e+13)
(-1.00753e+14 -3.97534e+13 1.41635e+13)
(-8.68846e+13 4.15777e+12 5.83537e+13)
(-9.7587e+13 -2.92629e+13 8.9781e+12)
(-8.49047e+13 1.06275e+13 5.84284e+13)
(-9.14229e+13 -2.10149e+13 6.43638e+12)
(-7.99371e+13 1.88728e+13 6.06376e+13)
(-8.2919e+13 -1.13169e+13 5.05601e+12)
(-7.11792e+13 2.62945e+13 6.37001e+13)
(-6.59056e+13 -1.45346e+12 3.64738e+12)
(-1.34701e+14 -2.89283e+13 8.27281e+11)
(-1.2708e+14 1.65742e+13 6.4557e+13)
(-1.28224e+14 -1.92865e+13 6.23617e+11)
(-1.21192e+14 1.69365e+13 5.81669e+13)
(-1.19525e+14 -1.41387e+13 -1.219e+12)
(-1.10111e+14 1.96435e+13 5.79192e+13)
(-1.0742e+14 -9.84336e+12 -1.20575e+12)
(-9.75204e+13 2.3645e+13 6.08034e+13)
(-9.19271e+13 -5.21107e+12 -7.16519e+11)
(-7.78558e+13 2.92507e+13 6.39131e+13)
(-1.43474e+14 4.64041e+13 9.26414e+13)
(-1.34097e+14 -7.17809e+12 -1.71309e+13)
(-1.22374e+14 3.88649e+13 8.32548e+13)
(-1.12314e+14 -6.27854e+12 -1.57368e+13)
(-1.05724e+14 3.0439e+13 6.59912e+13)
(-9.46566e+13 -4.45315e+12 -1.5971e+13)
(-8.7372e+13 2.76693e+13 5.94728e+13)
(-7.53588e+13 -2.39162e+12 -1.4078e+13)
(-6.4136e+13 2.80978e+13 6.0442e+13)
(-5.51341e+13 1.31545e+12 -1.17854e+13)
)
;
    }
}


// ************************************************************************* //
