/*--------------------------------*- C++ -*----------------------------------*\
| =========                 |                                                 |
| \\      /  F ield         | OpenFOAM: The Open Source CFD Toolbox           |
|  \\    /   O peration     | Version:  2.4.0                                 |
|   \\  /    A nd           | Web:      www.OpenFOAM.org                      |
|    \\/     M anipulation  |                                                 |
\*---------------------------------------------------------------------------*/
FoamFile
{
    version     2.0;
    format      ascii;
    class       volScalarField;
    location    "0.12";
    object      nut;
}
// * * * * * * * * * * * * * * * * * * * * * * * * * * * * * * * * * * * * * //

dimensions      [0 2 -1 0 0 0 0];

internalField   nonuniform List<scalar> 
200
(
233254
218252
181785
123478
213382
153753
217906
190670
270809
307842
188065
152521
183218
176448
208047
161971
203683
172353
253080
236798
139528
221731
150497
186079
117870
199743
155920
238816
149066
274419
123469
172272
137485
103952
158325
155783
176387
186221
209385
145557
141102
162254
141395
162835
165108
261941
105692
132639
409558
524595
140119
128208
151167
100916
168115
197615
187849
152097
246042
439010
53170.8
80839.2
86880.6
106299
112122
130327
215613
151736
135907
307283
20692.1
43609.1
102487
112514
127125
139956
148455
173268
184916
191803
122288
132390
191677
168559
121649
130800
156099
109086
156502
170730
73023.4
122123
150559
158518
97111.3
183536
138927
74620.7
91030.6
193808
58378.5
51664.3
104010
93244.3
153144
167044
201086
117787
111063
116859
33700.1
83955.2
71103.7
181143
131462
170146
317341
314196
285372
313732
50598.6
192702
122833
125501
118280
80843.4
69577.7
130019
155491
133729
164995
141970
135171
103216
83158.5
133937
133287
129396
138752
157931
86658
79298.9
100872
69424.4
136679
232344
135030
89162.3
103835
124664
79624
88732.7
97750
356157
348285
438081
181164
184676
175432
169784
282421
122306
146830
101986
199771
213727
115326
119614
140841
140455
192943
232244
134262
181069
421845
309445
312580
74825.3
125867
154316
97923.9
170220
93544.1
112841
106596
373185
119303
122436
99228.9
132895
307342
186607
69895.1
40673.5
261433
209016
191818
184700
186539
170296
)
;

boundaryField
{
    inlet
    {
        type            calculated;
        value           nonuniform 0();
    }
    outlet
    {
        type            calculated;
        value           nonuniform 0();
    }
    bottom
    {
        type            calculated;
        value           nonuniform List<scalar> 
40
(
7.70621e-19
1.28155e-19
2.60954e-19
2.62319e-19
1.48879e-19
4.54036e-19
2.71005e-19
1.909e-19
4.11185e-19
1.52874e-19
1.94613e-19
1.85671e-19
1.23654e-19
3.4309e-19
1.9845e-19
1.52828e-19
2.87175e-19
1.87127e-19
1.6689e-19
2.26066e-19
1.54064e-19
2.2345e-19
2.53956e-19
1.9503e-19
2.49489e-19
2.02195e-19
2.19281e-19
2.64067e-19
1.99232e-19
2.31267e-19
3.4595e-19
2.33338e-19
3.19093e-19
3.24816e-19
1.89145e-19
3.19596e-19
3.30567e-19
1.91601e-19
4.56276e-19
2.10864e-19
)
;
    }
    top
    {
        type            symmetryPlane;
    }
    side1
    {
        type            symmetryPlane;
    }
    side2
    {
        type            symmetryPlane;
    }
    procBoundary25to17
    {
        type            processor;
        value           nonuniform List<scalar> 
50
(
377308
232530
150755
223519
115130
233764
172243
226467
219472
259553
184632
86871.8
138363
120328
246969
220378
112790
94160.4
137335
416975
73860.3
127284
82966.3
135353
82445.7
215030
180595
138613
143635
242658
118405
197894
68515.7
55166
94061.6
61338.5
75429.7
168547
157715
120083
567502
83380
167208
35530.1
105954
92113
125535
159385
223779
111511
)
;
    }
    procBoundary25to24
    {
        type            processor;
        value           nonuniform List<scalar> 
20
(
275039
139586
218839
123845
203528
143110
12728.1
37184.6
104803
112718
47110.6
71682
95436.8
60531.2
70973.5
84818.3
133879
138217
152093
309729
)
;
    }
    procBoundary25to26
    {
        type            processor;
        value           nonuniform List<scalar> 
20
(
285260
475623
963565
286586
173946
272149
325939
381010
137886
268738
250584
539255
120665
181849
154811
237472
130125
225440
207621
237524
)
;
    }
}


// ************************************************************************* //
