/*--------------------------------*- C++ -*----------------------------------*\
| =========                 |                                                 |
| \\      /  F ield         | OpenFOAM: The Open Source CFD Toolbox           |
|  \\    /   O peration     | Version:  2.4.0                                 |
|   \\  /    A nd           | Web:      www.OpenFOAM.org                      |
|    \\/     M anipulation  |                                                 |
\*---------------------------------------------------------------------------*/
FoamFile
{
    version     2.0;
    format      ascii;
    class       volVectorField;
    location    "0.12";
    object      Ub;
}
// * * * * * * * * * * * * * * * * * * * * * * * * * * * * * * * * * * * * * //

dimensions      [0 1 -1 0 0 0 0];

internalField   nonuniform List<vector> 
200
(
(-1.68346e+09 3.56387e+09 -1.09372e+10)
(2.18707e+09 1.56364e+09 8.87352e+08)
(4.92634e+08 3.63311e+09 -5.26158e+09)
(2.82886e+09 3.32294e+09 4.01612e+08)
(2.05534e+09 4.29321e+09 -2.59172e+09)
(4.01262e+09 4.49337e+09 5.13756e+08)
(3.89058e+09 4.59778e+09 -1.59913e+09)
(5.57912e+09 5.08736e+09 2.25765e+08)
(5.89827e+09 5.95135e+09 -1.63549e+09)
(7.92951e+09 6.82195e+09 8.33911e+07)
(1.77704e+09 1.13493e+09 8.7954e+08)
(9.15737e+07 2.9218e+09 -6.50561e+09)
(3.19123e+09 2.09986e+09 5.81996e+08)
(1.77852e+09 3.41961e+09 -4.37014e+09)
(4.61147e+09 2.72134e+09 5.70646e+08)
(4.04469e+09 3.40319e+09 -1.96372e+09)
(6.05425e+09 3.27054e+09 -1.37613e+08)
(6.08325e+09 3.5141e+09 -1.7876e+09)
(8.85955e+09 3.27183e+09 -1.30533e+09)
(9.70037e+09 2.82594e+09 -7.63899e+08)
(2.59961e+09 1.69719e+09 -3.48697e+09)
(3.9281e+09 1.33815e+09 -1.79054e+09)
(3.447e+09 1.84957e+09 -1.60647e+09)
(5.1438e+09 1.52412e+09 -3.87685e+08)
(4.90744e+09 1.67636e+09 -1.16661e+09)
(6.56241e+09 1.82672e+09 -1.45709e+09)
(7.0159e+09 2.25705e+09 -7.59984e+08)
(8.32289e+09 1.96733e+09 -2.04302e+09)
(8.2638e+09 2.15517e+09 2.60464e+08)
(9.9635e+09 2.27968e+09 -4.10976e+09)
(4.0494e+09 2.1749e+08 -2.7096e+09)
(3.94117e+09 7.70763e+08 -5.51832e+08)
(4.91922e+09 6.88001e+08 -6.22323e+08)
(4.78951e+09 8.64323e+08 -4.11781e+08)
(5.35143e+09 5.05019e+08 -1.74042e+09)
(6.09881e+09 9.26951e+08 -3.10441e+08)
(6.94518e+09 5.24646e+08 -1.64101e+09)
(7.79068e+09 1.25565e+09 -1.72199e+08)
(9.06069e+09 7.46038e+08 -1.72336e+09)
(9.91391e+09 1.25197e+09 1.42965e+08)
(1.88468e+09 8.21053e+08 -1.78263e+08)
(4.92518e+08 3.49971e+09 -4.82396e+09)
(1.99559e+09 3.19318e+09 -3.31755e+08)
(2.1095e+09 4.61928e+09 -1.53426e+09)
(3.29208e+09 5.88688e+09 -5.42543e+08)
(4.62521e+09 8.17791e+09 -1.04397e+09)
(6.25086e+09 8.49685e+09 -5.22404e+08)
(7.27693e+09 7.44044e+09 -1.53671e+09)
(9.55696e+09 7.24992e+09 5.28856e+07)
(5.90088e+09 1.53861e+10 1.7546e+09)
(2.65174e+09 1.08215e+09 -2.42408e+09)
(3.04113e+09 1.66523e+09 -3.03307e+08)
(3.43155e+09 2.92159e+09 -2.06472e+09)
(4.50575e+09 3.44018e+09 -8.39253e+08)
(4.92075e+09 4.54591e+09 -2.13147e+09)
(6.84974e+09 4.97801e+09 -2.9895e+08)
(7.91249e+09 6.26653e+09 -2.19833e+09)
(9.95427e+09 6.08217e+09 9.80522e+07)
(1.0045e+10 4.85322e+09 1.85253e+07)
(9.22403e+09 9.97865e+09 -2.60524e+09)
(3.93356e+09 2.16881e+08 -8.36972e+06)
(3.82286e+09 9.08625e+08 -1.7186e+08)
(5.03311e+09 1.78957e+09 -6.08951e+08)
(5.61832e+09 2.4553e+09 -9.76004e+08)
(6.96251e+09 2.73215e+09 -1.46558e+08)
(7.56051e+09 2.72157e+09 -1.15129e+09)
(8.51638e+09 3.03875e+09 3.67128e+08)
(9.08985e+09 3.29769e+09 2.28047e+08)
(1.06022e+10 4.0462e+09 -7.7873e+08)
(1.20495e+10 5.67862e+09 7.39317e+07)
(4.49299e+09 4.84616e+08 1.46315e+09)
(4.97858e+09 4.81227e+08 1.99789e+08)
(4.77286e+09 6.84786e+08 4.8718e+08)
(6.15015e+09 1.52117e+09 1.88213e+09)
(6.92142e+09 1.31845e+09 -4.09224e+08)
(7.71057e+09 7.85341e+08 5.5533e+08)
(8.51138e+09 1.27717e+09 8.51197e+08)
(9.39302e+09 1.10464e+09 2.78145e+08)
(1.01188e+10 1.35711e+09 8.11136e+08)
(1.06802e+10 4.78997e+08 2.77888e+08)
(3.37414e+09 2.3754e+09 -1.23154e+09)
(3.5258e+09 1.58868e+09 -2.00282e+09)
(3.97562e+09 4.7981e+09 -3.9146e+09)
(5.3211e+09 5.34048e+09 -1.94359e+09)
(6.12325e+09 5.85982e+09 -9.68274e+08)
(6.25203e+09 6.41575e+09 -1.20112e+09)
(6.43998e+09 9.07503e+09 -1.39493e+09)
(7.4431e+09 7.28562e+09 -2.86795e+08)
(8.28476e+09 6.63843e+09 -5.67778e+08)
(8.85825e+09 6.6411e+09 -7.8841e+07)
(4.16796e+09 -2.74734e+08 -1.91516e+09)
(5.68638e+09 1.48794e+09 6.5557e+07)
(5.58012e+09 1.84302e+09 -3.52619e+09)
(7.10201e+09 4.07382e+09 -7.43059e+08)
(6.76788e+09 4.55929e+09 -1.91339e+09)
(7.41977e+09 5.06753e+09 -2.4115e+09)
(7.82485e+09 7.38259e+09 -2.15557e+08)
(8.48445e+09 5.98897e+09 -6.42313e+08)
(9.39377e+09 5.34848e+09 -6.22566e+08)
(1.03832e+10 6.44546e+09 1.15543e+09)
(5.56367e+09 6.86849e+08 7.58928e+08)
(4.9652e+09 7.58314e+07 -2.02752e+09)
(6.06857e+09 2.09834e+09 -6.03557e+07)
(5.80149e+09 2.13814e+09 -2.04308e+09)
(7.26639e+09 3.17401e+09 -1.12091e+09)
(8.24387e+09 3.57595e+09 -4.65571e+08)
(9.78953e+09 6.11663e+09 -2.13864e+09)
(1.08467e+10 5.59497e+09 -1.26267e+09)
(1.10634e+10 4.57517e+09 -1.00146e+08)
(1.16934e+10 3.92683e+09 -8.74221e+08)
(4.83614e+09 -3.24836e+08 -7.57007e+08)
(5.43203e+09 8.22011e+08 1.77606e+09)
(5.30382e+09 6.71736e+06 -1.04397e+09)
(6.69296e+09 1.44483e+09 2.12918e+09)
(7.07294e+09 5.978e+08 -1.46581e+09)
(7.23755e+09 9.04921e+08 -1.92599e+09)
(1.07856e+10 2.61771e+09 -2.41527e+09)
(1.46908e+10 3.50058e+09 -1.70913e+09)
(1.73912e+10 2.84373e+09 6.06092e+08)
(1.82757e+10 3.19876e+09 2.61343e+09)
(3.92562e+09 5.2467e+09 -2.52011e+09)
(4.5538e+09 4.32688e+09 -4.74773e+08)
(5.7216e+09 5.79294e+09 -3.54051e+09)
(5.80084e+09 4.76427e+09 -2.03799e+09)
(5.79313e+09 4.89723e+09 -1.21297e+09)
(6.14641e+09 6.20128e+09 -8.56773e+07)
(5.90308e+09 5.87457e+09 -4.65722e+08)
(7.10021e+09 6.42062e+09 -1.04587e+09)
(8.09474e+09 7.57947e+09 -4.47004e+08)
(9.20295e+09 8.05273e+09 5.4516e+08)
(3.56504e+09 3.47695e+09 -2.9699e+08)
(4.52505e+09 2.4022e+09 -2.63138e+09)
(5.57399e+09 3.35398e+09 -2.13248e+09)
(6.34036e+09 3.26421e+09 -1.24727e+09)
(7.54831e+09 4.50869e+09 -2.28924e+07)
(6.50226e+09 4.53758e+09 -2.38215e+09)
(7.77605e+09 4.63964e+09 -2.17336e+09)
(8.79119e+09 4.82002e+09 -1.03115e+09)
(9.62902e+09 5.60226e+09 3.23643e+08)
(1.10188e+10 5.57497e+09 -5.39092e+08)
(4.36693e+09 1.0253e+09 -1.58619e+09)
(5.07663e+09 1.53516e+09 -6.73448e+07)
(4.99823e+09 1.26033e+09 -1.94416e+09)
(6.06229e+09 2.29797e+09 -3.71635e+08)
(5.42889e+09 2.61836e+09 -2.00776e+09)
(6.85469e+09 2.2655e+09 -2.29682e+09)
(8.73697e+09 2.8818e+09 -1.35146e+09)
(9.36571e+09 3.55171e+09 -4.55003e+08)
(1.03562e+10 3.51058e+09 -8.08474e+08)
(1.11904e+10 3.05902e+09 6.04502e+08)
(4.66554e+09 9.57378e+08 4.54351e+08)
(5.18638e+09 -5.27146e+06 -1.4961e+09)
(6.35624e+09 1.03019e+09 3.40072e+08)
(6.65991e+09 1.48378e+09 -1.99033e+09)
(1.0893e+10 4.88863e+09 1.13224e+10)
(8.22723e+09 -2.45167e+09 -9.67242e+08)
(9.51009e+09 8.08637e+08 -2.08216e+09)
(9.06962e+09 1.83815e+09 -1.44039e+09)
(1.04064e+10 2.02842e+09 3.73203e+07)
(1.16409e+10 1.39236e+09 -2.02892e+08)
(4.15178e+09 5.71114e+09 3.72281e+08)
(4.91232e+09 9.69791e+09 -4.88656e+09)
(5.93787e+09 5.47517e+09 -1.2121e+09)
(5.97409e+09 6.57721e+09 -1.62708e+09)
(7.09814e+09 4.06481e+09 -1.03468e+09)
(6.44452e+09 6.93018e+09 3.4898e+08)
(5.64719e+09 7.33615e+09 6.65934e+07)
(6.6408e+09 6.36242e+09 -7.93102e+08)
(7.52431e+09 6.87089e+09 1.82675e+08)
(9.02515e+09 7.02763e+09 -5.30846e+08)
(5.2085e+09 5.8984e+09 -2.00324e+09)
(5.28089e+09 4.98448e+09 -2.80944e+09)
(6.24739e+09 2.9705e+09 -1.42789e+09)
(6.48544e+09 3.45183e+09 -1.02577e+09)
(8.6197e+09 1.82548e+09 1.40241e+09)
(8.20256e+09 1.24318e+10 9.34286e+09)
(8.88215e+09 6.38318e+09 -1.91437e+09)
(9.19224e+09 5.10628e+09 -4.25353e+08)
(9.13894e+09 4.81239e+09 -8.7221e+08)
(9.65202e+09 5.31534e+09 1.48157e+09)
(3.69538e+09 4.71619e+08 4.94871e+08)
(5.57567e+09 2.90557e+09 -2.26125e+08)
(5.90587e+09 1.15688e+09 -1.30218e+09)
(6.56437e+09 8.17066e+08 -4.79207e+08)
(7.32646e+09 2.27487e+09 9.07e+08)
(6.78771e+09 4.65734e+09 -1.81118e+09)
(9.33531e+09 4.69791e+09 -1.51787e+09)
(9.56467e+09 4.21057e+09 -6.12163e+08)
(9.56354e+09 3.79756e+09 6.079e+08)
(1.0779e+10 3.24316e+09 -4.25431e+08)
(6.66298e+09 3.44928e+09 2.06983e+09)
(6.2498e+09 -9.08927e+07 -8.34119e+08)
(6.07071e+09 2.01335e+07 -8.95081e+08)
(5.78711e+09 4.02359e+08 -8.05834e+08)
(6.54635e+09 6.57571e+08 -1.73354e+09)
(8.84625e+09 1.69479e+09 -5.23698e+08)
(9.59652e+09 2.14517e+09 -1.25195e+08)
(1.22027e+10 2.28376e+09 -4.74289e+08)
(1.33682e+10 1.79124e+09 4.88334e+06)
(1.519e+10 1.82277e+09 7.26589e+08)
)
;

boundaryField
{
    inlet
    {
        type            fixedValue;
        value           nonuniform 0();
    }
    outlet
    {
        type            zeroGradient;
    }
    bottom
    {
        type            fixedValue;
        value           uniform (0 0 0);
    }
    top
    {
        type            symmetryPlane;
    }
    side1
    {
        type            symmetryPlane;
    }
    side2
    {
        type            symmetryPlane;
    }
    procBoundary25to17
    {
        type            processor;
        value           nonuniform List<vector> 
50
(
(9.56646e+08 7.44141e+08 1.12482e+09)
(-6.58388e+08 3.8707e+09 -7.12822e+09)
(1.64575e+09 2.82417e+09 3.84237e+08)
(1.02419e+09 3.87116e+09 -1.9841e+09)
(1.98178e+09 5.70252e+09 -2.40822e+08)
(2.32481e+09 5.19204e+09 -7.00148e+08)
(2.87898e+09 6.41185e+09 -4.30215e+08)
(3.64372e+09 5.87644e+09 -7.56013e+08)
(4.25671e+09 7.7903e+09 -3.83189e+07)
(4.95348e+09 7.79201e+09 -3.11045e+08)
(7.91101e+08 4.12443e+09 -3.47158e+09)
(1.29009e+09 3.0419e+09 1.14638e+08)
(8.17136e+08 4.92086e+09 -1.97099e+09)
(1.6734e+09 5.47397e+09 -1.47695e+08)
(2.67096e+09 8.13383e+09 -2.24611e+08)
(4.12535e+09 1.17497e+10 -9.89951e+07)
(5.38757e+09 9.66727e+09 -1.11513e+08)
(5.50575e+09 9.83877e+09 -2.17951e+08)
(5.99131e+09 7.15248e+09 -6.70462e+08)
(5.66101e+09 1.10707e+10 5.46987e+08)
(2.87545e+09 1.04154e+09 -7.74424e+08)
(3.08922e+09 4.25448e+09 -8.89779e+08)
(3.53605e+09 4.10952e+09 -1.15084e+09)
(3.86248e+09 6.94528e+09 -1.65094e+09)
(4.78437e+09 6.89453e+09 -2.70017e+08)
(5.51293e+09 5.61633e+09 3.03734e+08)
(3.87073e+09 1.09855e+10 1.09025e+09)
(4.80432e+09 9.51158e+09 4.82994e+08)
(6.79792e+09 1.00261e+10 1.83337e+08)
(7.64242e+09 7.06374e+09 -2.13713e+09)
(3.55834e+09 4.93838e+09 3.06269e+08)
(3.79206e+09 7.041e+09 -7.19723e+08)
(4.46522e+09 7.67911e+09 -1.41042e+09)
(4.81675e+09 5.52936e+09 -1.50208e+09)
(5.15313e+09 5.70318e+09 -1.40291e+09)
(5.5797e+09 6.39513e+09 -8.82042e+08)
(5.76918e+09 6.31477e+09 -6.67099e+08)
(5.61328e+09 7.58026e+09 -6.15858e+08)
(7.18177e+09 9.86384e+09 -1.00872e+09)
(7.8705e+09 9.46234e+09 -2.4334e+08)
(3.50917e+09 9.29238e+09 6.05455e+08)
(5.18827e+09 9.80405e+09 -3.47261e+08)
(5.01797e+09 6.64726e+09 -5.51037e+08)
(3.9449e+09 7.47311e+09 1.21989e+08)
(4.75486e+09 6.89753e+09 -3.19826e+08)
(4.68692e+09 6.35863e+09 -5.97303e+07)
(4.17713e+09 8.77314e+09 3.59926e+07)
(4.95844e+09 9.22843e+09 -4.42433e+08)
(6.36815e+09 9.09383e+09 -6.92698e+08)
(7.73551e+09 9.33636e+09 5.12339e+07)
)
;
    }
    procBoundary25to24
    {
        type            processor;
        value           nonuniform List<vector> 
20
(
(4.63361e+08 1.01794e+08 1.35502e+09)
(-1.4578e+09 3.10157e+09 -8.26014e+09)
(1.96731e+09 1.29764e+09 -3.20909e+09)
(3.57264e+09 4.87803e+08 -1.09516e+08)
(5.47493e+08 2.76243e+09 -6.65316e+09)
(3.15151e+09 -1.3391e+08 4.29217e+08)
(3.87441e+09 8.50461e+08 9.37681e+08)
(4.47758e+09 3.92165e+08 5.07216e+08)
(3.22137e+09 3.55554e+07 -1.00727e+09)
(4.36773e+09 7.80572e+08 -2.92807e+08)
(4.80229e+09 -2.72011e+08 -1.09199e+09)
(4.99391e+09 7.25916e+08 1.91785e+09)
(4.01673e+09 3.23384e+09 -4.28797e+08)
(3.32182e+09 2.33835e+09 -9.83461e+08)
(3.98981e+09 2.32187e+09 3.27252e+08)
(4.72096e+09 3.42164e+08 -1.29297e+09)
(4.12793e+09 3.55957e+09 7.55455e+07)
(3.76552e+09 2.23883e+09 7.05536e+08)
(4.33068e+09 1.85333e+09 -2.87384e+08)
(1.23066e+09 6.64456e+08 9.41866e+09)
)
;
    }
    procBoundary25to26
    {
        type            processor;
        value           nonuniform List<vector> 
20
(
(8.2989e+09 8.66706e+09 -1.67668e+09)
(1.25368e+10 6.76241e+09 -9.06025e+09)
(1.00439e+10 2.96984e+09 8.99812e+08)
(1.11694e+10 3.76012e+08 -5.79474e+09)
(6.68554e+09 1.81161e+10 9.05166e+07)
(1.25986e+10 1.16796e+10 -6.66122e+08)
(1.62211e+10 8.80004e+09 -2.46168e+09)
(1.15959e+10 1.44857e+09 1.84199e+08)
(9.27802e+09 1.02271e+10 1.22175e+09)
(9.44389e+09 8.5647e+09 5.53264e+08)
(1.34124e+10 3.11994e+09 4.85924e+08)
(2.33267e+10 7.81534e+08 7.89761e+09)
(1.03243e+10 7.80974e+09 -3.5778e+08)
(1.19797e+10 5.96101e+09 1.62833e+09)
(1.2969e+10 2.74641e+09 4.40944e+07)
(1.2149e+10 9.78193e+08 2.14345e+09)
(9.73773e+09 8.03142e+09 1.18764e+09)
(1.1041e+10 6.81595e+09 -3.97811e+08)
(1.27361e+10 3.60187e+09 1.23771e+09)
(1.62404e+10 1.27089e+09 -1.45071e+08)
)
;
    }
}


// ************************************************************************* //
