/*--------------------------------*- C++ -*----------------------------------*\
| =========                 |                                                 |
| \\      /  F ield         | OpenFOAM: The Open Source CFD Toolbox           |
|  \\    /   O peration     | Version:  2.4.0                                 |
|   \\  /    A nd           | Web:      www.OpenFOAM.org                      |
|    \\/     M anipulation  |                                                 |
\*---------------------------------------------------------------------------*/
FoamFile
{
    version     2.0;
    format      ascii;
    class       volScalarField;
    location    "0.09";
    object      p;
}
// * * * * * * * * * * * * * * * * * * * * * * * * * * * * * * * * * * * * * //

dimensions      [1 -1 -2 0 0 0 0];

internalField   nonuniform List<scalar> 
200
(
6.23439e+16
6.23204e+16
6.22854e+16
6.23108e+16
6.2146e+16
6.19931e+16
6.1941e+16
6.18685e+16
6.1768e+16
6.16393e+16
6.23673e+16
6.23161e+16
6.22627e+16
6.21811e+16
6.20712e+16
6.2057e+16
6.19991e+16
6.1991e+16
6.188e+16
6.17132e+16
6.23632e+16
6.2333e+16
6.22989e+16
6.22573e+16
6.22178e+16
6.21471e+16
6.21495e+16
6.21021e+16
6.2012e+16
6.18847e+16
6.23108e+16
6.23119e+16
6.23109e+16
6.22895e+16
6.2246e+16
6.22234e+16
6.21734e+16
6.21128e+16
6.2025e+16
6.18657e+16
6.23106e+16
6.22765e+16
6.22339e+16
6.21869e+16
6.21302e+16
6.20896e+16
6.20329e+16
6.19478e+16
6.18569e+16
6.16785e+16
6.23352e+16
6.22989e+16
6.22617e+16
6.22174e+16
6.21784e+16
6.21385e+16
6.2099e+16
6.20647e+16
6.19601e+16
6.18582e+16
6.23622e+16
6.23303e+16
6.22989e+16
6.22633e+16
6.22318e+16
6.22153e+16
6.21997e+16
6.21956e+16
6.22082e+16
6.20873e+16
6.23737e+16
6.23563e+16
6.23284e+16
6.23045e+16
6.22775e+16
6.22554e+16
6.22612e+16
6.22993e+16
6.24459e+16
6.18305e+16
6.22861e+16
6.22451e+16
6.22167e+16
6.21837e+16
6.21403e+16
6.21057e+16
6.20125e+16
6.19637e+16
6.18323e+16
6.16609e+16
6.23022e+16
6.22693e+16
6.22369e+16
6.22095e+16
6.21826e+16
6.21328e+16
6.2126e+16
6.20338e+16
6.19127e+16
6.18937e+16
6.23311e+16
6.22974e+16
6.22604e+16
6.22181e+16
6.21886e+16
6.21673e+16
6.21043e+16
6.20337e+16
6.20981e+16
6.155e+16
6.23586e+16
6.23265e+16
6.22864e+16
6.22388e+16
6.21784e+16
6.21074e+16
6.19485e+16
6.1741e+16
6.14575e+16
6.08171e+16
6.22903e+16
6.22554e+16
6.22224e+16
6.2168e+16
6.21096e+16
6.19777e+16
6.19225e+16
6.17294e+16
6.14558e+16
6.13439e+16
6.23324e+16
6.22809e+16
6.22336e+16
6.21891e+16
6.20782e+16
6.20524e+16
6.1771e+16
6.13913e+16
6.13535e+16
6.11497e+16
6.2339e+16
6.23088e+16
6.22615e+16
6.21787e+16
6.20764e+16
6.18331e+16
6.14482e+16
6.1044e+16
6.05748e+16
5.99443e+16
6.23575e+16
6.23296e+16
6.2276e+16
6.21835e+16
6.20224e+16
6.16688e+16
6.13281e+16
6.09673e+16
5.97645e+16
5.79885e+16
6.22813e+16
6.2237e+16
6.21784e+16
6.21103e+16
6.20239e+16
6.19041e+16
6.17641e+16
6.16367e+16
6.15678e+16
6.14952e+16
6.22957e+16
6.22456e+16
6.21867e+16
6.21215e+16
6.1997e+16
6.1826e+16
6.16374e+16
6.14566e+16
6.13207e+16
6.11966e+16
6.23366e+16
6.22862e+16
6.22279e+16
6.21284e+16
6.19784e+16
6.1762e+16
6.14642e+16
6.1084e+16
6.07968e+16
6.16123e+16
6.23702e+16
6.23363e+16
6.22739e+16
6.21883e+16
6.20567e+16
6.18095e+16
6.15228e+16
6.1106e+16
6.1013e+16
5.95823e+16
)
;

boundaryField
{
    inlet
    {
        type            zeroGradient;
    }
    outlet
    {
        type            fixedValue;
        value           nonuniform 0();
    }
    bottom
    {
        type            zeroGradient;
    }
    top
    {
        type            symmetryPlane;
    }
    side1
    {
        type            symmetryPlane;
    }
    side2
    {
        type            symmetryPlane;
    }
    procBoundary12to4
    {
        type            processor;
        value           nonuniform List<scalar> 
50
(
6.23189e+16
6.22939e+16
6.22763e+16
6.22284e+16
6.22233e+16
6.20447e+16
6.19443e+16
6.18436e+16
6.17287e+16
6.15384e+16
6.22872e+16
6.22524e+16
6.22201e+16
6.21797e+16
6.21276e+16
6.20645e+16
6.19918e+16
6.19051e+16
6.17861e+16
6.16696e+16
6.22732e+16
6.22387e+16
6.21993e+16
6.21659e+16
6.21141e+16
6.20518e+16
6.20003e+16
6.18802e+16
6.18111e+16
6.16608e+16
6.22734e+16
6.22359e+16
6.22078e+16
6.21617e+16
6.20953e+16
6.20225e+16
6.18987e+16
6.1818e+16
6.16616e+16
6.14722e+16
6.22651e+16
6.22259e+16
6.21766e+16
6.21226e+16
6.20433e+16
6.19534e+16
6.18492e+16
6.17425e+16
6.16457e+16
6.16004e+16
)
;
    }
    procBoundary12to11
    {
        type            processor;
        value           nonuniform List<scalar> 
20
(
6.23692e+16
6.24178e+16
6.23991e+16
6.23498e+16
6.23399e+16
6.23648e+16
6.23898e+16
6.24025e+16
6.23147e+16
6.23382e+16
6.23592e+16
6.23798e+16
6.23337e+16
6.23577e+16
6.23688e+16
6.23787e+16
6.23106e+16
6.23442e+16
6.23623e+16
6.23849e+16
)
;
    }
    procBoundary12to13
    {
        type            processor;
        value           nonuniform List<scalar> 
20
(
6.14121e+16
6.15072e+16
6.17065e+16
6.15196e+16
6.14974e+16
6.16945e+16
6.15184e+16
6.10602e+16
6.15238e+16
6.12091e+16
6.10352e+16
5.83176e+16
6.10386e+16
6.08109e+16
5.97374e+16
5.39945e+16
6.13643e+16
6.13017e+16
6.11984e+16
5.99372e+16
)
;
    }
    procBoundary12to20
    {
        type            processor;
        value           nonuniform List<scalar> 
50
(
6.23346e+16
6.23228e+16
6.23229e+16
6.233e+16
6.2293e+16
6.22314e+16
6.21744e+16
6.20255e+16
6.19283e+16
6.1741e+16
6.23876e+16
6.23633e+16
6.23395e+16
6.23265e+16
6.23069e+16
6.22798e+16
6.22419e+16
6.21925e+16
6.19143e+16
6.13737e+16
6.23673e+16
6.23399e+16
6.23259e+16
6.2296e+16
6.22531e+16
6.21777e+16
6.20848e+16
6.18293e+16
6.12324e+16
6.0209e+16
6.23669e+16
6.236e+16
6.23409e+16
6.23014e+16
6.22227e+16
6.21098e+16
6.20067e+16
6.1867e+16
6.17485e+16
5.889e+16
6.24126e+16
6.23992e+16
6.23658e+16
6.23079e+16
6.21853e+16
6.21321e+16
6.21033e+16
6.22165e+16
6.15374e+16
5.90591e+16
)
;
    }
}


// ************************************************************************* //
