/*--------------------------------*- C++ -*----------------------------------*\
| =========                 |                                                 |
| \\      /  F ield         | OpenFOAM: The Open Source CFD Toolbox           |
|  \\    /   O peration     | Version:  2.4.0                                 |
|   \\  /    A nd           | Web:      www.OpenFOAM.org                      |
|    \\/     M anipulation  |                                                 |
\*---------------------------------------------------------------------------*/
FoamFile
{
    version     2.0;
    format      ascii;
    class       volVectorField;
    location    "0.11";
    object      A_Source;
}
// * * * * * * * * * * * * * * * * * * * * * * * * * * * * * * * * * * * * * //

dimensions      [1 -2 -2 0 0 0 0];

internalField   nonuniform List<vector> 
200
(
(2.30483e-23 1.63874e-23 -3.16792e-23)
(2.18293e-25 1.55169e-25 -3.00037e-25)
(2.00713e-27 1.42643e-27 -2.75875e-27)
(1.74713e-29 1.24141e-29 -2.40138e-29)
(1.44305e-31 1.02514e-31 -1.98343e-31)
(1.14015e-33 8.09789e-34 -1.5671e-33)
(8.68574e-36 6.16755e-36 -1.19383e-35)
(6.42118e-38 4.55835e-38 -8.82573e-38)
(4.62949e-40 3.28551e-40 -6.3631e-40)
(3.26701e-42 2.31788e-42 -4.49041e-42)
(7.55376e-26 5.37273e-26 -1.03824e-25)
(6.57384e-28 4.67478e-28 -9.03554e-28)
(5.80326e-30 4.12591e-30 -7.97641e-30)
(5.05266e-32 3.59151e-32 -6.94474e-32)
(4.27294e-34 3.03666e-34 -5.87303e-34)
(3.49313e-36 2.48198e-36 -4.80121e-36)
(2.76228e-38 1.96229e-38 -3.79667e-38)
(2.11885e-40 1.50488e-40 -2.9123e-40)
(1.58183e-42 1.1232e-42 -2.17418e-42)
(1.15293e-44 8.18453e-45 -1.58466e-44)
(2.24809e-28 1.5994e-28 -3.08993e-28)
(1.95295e-30 1.38922e-30 -2.68428e-30)
(1.69246e-32 1.20369e-32 -2.32624e-32)
(1.45817e-34 1.03686e-34 -2.00421e-34)
(1.23801e-36 8.80134e-37 -1.70161e-36)
(1.02843e-38 7.30998e-39 -1.41355e-38)
(8.32855e-41 5.9187e-41 -1.14474e-40)
(6.56934e-43 4.66759e-43 -9.02937e-43)
(5.05102e-45 3.58808e-45 -6.94248e-45)
(3.79166e-47 2.6929e-47 -5.21153e-47)
(6.06074e-31 4.31276e-31 -8.33031e-31)
(5.45798e-33 3.88339e-33 -7.50183e-33)
(4.78917e-35 3.40703e-35 -6.58257e-35)
(4.13699e-37 2.94257e-37 -5.68617e-37)
(3.52352e-39 2.50577e-39 -4.84297e-39)
(2.952e-41 2.09894e-41 -4.05744e-41)
(2.42564e-43 1.72436e-43 -3.33398e-43)
(1.95087e-45 1.3866e-45 -2.68142e-45)
(1.53451e-47 1.09046e-47 -2.10914e-47)
(1.18062e-49 8.38812e-50 -1.62272e-49)
(2.23325e-25 1.5875e-25 -3.06953e-25)
(2.20715e-27 1.56857e-27 -3.03366e-27)
(2.11443e-29 1.50236e-29 -2.90622e-29)
(1.91377e-31 1.35952e-31 -2.63041e-31)
(1.64058e-33 1.16522e-33 -2.25492e-33)
(1.34322e-35 9.53814e-36 -1.84621e-35)
(1.05893e-37 7.51762e-38 -1.45547e-37)
(8.09145e-40 5.74282e-40 -1.11215e-39)
(6.0231e-42 4.27361e-42 -8.27857e-42)
(4.38405e-44 3.10971e-44 -6.02575e-44)
(7.65834e-28 5.44607e-28 -1.05262e-27)
(6.92321e-30 4.92228e-30 -9.51574e-30)
(6.34717e-32 4.51174e-32 -8.724e-32)
(5.73413e-34 4.07512e-34 -7.8814e-34)
(5.02561e-36 3.57087e-36 -6.90755e-36)
(4.25243e-38 3.0209e-38 -5.84483e-38)
(3.47631e-40 2.46904e-40 -4.77808e-40)
(2.7535e-42 1.95524e-42 -3.78461e-42)
(2.12042e-44 1.50535e-44 -2.91446e-44)
(1.59265e-46 1.13039e-46 -2.18906e-46)
(2.37709e-30 1.69088e-30 -3.26724e-30)
(2.14054e-32 1.5224e-32 -2.94212e-32)
(1.92181e-34 1.36657e-34 -2.64147e-34)
(1.71433e-36 1.2188e-36 -2.3563e-36)
(1.5058e-38 1.07033e-38 -2.06967e-38)
(1.29291e-40 9.18827e-41 -1.77707e-40)
(1.08115e-42 7.68183e-43 -1.486e-42)
(8.79689e-45 6.24919e-45 -1.20911e-44)
(6.97052e-47 4.95075e-47 -9.58078e-47)
(5.38768e-49 3.82573e-49 -7.40521e-49)
(6.66558e-33 4.74239e-33 -9.16164e-33)
(6.21443e-35 4.42091e-35 -8.54155e-35)
(5.64022e-37 4.01184e-37 -7.75231e-37)
(5.03582e-39 3.58133e-39 -6.92159e-39)
(4.43006e-41 3.14996e-41 -6.08899e-41)
(3.83067e-43 2.72326e-43 -5.26514e-43)
(3.24613e-45 2.30727e-45 -4.46171e-45)
(2.69024e-47 1.9118e-47 -3.69765e-47)
(2.17869e-49 1.54797e-49 -2.99454e-49)
(1.72442e-51 1.22498e-51 -2.37017e-51)
(1.13172e-27 8.04308e-28 -1.55552e-27)
(1.16527e-29 8.27952e-30 -1.60163e-29)
(1.16137e-31 8.2501e-32 -1.59627e-31)
(1.09152e-33 7.75238e-34 -1.50026e-33)
(9.69979e-36 6.8878e-36 -1.33321e-35)
(8.22052e-38 5.83611e-38 -1.12989e-37)
(6.69967e-40 4.75525e-40 -9.2085e-40)
(5.28632e-42 3.75109e-42 -7.26588e-42)
(4.05922e-44 2.87954e-44 -5.57928e-44)
(3.04498e-46 2.15939e-46 -4.18524e-46)
(4.0537e-30 2.88215e-30 -5.57169e-30)
(3.80158e-32 2.70234e-32 -5.22515e-32)
(3.61492e-34 2.56908e-34 -4.9686e-34)
(3.38456e-36 2.40486e-36 -4.65197e-36)
(3.0708e-38 2.18149e-38 -4.22072e-38)
(2.68666e-40 1.90822e-40 -3.69273e-40)
(2.26834e-42 1.61077e-42 -3.11777e-42)
(1.85365e-44 1.31601e-44 -2.54778e-44)
(1.47125e-46 1.04428e-46 -2.0222e-46)
(1.13793e-48 8.07486e-49 -1.56405e-48)
(1.31025e-32 9.31854e-33 -1.8009e-32)
(1.22158e-34 8.68664e-35 -1.67903e-34)
(1.13495e-36 8.0691e-37 -1.55996e-36)
(1.04711e-38 7.44309e-39 -1.43922e-38)
(9.50559e-41 6.75542e-41 -1.30652e-40)
(8.42796e-43 5.9884e-43 -1.1584e-42)
(7.27071e-45 5.16512e-45 -9.99338e-45)
(6.09759e-47 4.33087e-47 -8.38095e-47)
(4.97556e-49 3.53321e-49 -6.83876e-49)
(3.95691e-51 2.80925e-51 -5.43866e-51)
(3.81626e-35 2.71474e-35 -5.24534e-35)
(3.67951e-37 2.61717e-37 -5.05738e-37)
(3.45071e-39 2.45408e-39 -4.7429e-39)
(3.18136e-41 2.26213e-41 -4.37268e-41)
(2.88803e-43 2.05318e-43 -3.96951e-43)
(2.57523e-45 1.83046e-45 -3.53958e-45)
(2.24872e-47 1.59808e-47 -3.09081e-47)
(1.91891e-49 1.36344e-49 -2.63748e-49)
(1.59887e-51 1.13582e-51 -2.1976e-51)
(1.30103e-53 9.24057e-54 -1.78822e-53)
(3.98322e-30 2.83024e-30 -5.47481e-30)
(4.26611e-32 3.03051e-32 -5.86364e-32)
(4.41693e-34 3.137e-34 -6.07094e-34)
(4.30489e-36 3.05684e-36 -5.91694e-36)
(3.96081e-38 2.81196e-38 -5.44402e-38)
(3.4707e-40 2.46348e-40 -4.77038e-40)
(2.92112e-42 2.07289e-42 -4.01499e-42)
(2.37775e-44 1.68685e-44 -3.26814e-44)
(1.88172e-46 1.33456e-46 -2.58636e-46)
(1.45348e-48 1.03053e-48 -1.99777e-48)
(1.48771e-32 1.05755e-32 -2.04481e-32)
(1.44543e-34 1.02728e-34 -1.9867e-34)
(1.42376e-36 1.01166e-36 -1.95692e-36)
(1.37984e-38 9.80239e-39 -1.89654e-38)
(1.29453e-40 9.19455e-41 -1.7793e-40)
(1.16984e-42 8.30725e-43 -1.60791e-42)
(1.01908e-44 7.2352e-45 -1.4007e-44)
(8.58379e-47 6.09292e-47 -1.17982e-46)
(7.01598e-49 4.97889e-49 -9.64326e-49)
(5.5833e-51 3.96118e-51 -7.67408e-51)
(4.99982e-35 3.55526e-35 -6.8721e-35)
(4.82058e-37 3.4273e-37 -6.62574e-37)
(4.62942e-39 3.29078e-39 -6.363e-39)
(4.41262e-41 3.13604e-41 -6.06502e-41)
(4.13568e-43 2.93863e-43 -5.68437e-43)
(3.78273e-45 2.6873e-45 -5.19925e-45)
(3.36355e-47 2.38905e-47 -4.6231e-47)
(2.90496e-49 2.06291e-49 -3.99278e-49)
(2.43904e-51 1.73168e-51 -3.35238e-51)
(1.99424e-53 1.41558e-53 -2.74103e-53)
(1.51057e-37 1.07439e-37 -2.07623e-37)
(1.50454e-39 1.06999e-39 -2.06795e-39)
(1.45644e-41 1.03563e-41 -2.00184e-41)
(1.38515e-43 9.84766e-44 -1.90384e-43)
(1.29635e-45 9.21463e-46 -1.78179e-45)
(1.19095e-47 8.46387e-48 -1.63693e-47)
(1.07071e-49 7.60787e-50 -1.47165e-49)
(9.40005e-52 6.67791e-52 -1.29201e-51)
(8.05217e-54 5.71926e-54 -1.10675e-53)
(6.73123e-56 4.78009e-56 -9.25188e-56)
(1.09567e-32 7.78351e-33 -1.49912e-32)
(1.21894e-34 8.65704e-35 -1.66749e-34)
(1.30934e-36 9.29718e-37 -1.79085e-36)
(1.32179e-38 9.38384e-39 -1.80758e-38)
(1.25779e-40 8.92774e-41 -1.71977e-40)
(1.13843e-42 8.07879e-43 -1.55632e-42)
(9.88595e-45 7.01377e-45 -1.35125e-44)
(8.29433e-47 5.88299e-47 -1.13351e-46)
(6.75963e-49 4.79305e-49 -9.23628e-49)
(5.3724e-51 3.80822e-51 -7.33957e-51)
(4.26068e-35 3.02816e-35 -5.8285e-35)
(4.2837e-37 3.04388e-37 -5.85906e-37)
(4.3659e-39 3.1016e-39 -5.97051e-39)
(4.3751e-41 3.10747e-41 -5.98209e-41)
(4.24009e-43 3.01098e-43 -5.79654e-43)
(3.95402e-45 2.80728e-45 -5.40456e-45)
(3.55086e-47 2.52052e-47 -4.85269e-47)
(3.0804e-49 2.18609e-49 -4.20905e-49)
(2.59084e-51 1.83822e-51 -3.53952e-51)
(2.11989e-53 1.5037e-53 -2.89565e-53)
(1.48684e-37 1.05708e-37 -2.0336e-37)
(1.48093e-39 1.05272e-39 -2.0252e-39)
(1.46859e-41 1.04375e-41 -2.00801e-41)
(1.4448e-43 1.02664e-43 -1.97516e-43)
(1.39678e-45 9.92315e-46 -1.9092e-45)
(1.31683e-47 9.35329e-48 -1.79962e-47)
(1.2059e-49 8.56371e-50 -1.64775e-49)
(1.07174e-51 7.60941e-52 -1.46418e-51)
(9.25243e-54 6.56792e-54 -1.26384e-53)
(7.77274e-56 5.51635e-56 -1.06154e-55)
(4.6541e-40 3.30968e-40 -6.36448e-40)
(4.78405e-42 3.40173e-42 -6.54116e-42)
(4.77594e-44 3.39548e-44 -6.52904e-44)
(4.68144e-46 3.32773e-46 -6.39882e-46)
(4.51316e-48 3.20752e-48 -6.16781e-48)
(4.26845e-50 3.03302e-50 -5.83243e-50)
(3.94803e-52 2.80481e-52 -5.39373e-52)
(3.56351e-54 2.53115e-54 -4.8676e-54)
(3.13616e-56 2.22717e-56 -4.28315e-56)
(2.69166e-58 1.91113e-58 -3.67547e-58)
)
;

boundaryField
{
    inlet
    {
        type            zeroGradient;
    }
    outlet
    {
        type            zeroGradient;
    }
    bottom
    {
        type            zeroGradient;
    }
    top
    {
        type            symmetryPlane;
    }
    side1
    {
        type            symmetryPlane;
    }
    side2
    {
        type            symmetryPlane;
    }
    procBoundary17to9
    {
        type            processor;
        value           nonuniform List<vector> 
50
(
(1.51163e-20 1.07415e-20 -2.07769e-20)
(1.24353e-22 8.83507e-23 -1.70919e-22)
(9.77961e-25 6.94705e-25 -1.34418e-24)
(7.43239e-27 5.27855e-27 -1.02156e-26)
(5.50075e-29 3.90567e-29 -7.56062e-29)
(3.98556e-31 2.82899e-31 -5.47803e-31)
(2.83673e-33 2.01286e-33 -3.899e-33)
(1.98758e-35 1.40982e-35 -2.73188e-35)
(1.37261e-37 9.73231e-38 -1.88661e-37)
(9.34903e-40 6.62621e-40 -1.285e-39)
(1.42348e-22 1.01126e-22 -1.95653e-22)
(1.22056e-24 8.66981e-25 -1.67763e-24)
(9.9891e-27 7.09416e-27 -1.37297e-26)
(7.88877e-29 5.60134e-29 -1.08429e-28)
(6.0592e-31 4.30115e-31 -8.32819e-31)
(4.55069e-33 3.22934e-33 -6.25478e-33)
(3.35363e-35 2.37905e-35 -4.60947e-35)
(2.43037e-37 1.72346e-37 -3.34047e-37)
(1.73422e-39 1.22931e-39 -2.38363e-39)
(1.21931e-41 8.63968e-42 -1.6759e-41)
(7.01609e-25 4.98307e-25 -9.64341e-25)
(6.26087e-27 4.44608e-27 -8.60538e-27)
(5.32453e-29 3.78052e-29 -7.31842e-29)
(4.36384e-31 3.09775e-31 -5.99796e-31)
(3.47421e-33 2.46559e-33 -4.7752e-33)
(2.70158e-35 1.91668e-35 -3.71324e-35)
(2.05923e-37 1.46045e-37 -2.83035e-37)
(1.542e-39 1.0932e-39 -2.11943e-39)
(1.13586e-41 8.04954e-42 -1.56121e-41)
(8.23662e-44 5.8347e-44 -1.1321e-43)
(2.40366e-27 1.70674e-27 -3.30376e-27)
(2.22887e-29 1.58242e-29 -3.06351e-29)
(1.96699e-31 1.39626e-31 -2.70357e-31)
(1.67079e-33 1.18576e-33 -2.29646e-33)
(1.37708e-35 9.77056e-36 -1.89275e-35)
(1.10744e-37 7.855e-38 -1.52214e-37)
(8.72141e-40 6.18387e-40 -1.19873e-39)
(6.7413e-42 4.77805e-42 -9.26571e-42)
(5.12129e-44 3.62838e-44 -7.03906e-44)
(3.82671e-46 2.71007e-46 -5.2597e-46)
(6.44022e-30 4.57178e-30 -8.81264e-30)
(6.1973e-32 4.39879e-32 -8.47888e-32)
(5.66829e-34 4.02266e-34 -7.75386e-34)
(4.98432e-36 3.53652e-36 -6.81712e-36)
(4.24835e-38 3.01353e-38 -5.80959e-38)
(3.52973e-40 2.503e-40 -4.82609e-40)
(2.86929e-42 2.03395e-42 -3.92245e-42)
(2.2873e-44 1.62076e-44 -3.12633e-44)
(1.79056e-46 1.26826e-46 -2.44698e-46)
(1.37758e-48 9.75343e-49 -1.88229e-48)
)
;
    }
    procBoundary17to16
    {
        type            processor;
        value           nonuniform List<vector> 
20
(
(4.91835e-21 3.49687e-21 -6.76013e-21)
(1.29557e-23 9.21433e-24 -1.78073e-23)
(3.2005e-26 2.27686e-26 -4.399e-26)
(7.48021e-29 5.32264e-29 -1.02813e-28)
(4.63451e-23 3.29431e-23 -6.36999e-23)
(1.27328e-25 9.05393e-26 -1.75009e-25)
(3.27508e-28 2.32948e-28 -4.5015e-28)
(7.95754e-31 5.66133e-31 -1.09374e-30)
(2.28563e-25 1.62431e-25 -3.14153e-25)
(6.53906e-28 4.64879e-28 -8.98775e-28)
(1.74873e-30 1.2436e-30 -2.40358e-30)
(4.41125e-33 3.13781e-33 -6.06313e-33)
(7.8347e-28 5.56655e-28 -1.07686e-27)
(2.33049e-30 1.65646e-30 -3.20318e-30)
(6.47053e-33 4.60061e-33 -8.89356e-33)
(1.69232e-35 1.20358e-35 -2.32604e-35)
(2.10026e-30 1.49189e-30 -2.87394e-30)
(6.48657e-33 4.60958e-33 -8.8746e-33)
(1.86743e-35 1.32751e-35 -2.55451e-35)
(5.05801e-38 3.59664e-38 -6.91786e-38)
)
;
    }
    procBoundary17to18
    {
        type            processor;
        value           nonuniform List<vector> 
20
(
(8.60681e-45 6.1072e-45 -1.18298e-44)
(4.26469e-47 3.02809e-47 -5.86169e-47)
(1.76052e-49 1.25055e-49 -2.41978e-49)
(6.37579e-52 4.53036e-52 -8.76334e-52)
(1.17846e-46 8.36035e-47 -1.61976e-46)
(6.02822e-49 4.27948e-49 -8.28561e-49)
(2.56258e-51 1.81997e-51 -3.52219e-51)
(9.54271e-54 6.77959e-54 -1.31162e-53)
(8.34865e-49 5.92154e-49 -1.1475e-48)
(4.40518e-51 3.1267e-51 -6.05479e-51)
(1.92699e-53 1.36834e-53 -2.64859e-53)
(7.37386e-56 5.23793e-56 -1.01352e-55)
(4.0631e-51 2.88127e-51 -5.5846e-51)
(2.20952e-53 1.56798e-53 -3.03692e-53)
(9.93818e-56 7.05582e-56 -1.36597e-55)
(3.90517e-58 2.77355e-58 -5.36754e-58)
(1.53067e-53 1.08522e-53 -2.09091e-53)
(8.57215e-56 6.08207e-56 -1.17075e-55)
(3.9619e-58 2.81236e-58 -5.4101e-58)
(1.59769e-60 1.13455e-60 -2.18134e-60)
)
;
    }
    procBoundary17to25
    {
        type            processor;
        value           nonuniform List<vector> 
50
(
(6.08495e-34 4.33113e-34 -8.36358e-34)
(6.78932e-36 4.83175e-36 -9.33172e-36)
(7.14334e-38 5.083e-38 -9.81831e-38)
(7.0214e-40 4.99556e-40 -9.65071e-40)
(6.52661e-42 4.64289e-42 -8.97064e-42)
(5.80385e-44 4.12814e-44 -7.97722e-44)
(4.9775e-46 3.53986e-46 -6.84143e-46)
(4.13878e-48 2.94295e-48 -5.68864e-48)
(3.34845e-50 2.3806e-50 -4.60235e-50)
(2.64252e-52 1.87841e-52 -3.63206e-52)
(6.84159e-36 4.86899e-36 -9.40357e-36)
(7.92058e-38 5.636e-38 -1.08866e-37)
(8.63337e-40 6.14237e-40 -1.18663e-39)
(8.77696e-42 6.24369e-42 -1.20637e-41)
(8.42697e-44 5.9939e-44 -1.15826e-43)
(7.7318e-46 5.49867e-46 -1.06271e-45)
(6.83491e-48 4.8601e-48 -9.39438e-48)
(5.85277e-50 4.16111e-50 -8.04446e-50)
(4.87231e-52 3.4635e-52 -6.69685e-52)
(3.95333e-54 2.80979e-54 -5.43374e-54)
(4.00243e-38 2.84801e-38 -5.50122e-38)
(4.80222e-40 3.41659e-40 -6.60051e-40)
(5.41683e-42 3.85334e-42 -7.44527e-42)
(5.69014e-44 4.04723e-44 -7.82093e-44)
(5.63797e-46 4.00957e-46 -7.74922e-46)
(5.33274e-48 3.79197e-48 -7.3297e-48)
(4.85538e-50 3.45202e-50 -6.67357e-50)
(4.27864e-52 3.04152e-52 -5.88087e-52)
(3.6626e-54 2.60319e-54 -5.03413e-54)
(3.0535e-56 2.16993e-56 -4.19695e-56)
(1.61793e-40 1.1511e-40 -2.22379e-40)
(2.00945e-42 1.42943e-42 -2.76192e-42)
(2.34304e-44 1.66652e-44 -3.22044e-44)
(2.54058e-46 1.80678e-46 -3.49195e-46)
(2.59534e-48 1.84547e-48 -3.56722e-48)
(2.52848e-50 1.79768e-50 -3.47532e-50)
(2.36916e-52 1.68415e-52 -3.25634e-52)
(2.14681e-54 1.52586e-54 -2.95073e-54)
(1.88829e-56 1.34191e-56 -2.5954e-56)
(1.61644e-58 1.14853e-58 -2.22175e-58)
(5.08844e-43 3.61972e-43 -6.95773e-43)
(6.53502e-45 4.64804e-45 -8.9342e-45)
(7.86922e-47 5.59625e-47 -1.07564e-46)
(8.79979e-49 6.25721e-49 -1.20264e-48)
(9.26064e-51 6.58402e-51 -1.26541e-50)
(9.28565e-53 6.60087e-53 -1.26862e-52)
(8.94743e-55 6.35951e-55 -1.22221e-54)
(8.33153e-57 5.92085e-57 -1.13789e-56)
(7.52521e-59 5.34699e-59 -1.02759e-58)
(6.61049e-61 4.69629e-61 -9.02535e-61)
)
;
    }
}


// ************************************************************************* //
