/*--------------------------------*- C++ -*----------------------------------*\
| =========                 |                                                 |
| \\      /  F ield         | OpenFOAM: The Open Source CFD Toolbox           |
|  \\    /   O peration     | Version:  2.4.0                                 |
|   \\  /    A nd           | Web:      www.OpenFOAM.org                      |
|    \\/     M anipulation  |                                                 |
\*---------------------------------------------------------------------------*/
FoamFile
{
    version     2.0;
    format      ascii;
    class       volVectorField;
    location    "0.15";
    object      U;
}
// * * * * * * * * * * * * * * * * * * * * * * * * * * * * * * * * * * * * * //

dimensions      [0 1 -1 0 0 0 0];

internalField   nonuniform List<vector> 
200
(
(9.47122e+13 3.95771e+14 -6.70035e+14)
(1.75878e+14 -1.63513e+14 -7.58833e+14)
(3.60333e+14 4.12155e+14 -9.23754e+14)
(3.94121e+14 -1.72203e+14 -6.51043e+14)
(6.09819e+14 3.0065e+14 -8.02699e+14)
(6.15435e+14 -6.49862e+13 -5.03736e+14)
(7.46031e+14 1.50679e+14 -6.81913e+14)
(7.18575e+14 3.50689e+14 -2.96243e+14)
(7.3701e+14 7.72374e+13 -2.86009e+14)
(5.97174e+14 2.97108e+14 -1.21898e+14)
(-5.97509e+13 -1.12923e+14 -5.54719e+14)
(1.92469e+14 6.73655e+14 -9.06381e+14)
(3.4011e+14 3.09305e+14 -7.73019e+14)
(5.23841e+14 6.30417e+14 -7.89042e+14)
(6.55358e+14 2.74718e+14 -5.46913e+14)
(7.02375e+14 3.65036e+14 -4.47429e+14)
(6.93114e+14 4.88011e+14 -1.61848e+14)
(6.1976e+14 1.97773e+14 -1.22647e+14)
(5.75675e+14 7.53165e+14 -2.20829e+14)
(6.35614e+14 1.66326e+14 -2.13067e+14)
(1.21771e+14 7.13661e+14 -7.00613e+14)
(-2.76855e+13 1.44898e+14 -3.34373e+14)
(2.67858e+14 6.0034e+14 -7.13592e+14)
(3.49236e+14 4.32997e+14 -5.61909e+14)
(5.39032e+14 5.92172e+14 -5.14392e+14)
(6.0414e+14 6.25025e+14 -1.04729e+14)
(5.48447e+14 3.08584e+14 -1.51572e+14)
(5.5562e+14 6.04457e+14 -6.43936e+13)
(4.43078e+14 1.40223e+14 2.07783e+13)
(5.29931e+14 4.96234e+14 4.50228e+13)
(-5.93082e+12 2.01532e+14 -2.77709e+14)
(1.23261e+14 7.17021e+14 -6.11169e+14)
(8.76675e+13 4.28008e+14 -4.1198e+14)
(2.84545e+14 6.55928e+14 -5.26862e+14)
(3.93265e+14 7.42699e+14 -1.68161e+14)
(4.61113e+14 5.28206e+14 -2.50363e+14)
(5.24416e+14 6.21666e+14 4.65671e+13)
(3.8542e+14 3.13437e+14 -1.19302e+13)
(5.58547e+14 2.38217e+14 1.44656e+13)
(3.07822e+14 1.11907e+14 3.98001e+14)
(9.42365e+13 -2.66095e+14 -1.01431e+15)
(2.42658e+14 3.4638e+14 -1.28676e+15)
(3.41855e+14 -1.69212e+14 -1.21012e+15)
(3.91291e+14 2.35433e+14 -1.39178e+15)
(5.03087e+14 -1.13822e+14 -1.03841e+15)
(4.14396e+14 1.59336e+13 -9.48086e+14)
(6.18487e+14 -3.32206e+14 -8.33757e+14)
(7.2821e+14 1.35314e+14 -1.19106e+15)
(7.76643e+14 2.77134e+14 -7.25342e+14)
(9.14276e+14 2.77611e+14 -8.11326e+14)
(2.44858e+14 4.05111e+14 -9.32154e+14)
(9.64758e+13 -1.85011e+14 -8.19477e+14)
(3.85889e+14 4.54613e+14 -1.19035e+15)
(6.90087e+14 3.19648e+14 -1.2246e+15)
(5.62368e+14 3.20596e+14 -8.03034e+14)
(9.90309e+14 3.70667e+14 -7.81783e+14)
(3.52763e+14 -6.63591e+14 3.4632e+14)
(7.80284e+14 3.04332e+14 -3.29588e+14)
(2.83736e+14 -7.91124e+14 8.1998e+14)
(5.4648e+14 5.76868e+14 -1.76202e+14)
(-2.40991e+14 -5.2759e+14 3.17077e+14)
(3.30599e+14 1.41158e+14 -2.68883e+14)
(9.75568e+13 -5.29528e+14 -3.83036e+14)
(5.3018e+14 -5.53488e+12 -8.68971e+14)
(7.14326e+14 3.84076e+14 -9.66029e+14)
(6.19549e+14 2.07436e+13 -1.05583e+14)
(8.8579e+14 3.08126e+14 -2.40866e+14)
(3.06317e+14 -4.74902e+14 6.45616e+14)
(4.80686e+14 3.01007e+14 4.95993e+13)
(-5.54408e+13 -3.22662e+14 7.65256e+14)
(1.69608e+14 -6.89427e+13 1.68993e+13)
(3.58136e+12 -1.25655e+14 1.40797e+13)
(2.96917e+14 -1.30597e+14 -3.26385e+14)
(3.27225e+14 2.9161e+14 -9.35635e+14)
(2.92951e+14 2.16857e+14 -8.34617e+14)
(4.67278e+14 3.08887e+14 -6.11654e+14)
(5.5745e+14 -1.34685e+14 1.58576e+14)
(6.17941e+14 1.02615e+14 4.91053e+13)
(1.97731e+14 -4.09077e+14 7.28504e+14)
(2.99311e+14 1.56061e+14 2.29698e+14)
(1.52207e+14 2.85715e+14 -1.81136e+15)
(1.64751e+14 -1.72742e+14 -1.63463e+15)
(1.92865e+14 2.60125e+14 -1.79918e+15)
(2.79729e+14 7.13786e+13 -1.99184e+15)
(-1.15745e+14 -6.67883e+13 -1.31477e+15)
(5.30104e+14 1.54423e+14 -1.30719e+15)
(4.06581e+13 -7.30274e+14 -5.32428e+14)
(9.09463e+14 -1.88578e+14 -9.19317e+14)
(8.81674e+14 -2.74378e+14 -9.25579e+14)
(1.23765e+15 2.45483e+14 -7.41968e+14)
(-1.16409e+14 -3.13859e+14 -7.76414e+14)
(3.89553e+14 3.36367e+14 -1.42014e+15)
(3.77153e+14 2.11016e+14 -1.63178e+15)
(1.94967e+14 3.71016e+14 -1.34209e+15)
(8.66699e+14 6.67887e+14 -1.76957e+15)
(-3.18893e+14 -1.69966e+15 1.40822e+15)
(1.41579e+15 6.01943e+14 -8.24828e+14)
(-4.47832e+14 -2.791e+15 3.0617e+15)
(1.04934e+15 1.99636e+14 -4.62405e+14)
(-4.06692e+14 -2.98645e+15 3.79297e+15)
(2.53467e+14 1.30541e+14 -8.6029e+14)
(-1.97266e+14 -2.61143e+14 -2.58514e+14)
(5.7525e+14 4.98767e+14 -1.31166e+15)
(6.79493e+14 4.48862e+14 -1.48277e+15)
(4.24307e+14 -1.37147e+14 -4.53439e+14)
(1.26375e+15 6.69648e+14 -1.08223e+15)
(2.66581e+14 -1.30664e+15 1.41743e+15)
(9.2134e+14 7.50812e+13 -1.69455e+14)
(-2.2595e+14 -1.29414e+15 1.84085e+15)
(3.75756e+14 -6.58581e+13 -6.24712e+13)
(-9.80543e+13 -3.40524e+14 5.60646e+14)
(2.52605e+14 5.94483e+13 -1.04312e+14)
(-6.05794e+13 -5.03813e+13 -3.84818e+13)
(5.8408e+14 2.87999e+14 -8.76641e+14)
(6.59439e+14 2.91237e+14 -1.08551e+15)
(6.41924e+14 -4.57287e+14 4.45495e+13)
(9.0719e+14 1.55165e+14 -4.30364e+14)
(1.96678e+14 -1.16899e+15 1.26716e+15)
(3.05783e+14 -4.16878e+14 2.31146e+14)
(-3.69655e+14 -4.0275e+14 8.03868e+14)
(2.09726e+14 -5.24768e+14 -1.86897e+15)
(4.8832e+14 3.52768e+14 -1.95283e+15)
(3.30112e+14 -9.49878e+13 -1.93379e+15)
(-9.63506e+13 1.35129e+14 -1.49628e+15)
(4.82794e+13 -3.33942e+14 -1.2315e+15)
(-5.2726e+14 -6.04893e+14 -6.4269e+14)
(4.63259e+14 -5.11118e+14 -8.14959e+14)
(2.44621e+14 -1.2121e+15 -9.18814e+13)
(1.09294e+15 -9.92341e+14 -3.67227e+14)
(1.97908e+15 2.57748e+14 -1.16601e+15)
(2.20194e+14 -8.81528e+14 -1.83755e+15)
(-5.866e+13 -2.43851e+14 -1.2602e+15)
(5.29355e+14 6.45563e+14 -1.62281e+15)
(3.50794e+14 2.67202e+14 -1.66606e+15)
(-6.58904e+14 -2.36376e+14 -5.69685e+14)
(6.94169e+14 2.74941e+14 -1.47932e+15)
(-1.05575e+15 -2.41716e+15 2.02147e+15)
(1.48951e+15 2.41282e+14 -1.13154e+15)
(-6.57574e+14 -3.83156e+15 3.17342e+15)
(1.57224e+15 -1.02943e+15 -4.86708e+14)
(-6.42045e+14 -1.5806e+15 7.61336e+14)
(2.2623e+14 -1.50437e+15 -2.01158e+15)
(-1.70258e+14 1.83734e+14 -1.23316e+15)
(3.20241e+14 6.14403e+14 -1.14599e+15)
(6.94716e+14 5.22948e+14 -1.60418e+15)
(-7.05459e+14 -1.95099e+15 1.95301e+15)
(1.17371e+15 3.89267e+14 -9.64132e+14)
(-7.89836e+14 -3.31094e+15 3.88643e+15)
(1.09875e+15 2.07537e+14 -5.16626e+14)
(-1.25575e+15 -4.5549e+15 5.47599e+15)
(4.89298e+14 -5.38075e+13 -1.3133e+15)
(-7.89202e+14 -1.87821e+15 1.58707e+15)
(3.83464e+14 -1.6935e+15 -2.28123e+15)
(2.33542e+14 7.37363e+14 -1.4287e+15)
(4.19027e+14 2.03961e+14 -1.37488e+14)
(1.01466e+15 5.40221e+14 -1.21103e+15)
(-8.87672e+13 -1.6069e+15 1.95197e+15)
(9.16207e+14 -2.22191e+14 -4.07995e+14)
(-5.77678e+14 -2.27375e+15 2.87764e+15)
(4.05341e+14 -1.01348e+15 -2.79224e+14)
(7.41111e+14 -2.45862e+15 -1.75344e+15)
(9.37652e+14 -1.35661e+15 -1.08683e+15)
(1.51262e+15 1.18728e+14 -8.51153e+14)
(6.96489e+14 -8.08656e+14 -6.73949e+14)
(8.13071e+14 4.10388e+14 -6.23603e+14)
(4.18602e+14 -9.77274e+14 -3.68446e+14)
(7.23338e+14 3.76608e+14 -4.69635e+14)
(5.91306e+14 -1.20164e+15 1.901e+14)
(1.18427e+15 8.6046e+14 -5.22906e+14)
(7.64622e+14 -1.46148e+15 5.66303e+14)
(-1.01157e+15 -4.06676e+15 2.41924e+15)
(7.55592e+14 -3.00894e+15 -1.87874e+15)
(7.5905e+14 -1.23271e+15 -1.1111e+15)
(1.23803e+15 8.01741e+13 -7.37881e+14)
(5.57592e+14 -7.11455e+14 -8.56974e+14)
(4.29465e+14 2.09453e+14 -2.84345e+14)
(3.73035e+14 -1.07616e+15 -6.73683e+14)
(5.18368e+14 -4.47258e+14 2.56819e+14)
(9.76581e+14 -1.2495e+15 -2.68581e+14)
(1.85836e+15 4.88366e+14 -3.23452e+14)
(7.52026e+14 -1.52827e+15 -2.06654e+15)
(-1.71069e+15 -6.34596e+15 5.33556e+15)
(9.72504e+14 -3.75432e+15 -2.47418e+15)
(9.38854e+14 -7.69097e+14 -1.25288e+15)
(1.13391e+15 3.4215e+14 -7.38078e+14)
(6.15833e+14 -1.93776e+14 -1.13385e+15)
(-6.5416e+13 -7.7017e+14 1.29114e+15)
(8.64408e+14 -6.83326e+14 -9.02651e+14)
(2.83682e+14 -1.56748e+15 1.59235e+15)
(1.31596e+15 -1.5527e+15 -7.34648e+14)
(-1.19189e+15 -3.82924e+15 3.19333e+15)
(1.08902e+15 -1.30017e+15 -1.86789e+15)
(-2.31767e+15 -8.73645e+15 8.47149e+15)
(1.3588e+15 -3.39534e+15 -2.81644e+15)
(1.37105e+15 7.66835e+13 -1.41328e+15)
(1.0362e+15 6.82111e+14 -2.86755e+14)
(1.06938e+15 3.91263e+14 -9.71723e+14)
(1.00784e+14 -1.06171e+15 2.0499e+15)
(1.08328e+15 -7.47347e+14 -7.03745e+14)
(3.34486e+14 -1.68381e+15 2.22807e+15)
)
;

boundaryField
{
    inlet
    {
        type            calculated;
        value           nonuniform List<vector> 
20
(
(5.13114 0 0)
(5.99449 0 0)
(5.99998 0 0)
(6 0 0)
(5.99784 0 0)
(5.99998 0 0)
(6 0 0)
(6 0 0)
(6 0 0)
(6 0 0)
(6 0 0)
(6 0 0)
(6 0 0)
(6 0 0)
(6 0 0)
(6 0 0)
(6 0 0)
(6 0 0)
(6 0 0)
(6 0 0)
)
;
    }
    outlet
    {
        type            calculated;
        value           nonuniform 0();
    }
    bottom
    {
        type            calculated;
        value           uniform (0 0 0);
    }
    top
    {
        type            symmetryPlane;
    }
    side1
    {
        type            symmetryPlane;
    }
    side2
    {
        type            symmetryPlane;
    }
    procBoundary0to1
    {
        type            processor;
        value           nonuniform List<vector> 
20
(
(6.42218e+14 -5.95743e+13 -2.38555e+14)
(4.52658e+14 5.05589e+14 2.47839e+13)
(3.90178e+14 4.77627e+14 2.94089e+14)
(5.61487e+14 2.03268e+14 1.4557e+14)
(4.95616e+14 1.90046e+14 -1.58888e+14)
(4.07034e+14 2.00188e+14 -2.5209e+14)
(3.08223e+13 4.69686e+14 1.46946e+14)
(1.11659e+14 2.2738e+14 3.57805e+14)
(1.78284e+15 4.3159e+14 -8.97965e+14)
(1.07015e+15 6.48202e+14 -3.91759e+14)
(-4.27118e+14 -6.07337e+14 8.92883e+14)
(-4.15548e+13 -1.44615e+14 -1.5265e+12)
(1.53503e+15 -9.12906e+14 -2.02917e+14)
(2.33737e+15 4.52561e+14 -9.74476e+14)
(1.07349e+15 -1.04126e+15 -5.6132e+14)
(-9.33363e+14 -1.57485e+15 1.93992e+15)
(1.14515e+15 1.08861e+15 -6.98994e+14)
(1.51683e+15 -8.82933e+14 2.58412e+14)
(2.14481e+15 3.19149e+14 -5.64925e+14)
(1.16092e+15 -1.62155e+15 -8.72531e+14)
)
;
    }
    procBoundary0to8
    {
        type            processor;
        value           nonuniform List<vector> 
50
(
(4.6115e+13 2.95953e+14 -4.16988e+14)
(1.19278e+14 3.93893e+14 -2.81072e+14)
(1.94507e+14 4.04958e+14 -4.13189e+14)
(1.99739e+14 7.03909e+14 -1.81197e+14)
(1.97274e+14 6.0234e+14 -2.78374e+14)
(3.13314e+14 7.45156e+14 2.73548e+13)
(2.87948e+14 5.76258e+14 -2.45027e+14)
(5.21719e+14 1.92569e+14 -2.76821e+13)
(4.73183e+14 5.20114e+13 3.28567e+14)
(5.40784e+14 -6.53507e+12 -1.41978e+14)
(4.76993e+14 -1.61835e+14 3.18386e+14)
(5.00262e+14 -6.50174e+14 5.92198e+14)
(1.71492e+14 -1.63909e+14 4.14357e+14)
(2.45111e+14 -4.54554e+14 5.56241e+14)
(6.39241e+13 2.45894e+13 6.73772e+13)
(3.09751e+14 -5.57234e+14 4.88229e+14)
(3.3232e+14 -6.0238e+13 2.67121e+13)
(4.54872e+14 -3.1772e+14 3.8368e+14)
(4.65174e+14 -3.83437e+13 -4.19769e+12)
(2.21237e+14 -3.3285e+14 6.11017e+14)
(9.19864e+13 -1.70944e+14 8.69577e+14)
(-2.59948e+13 -4.13422e+14 9.27084e+14)
(1.03361e+14 -5.19042e+14 1.17438e+15)
(-2.19637e+14 -1.03068e+14 6.55112e+14)
(4.43457e+14 -3.98557e+14 3.65431e+14)
(3.67753e+14 -1.7674e+13 -2.65865e+14)
(5.92241e+14 -6.07295e+14 3.98352e+14)
(6.38626e+14 -1.01434e+14 -5.45146e+13)
(9.35304e+13 -7.68617e+14 9.87184e+14)
(1.54811e+14 -4.35374e+14 2.17593e+14)
(-1.05934e+14 -1.5492e+15 1.56367e+15)
(6.8288e+14 -3.49923e+14 -7.32304e+14)
(-1.10579e+15 -3.44607e+15 4.04329e+15)
(5.98483e+14 -1.47259e+15 -2.44159e+15)
(5.50801e+13 9.77602e+14 -9.08099e+14)
(5.89281e+14 2.66029e+14 -2.54712e+13)
(7.69821e+14 1.89683e+14 -6.29691e+14)
(2.48e+14 -1.07486e+15 1.33153e+15)
(4.26022e+14 -8.74408e+14 -1.12361e+14)
(-2.51137e+14 -9.28804e+14 8.8148e+14)
(7.89853e+14 -3.11846e+14 -1.42464e+15)
(-1.3084e+15 -4.85077e+15 4.85246e+15)
(1.25076e+15 -9.85308e+14 -1.39354e+15)
(-2.61982e+15 -1.04038e+16 1.15149e+16)
(1.89943e+15 -2.54199e+15 -2.93148e+15)
(1.31182e+15 1.04936e+15 -1.18222e+15)
(1.25791e+15 1.19227e+15 -9.82055e+13)
(9.40148e+14 9.01584e+13 -5.97519e+14)
(5.15928e+14 -6.14887e+14 1.36307e+15)
(7.22114e+14 -1.28201e+15 -5.41296e+14)
)
;
    }
}


// ************************************************************************* //
