/*--------------------------------*- C++ -*----------------------------------*\
| =========                 |                                                 |
| \\      /  F ield         | OpenFOAM: The Open Source CFD Toolbox           |
|  \\    /   O peration     | Version:  2.4.0                                 |
|   \\  /    A nd           | Web:      www.OpenFOAM.org                      |
|    \\/     M anipulation  |                                                 |
\*---------------------------------------------------------------------------*/
FoamFile
{
    version     2.0;
    format      ascii;
    class       volSymmTensorField;
    location    "0.05";
    object      B;
}
// * * * * * * * * * * * * * * * * * * * * * * * * * * * * * * * * * * * * * //

dimensions      [0 2 -2 0 0 0 0];

internalField   nonuniform List<symmTensor> 
200
(
(1098.63 172.861 35.8756 1726.87 106.963 1248.72)
(104.94 -101.056 -22.478 278.129 72.6831 211.671)
(1256.14 99.434 -381.159 1861.14 83.7519 1482.25)
(522.137 -115.345 -288.418 360.675 230.064 314.591)
(1074.25 -178.698 -237.107 1499.12 -74.9644 1205.22)
(888.557 -405.463 -317.995 319.302 354.083 446.948)
(721.339 -31.5957 -10.3456 982.757 -91.6899 770.011)
(1343.98 -413.873 393.16 955.104 1234.29 2149.22)
(599.818 100.551 -108.172 1029.82 -111.465 1020.64)
(7845.03 60.7808 -457.653 7435.68 473.531 7557.08)
(-3.16766 -45.2957 -131.683 278.616 -18.8966 386.037)
(923.178 229.448 -365.072 1725.73 -39.485 1586.95)
(609.195 32.2932 -55.5263 267.431 340.797 786.946)
(3256.6 -77.0045 -1122.46 4993.88 -439.684 4670.59)
(705.273 -392.717 -210.511 316.603 601.632 728.242)
(4436.17 -658.964 -612.818 4951.33 -303.812 4857.66)
(1703.79 -296.524 1479.99 1799.92 1239.71 2473.36)
(4386.15 -6.37183 -427.964 3447.42 -100.613 5539.7)
(-2550.6 -911.471 -245.431 2020.39 2037.61 4496.6)
(2410.97 -168.803 -744.347 3265.64 -429.653 4260.78)
(6600.06 1131.5 -468.231 8974.04 -1140.54 7894.68)
(10101.1 92.5385 416.58 8902.42 775.386 9952.47)
(10326.7 689.19 -1523.92 12868.1 -884.634 14173.4)
(-491.182 2995.33 -2638.92 -764.741 2799.32 2097.82)
(9031.54 -791.641 -456.553 12409.7 -1436.93 11744.2)
(23364.8 2870.43 571.371 10450.3 11032.4 22739.7)
(17951.3 -3230.79 316.798 15964 1582.53 18635.9)
(5844.99 165.816 -1247.05 15639.9 -4084.58 15044.2)
(4215.42 35.0895 -1307.67 5056.49 -288.68 5826.01)
(24812.8 955.215 -5261.97 26349.1 -1833.82 23826)
(47672.3 -1613.04 3663.53 44607.4 -422.55 45082.4)
(42686.7 934.031 1823.96 48036.6 1697.78 48767.5)
(-5437.48 9408.45 -17258 9850.77 -6537.16 16383.2)
(12555.7 6201.91 -7072.53 11932.1 7264.97 18081)
(148073 -25113.3 47274.7 115876 -6201.06 118774)
(180651 -3680.38 11536.8 209659 9463.07 214147)
(180039 7086.28 -18045.3 194108 -585.543 194634)
(57669.2 157.548 -1527.01 56152.8 36.7405 55740.7)
(9031.7 -129.986 -711.549 8542.76 -1113.76 7768.09)
(1828.59 -115.863 -68.2339 1223.88 109.42 1106.82)
(382.302 -48.883 79.7388 378.305 124.253 222.65)
(91.0789 -28.8686 20.2063 100.946 -5.46718 -21.5913)
(265.111 -80.8316 36.1251 192.86 63.3872 52.0967)
(539.23 12.4652 128.915 654.334 -20.9814 447.019)
(243.702 -94.1686 74.8593 97.0587 144.221 -74.8984)
(687.715 17.5187 203.587 1329.71 -147.323 895.423)
(1554.69 -593.843 1298.99 1041.89 624.424 1193.54)
(1378.56 180.512 46.9879 1488.58 -77.9093 1230.53)
(4960.35 401.559 -527.346 4446.13 578.475 4134.92)
(1148.68 67.7582 287.73 1404.13 -431.995 1125.94)
(371.164 81.8182 164.578 433.784 122.054 313.264)
(307.963 -129.758 61.5014 379.014 85.8561 197.825)
(752.461 12.685 125.165 1046.69 175.795 762.559)
(293.179 -105.879 87.5473 355.853 125.094 118.33)
(587.649 -81.0102 -78.5681 1210.53 -73.59 994.65)
(743.461 -583.938 672.78 94.2055 827.755 -411.1)
(1333.82 81.8975 -23.9563 1550.5 -98.7851 1343.6)
(718.36 -294.759 3745.68 2342.24 2078.45 -1984.62)
(1196.18 111.6 -384.226 1178.73 -188.077 455.695)
(9203.1 669.605 -1305.16 8102.53 272.925 6371.45)
(-11.9737 7.32852 -34.8824 39.757 -27.6838 48.5966)
(978.69 41.4546 232.172 1325.03 -364.136 1029.06)
(606.646 -8.05756 33.1293 451.945 161.533 396.002)
(2878.49 -131.162 -362.813 3677.35 -679.432 3857.2)
(193.029 -243.788 171.2 308.546 -210.415 -98.9004)
(1133.31 4.0663 -241.057 1093.26 -75.8956 1223.42)
(260.374 494.115 1370.75 434.658 -405.103 230.135)
(1517.51 275.505 -86.6632 1627.05 -131.735 1158.28)
(6888.95 717.687 -2094.39 5578.05 -949.828 3825.61)
(1545.3 -394.3 84.792 419.978 237.645 214.451)
(3458.39 -13.209 -500.928 4653.99 -575.865 4960.63)
(3054.31 -99.4752 119.082 2958.12 104.031 2400.12)
(3794.63 115.688 -321.707 5424.34 59.1519 4436.72)
(2165.83 1164.13 -2939.09 3776.66 -366.026 2093.68)
(6115.6 -628.266 955.555 6798.21 -897.962 7382.63)
(8891.93 -350.13 129.112 9206.87 2391.8 -5089.67)
(17518.8 641.885 -526.567 15781.8 916.127 13544.9)
(12877.5 1495.99 -1728.13 16741.5 -4685.6 20105.4)
(3219.78 -424.773 533.979 4130.17 8.83997 4192.04)
(13246.8 524.802 301.222 11910.5 43.774 12133)
(654.437 -31.8589 106.718 390.791 355.633 811.745)
(1285.08 -165.53 132.039 1124.96 394.706 1152.69)
(468.567 -235.043 -28.1449 679.13 281.197 665.624)
(717.441 -329.523 94.2 521.96 381.914 531.939)
(676.672 -33.6231 156.936 922.978 256.716 762.795)
(1192.56 -232.719 424.95 702.165 408.835 920.077)
(1653.04 293.398 137.622 1856.72 111.292 1599.9)
(1607.08 318.042 -141.801 1307.97 475.361 946.167)
(1156.58 22.9922 87.3469 1683.66 -221.401 1456.04)
(215.149 106.54 -7.20812 688.963 -105.154 454.707)
(1581.56 66.1683 50.704 1134.31 394.39 1365.79)
(199.915 -40.3104 68.7244 173.11 208.086 123.94)
(1582.63 -390.71 106.626 1928.7 648.506 1806.24)
(896.607 -140.68 60.8996 1429.76 303.471 962.457)
(2120.36 -621.89 686.141 2175.21 909.594 1878.74)
(1181.56 96.1669 -43.4819 1676.31 154.062 1103.73)
(4130.61 153.408 831.071 2006.03 1814.61 2492.1)
(3782.54 43.991 -406.035 4064.33 -237.075 3598.64)
(2170.37 293.417 -385.814 2148.37 88.3527 1437.49)
(3231.82 -355.866 589.733 3779.24 -517.642 3809.04)
(233.133 51.1699 166.017 243.688 -28.3755 102.686)
(912.507 150.705 166.949 427.813 88.151 484.428)
(427.834 42.2263 124.861 466.817 20.7329 327.011)
(1313.52 -199.037 293.901 1419.3 416.117 1389.8)
(475.965 64.671 -146.711 1218.91 18.3679 553.64)
(4423.01 -1030.89 1747.88 4306.15 834.767 3955.24)
(2681.11 452.418 -536.959 3217.64 -53.8185 2800.82)
(8719.82 715.181 -1169.31 6834.18 746.378 7533.67)
(4920.86 -691.616 -159.701 3953.51 264.654 3981.41)
(1625.73 -317.551 282.956 1249.06 -30.3544 1640.59)
(470.705 206.545 -45.2606 744.995 2.98946 609.798)
(1004.86 2.11465 162.681 1075.68 -155.864 1030.13)
(2401.08 95.3129 663.794 1796.69 247.118 1436.74)
(1772.63 142.99 144.478 1788.71 48.6987 2366.78)
(792.015 -495.205 856.651 751.349 -17.4841 1827.31)
(3646.14 574.029 -316.449 3109.15 874.694 2215.13)
(5481.23 -5429.62 6174.16 11105.3 -2773.4 9335.57)
(13812.8 -418.771 -109.707 15768.5 911.432 15106.9)
(33267.5 1408.85 -1485.47 32011.1 319.264 32551.6)
(1152.05 -160.358 -57.6108 823.482 21.8645 998.284)
(1558.14 -359.038 310.768 1318.85 465.361 1618.6)
(116.411 -252.376 -60.5036 398.764 70.8131 446.67)
(964.481 -352.942 81.8611 1174.19 578.403 1332.35)
(279.217 -77.9351 116.402 465.184 92.3741 453.609)
(592.048 -47.3607 66.9323 572.09 218.49 650.061)
(136.712 28.8784 77.5985 189.479 14.383 167.051)
(418.258 75.0052 14.7783 420.409 125.774 337.927)
(62.0195 39.9577 53.8847 165.175 -26.4285 113.954)
(21.5637 100.384 -40.7142 282.097 3.99417 284.242)
(-57.0618 -78.4658 2.7115 77.906 -25.6579 14.7353)
(535.849 -76.6404 -72.4683 205.563 70.3269 340.131)
(1703.64 -447.445 359.637 1102.41 241.995 1647.63)
(347.532 -210.118 61.0393 428.526 216.668 333.923)
(1022.19 -113.345 -105.765 1087.6 277.586 1060.33)
(274.154 -56.6816 -36.2611 238.666 36.186 141.037)
(701.513 -12.3281 52.4584 631.126 133.411 599.395)
(151.896 14.232 73.1529 139.245 -56.6818 123.548)
(171.608 68.3739 -80.0794 111.249 120.699 0.361321)
(788.417 20.7362 74.947 973.308 -231.445 1199.71)
(292.934 32.4598 125.432 381.985 34.268 536.788)
(2496.16 -330.665 -69.7183 1022.7 -27.3095 296.301)
(717.489 2.55898 41.4915 466.111 31.0495 516.613)
(1967.33 -85.7879 505.363 1558.06 -34.3245 1554.67)
(281.259 -157.821 -216.826 212.841 236.985 22.7249)
(292.92 -142.402 15.9088 243.07 155.795 77.4132)
(864.112 -76.4511 -28.8741 610.28 23.7598 563.188)
(1351.5 29.2544 -18.7486 1058.37 142.738 934.791)
(986.437 -37.7611 -43.3495 882.906 -119.567 1034.79)
(171.867 2.33826 28.0804 190.985 -28.1071 344.804)
(1041.39 -46.5606 94.4094 1194.26 -86.2569 1327.53)
(43.5935 -14.1301 21.1645 -5.37984 20.6672 -92.6943)
(1359.77 240.558 249.276 566.88 -61.7681 -486.258)
(420.237 26.5942 160.894 259.896 -25.7111 359.461)
(555.495 -41.7554 171.901 265.651 57.877 209.735)
(457.943 -56.1261 -196.825 339.099 52.4014 372.441)
(1106.14 -392.912 231.401 884.774 74.8762 220.054)
(762.737 -48.3142 -136.393 977.152 119.032 684.382)
(1320.82 141.187 -168.675 1182.46 281.669 566.579)
(285.021 -23.6816 9.06487 104.134 3.88303 137.562)
(390.646 0.667251 104.784 508.536 -59.4033 605.579)
(350.097 -188.613 -37.0783 458.728 -51.8769 474.704)
(658.928 -255.253 67.6992 638.704 286.11 685.722)
(296.315 -106.35 -49.1825 455.773 -1.02784 547.803)
(132.192 -52.1017 -37.1218 220.456 111.925 364.946)
(132.597 -51.939 34.3929 243.216 16.6413 392.392)
(137.681 -22.1629 -4.0839 181.533 77.6725 344.774)
(118.735 -20.9702 15.4343 196.594 4.21702 297.1)
(141.991 30.2933 30.3609 255.932 62.5563 481.941)
(182.844 -36.2416 42.3806 166.214 41.4509 267.979)
(248.142 15.6481 99.0905 331.878 1.10731 511.472)
(1840.02 -247.692 258.814 916.658 -234.394 1302.04)
(1130.37 -272.073 28.8767 958.141 -30.2369 963.138)
(565.262 -285.542 -246.027 562.551 206.337 431.554)
(327.451 -162.732 -4.78732 302.69 48.7963 416.042)
(106.357 -40.3785 -6.26715 98.2077 57.7405 171.704)
(242.661 -54.6279 1.1392 252.785 23.7207 451.22)
(69.313 3.35458 8.02643 80.124 46.5038 159.412)
(113.908 -17.0615 43.404 132.3 17.1625 299.628)
(108.099 3.289 1.2326 158.536 18.2342 256.019)
(256.803 -26.3011 -1.35076 261.451 18.8387 315.192)
(418.556 -185.461 -113.02 286.042 -343.927 1692.81)
(6462.13 126.16 1275.82 5050.49 -623.243 5719.82)
(5204.84 -402.506 161.141 4071.63 79.0309 4038.13)
(457.46 -223.293 -146.488 223.75 135.492 102.129)
(352.853 -88.4123 -16.7514 220.789 41.4121 346.983)
(54.0632 -10.4974 8.22256 24.7026 21.0819 26.6938)
(265.227 -34.0245 -25.1592 203.347 1.14911 403.545)
(23.8988 9.98842 -6.47304 38.163 3.61417 101.292)
(556.373 4.25092 -3.32297 568.417 -32.2508 814.926)
(37.3709 9.80449 2.30049 68.2135 -0.494313 99.1151)
(2568.54 -329.658 -1035.58 2364.16 582.675 2603.55)
(941.912 398.398 865.62 2113.37 -852.991 3436.26)
(4274.16 -57.2769 1368.75 3095.16 19.9257 3437.78)
(4103.14 -74.3164 14.2589 3084.71 27.4516 3031.17)
(300.383 -41.0369 -96.6642 116.489 53.1082 80.0399)
(315.103 -15.5586 -44.9367 212.922 -1.51917 292.434)
(52.261 -11.8729 2.17339 7.5079 38.2886 -9.96798)
(284.974 12.8003 0.491583 219.371 16.8535 434.871)
(278.808 5.52567 0.378981 314.05 -12.8954 390.698)
(489.543 -45.3937 132.295 504.233 27.4393 844.435)
)
;

boundaryField
{
    inlet
    {
        type            calculated;
        value           nonuniform 0();
    }
    outlet
    {
        type            calculated;
        value           nonuniform 0();
    }
    bottom
    {
        type            calculated;
        value           nonuniform List<symmTensor> 
40
(
(-0.624939 0.606567 -0.730589 1.57952 0.211531 2.11879)
(-0.933668 -0.173166 -0.339163 0.143592 0.942233 1.81719)
(-1.35892 1.85709 -1.7411 2.5374 -1.99875 1.96987)
(4.88618 -4.22605 11.4863 -3.14363 2.32872 -7.10537)
(-0.835974 -0.696198 -0.147201 0.35717 1.62773 0.902679)
(-0.648165 0.460855 -2.214 0.963786 -0.402396 2.88396)
(1.57349 0.588853 2.82849 -6.05385 6.85737 1.55537)
(-4.83582 1.66104 6.90937 4.6782 -3.22966 25.9083)
(-0.66022 0.318507 -2.49609 1.27773 0.0400411 2.94266)
(-0.219768 0.145405 -0.371268 -1.75862 3.15868 1.69237)
(-1.56206 0.871394 -2.15045 1.6512 -3.2992 10.6143)
(-5.97763 3.23011 -6.51624 -0.728871 1.38204 -0.917277)
(0.246151 -0.393498 -1.34422 -0.304676 2.38665 -0.493718)
(-1.03055 -0.115714 -3.2475 1.58004 -1.38831 3.9022)
(-2.00715 2.36578 -2.70666 -2.22321 5.21696 -2.32817)
(0.42329 1.92412 -1.23548 0.229824 -0.850565 12.4212)
(-0.476598 -0.678072 -2.08873 1.13558 -0.445002 1.80556)
(0.107497 -0.774812 -0.99448 -0.65933 3.04901 -0.672823)
(-0.356467 -0.665431 -1.40564 2.48309 -2.3355 7.86158)
(7.04767 -7.75712 14.5007 -2.89748 2.21909 -5.75127)
(0.553538 -1.08389 -1.48433 -0.968198 2.08231 -1.25634)
(0.345929 -1.05851 -2.36893 1.17344 -1.94746 4.97264)
(1.1292 2.39148 -0.286188 -9.63052 11.5669 -1.21351)
(-12.0445 -2.70511 12.7559 9.27657 -3.58848 50.815)
(-0.279844 -0.171243 -0.922415 1.137 -1.31176 1.06288)
(-0.721222 -0.432972 1.69022 -0.580862 2.96604 -1.00954)
(1.07207 -5.3072 -0.0222003 -2.19246 0.879109 11.717)
(-14.933 9.09461 -29.1264 3.12351 -1.57253 13.3812)
(-0.605909 -0.743307 -0.0707876 -1.30432 3.39006 0.0319276)
(0.543807 -0.0114535 -2.51044 -1.14359 -2.33054 12.2143)
(-4.89414 0.132105 -1.18027 2.9094 -3.29721 1.59537)
(7.60984 0.819487 -11.4266 -0.277658 0.466558 -1.03946)
(-0.55704 0.299515 -1.5472 0.723838 -1.41168 4.29131)
(-2.72282 -0.572748 -0.269519 0.149487 2.19313 -0.573138)
(-2.1711 0.0884417 -6.20123 -0.0512133 -1.86861 11.6621)
(1.93101 -0.426939 -4.02934 0.325065 -2.59942 -4.60976)
(1.39894 0.44562 -4.63408 -1.60223 4.07704 0.704979)
(-2.27267 -0.415487 -4.95672 -0.169 -2.98532 13.707)
(-0.406633 1.41524 -9.28351 1.8695 -2.30465 -3.39624)
(2.07914 -0.554229 -2.31907 -0.813489 0.442729 -2.0416)
)
;
    }
    top
    {
        type            symmetryPlane;
    }
    side1
    {
        type            symmetryPlane;
    }
    side2
    {
        type            symmetryPlane;
    }
    procBoundary25to17
    {
        type            processor;
        value           nonuniform List<symmTensor> 
50
(
(-45.9841 43.9355 -37.2593 182.473 12.6001 -184.999)
(-211.06 314.328 -182.389 800.884 -35.1286 -113.858)
(-137.41 -44.467 -126.493 193.085 81.3939 -216.732)
(-206.33 153.612 -114.52 819.089 -127.907 -224.472)
(18.7125 -59.7773 -94.7727 94.9653 96.9803 -165.115)
(-69.1652 -242.273 -128.087 532.332 -281.129 -165.397)
(32.733 -23.5785 -27.0803 -9.63012 1.47715 -57.6794)
(4.61292 147.921 24.5466 688.999 -184.89 -147.291)
(78.3032 77.5945 -116.925 -80.7879 195.889 -129.728)
(-100.516 176.819 -179.627 387.504 79.9206 -40.6092)
(-10.5415 53.3536 215.665 91.8061 87.0865 8.79686)
(38.9344 -11.7017 84.0013 2.49291 102.704 -95.0231)
(13.5724 -68.3612 -42.9558 44.3315 -169.38 -5.72359)
(46.5926 -22.9044 -4.44972 -33.7367 33.8421 -87.8915)
(64.0571 -53.2882 163.295 151.191 -150.534 -19.5471)
(47.3599 7.98995 75.9017 -55.6 60.4244 -85.1584)
(10.2506 420.471 287.009 454.243 -89.3562 -21.9335)
(97.2608 25.4801 54.7856 -196.965 261.026 -95.5354)
(-261.487 468.876 360.1 697.828 -95.1528 -131.34)
(-213.565 237.307 108.633 188.341 -42.6466 -43.9353)
(36.2159 -244.245 165.766 -138.438 411.133 87.469)
(34.1989 -188.855 83.9807 -57.0243 78.594 19.2753)
(215.404 -163.645 96.8792 -76.3353 155.586 -71.3092)
(7.64218 -111.471 68.689 2.62706 18.0743 23.1812)
(90.3736 -126.363 172.907 -103.08 148.196 -46.822)
(-73.4926 54.6453 117.747 135.971 107.407 31.2817)
(3.09462 -8.42683 41.9946 -32.7956 57.3445 -6.34558)
(-214.415 94.5054 71.6026 381.061 73.8591 -22.8667)
(-208.424 106.454 63.9039 215.065 32.7249 2.15543)
(-100.759 -8.81823 -5.65786 164.979 8.82292 -66.0884)
(-323.3 -307.471 -13.5494 100.426 72.5829 243.15)
(-71.5918 -365.86 124.786 -23.4959 305.645 85.477)
(-213.275 -253.91 49.3482 44.9152 32.3241 135.901)
(4.04919 -135.959 71.9318 -108.961 162.793 94.3093)
(-85.3732 -57.1086 73.0299 54.7392 78.3502 35.4817)
(-17.4837 -34.1788 47.6941 -17.6432 38.1294 14.8793)
(-130.94 -42.5842 37.3862 167.464 92.3653 14.4397)
(-54.3263 3.35856 19.2285 32.3862 13.3069 3.87746)
(-83.5992 -11.5703 12.647 106.281 59.9231 -9.09354)
(-90.416 157.893 28.4738 67.5574 -10.0313 52.7569)
(-225.964 -358.387 461.889 -31.2043 458.192 174.397)
(-289.665 -105.685 -117.371 65.4087 -26.9948 329.644)
(-81.1639 -179.594 103.61 -134.943 181.39 217.777)
(-164.119 -65.3222 -32.4741 -17.9882 -10.7946 214.197)
(-112.505 -40.5738 -0.19572 -55.0533 23.1055 189.547)
(-102.337 -54.0304 11.6967 -28.74 17.86 144.085)
(-121.27 -41.0163 6.02656 -62.9129 -0.752883 181.465)
(-112.941 -36.4015 6.34216 -20.3383 41.5054 142.43)
(-175.109 14.5052 86.679 -39.8221 -4.54363 202.688)
(77.3133 -45.6711 9.59977 -95.8647 70.8681 101.937)
)
;
    }
    procBoundary25to24
    {
        type            processor;
        value           nonuniform List<symmTensor> 
20
(
(-114.473 -0.255232 7.27883 111.427 42.3157 -94.6037)
(-170.095 226.767 62.1584 192.995 79.8416 104.182)
(-389.314 465.416 -263.145 -195.946 -63.7081 338.429)
(180.32 1158.23 -1088.42 3.03058 -94.1568 136.923)
(-10.8504 19.9098 25.3506 24.1922 72.095 46.1711)
(-6.66894 0.855678 -12.9009 3.76534 65.7115 -56.8424)
(-93.1874 84.5837 112.77 132.726 -50.2519 -79.1719)
(-200.412 101.754 -229.389 142.862 -95.3385 -84.1376)
(222.409 -34.4279 70.4447 -335.874 501.207 64.5343)
(195.465 -6.43324 19.8606 -188.238 63.5593 126.179)
(-53.2384 78.7496 -17.2872 13.0675 106.653 -51.804)
(-154.663 28.1911 147.472 302.081 -21.9724 6.56362)
(-10.4643 -156.67 -48.3094 -199.879 54.8238 48.798)
(726.875 -267.637 562.869 -562.574 505.265 -38.9227)
(93.5581 -3.15607 5.28627 -125.793 56.9797 26.5137)
(120.188 173.024 327.39 -11.7343 -16.1206 -278.804)
(162.906 -386.137 404.562 -286.574 355.316 23.4829)
(186.994 -322.683 38.6373 -105.256 6.07444 -29.732)
(598.566 -726.722 -881.456 -351.413 -58.4163 -212.578)
(450.19 -80.0651 -311.907 -634.2 -186.275 320.579)
)
;
    }
    procBoundary25to26
    {
        type            processor;
        value           nonuniform List<symmTensor> 
20
(
(194.718 -95.6837 -157.358 -11.196 21.3145 -136.93)
(948.437 342.31 -1884.27 -236.549 18.1689 -375.429)
(311.055 -79.0955 -542.866 -56.5541 12.8439 -497.429)
(147.052 61.247 -22.9006 -13.7739 44.7703 -95.9536)
(-164.112 97.0752 84.2778 261.812 -204.389 -45.9632)
(-22.3925 -266.726 478.565 68.9576 -424.505 79.8443)
(537.06 -193.6 626.227 -271.446 121.138 167.026)
(-65.1841 -238.959 189.449 -194.312 95.7684 9.42938)
(-58.264 -126.222 -24.6262 17.7553 -45.1575 -17.5365)
(-103.717 -194.269 125.318 -52.335 -34.8242 243.434)
(-642.966 -639.332 747.094 148.393 -249.126 315.737)
(-40.1683 -104.607 250.054 -30.8005 9.02172 60.6114)
(-91.2892 45.1934 122.485 -1.39911 54.5029 103.09)
(12.8544 32.3544 18.7523 11.6952 -28.2769 11.2185)
(-25.1616 1.66314 10.9496 -6.27231 -1.2048 16.4348)
(-218.154 16.7506 79.5024 33.493 77.7312 257.337)
(101.665 -24.9911 -101.662 1.92756 111.776 43.1296)
(-49.0427 30.4352 26.0439 -14.5314 -11.0354 20.2995)
(22.66 -49.8372 -36.8962 -20.2704 63.943 136.248)
(-32.9431 22.0758 16.0877 -9.76249 -4.68185 17.5192)
)
;
    }
}


// ************************************************************************* //
