/*--------------------------------*- C++ -*----------------------------------*\
| =========                 |                                                 |
| \\      /  F ield         | OpenFOAM: The Open Source CFD Toolbox           |
|  \\    /   O peration     | Version:  2.4.0                                 |
|   \\  /    A nd           | Web:      www.OpenFOAM.org                      |
|    \\/     M anipulation  |                                                 |
\*---------------------------------------------------------------------------*/
FoamFile
{
    version     2.0;
    format      ascii;
    class       volVectorField;
    location    "0.05";
    object      Uc;
}
// * * * * * * * * * * * * * * * * * * * * * * * * * * * * * * * * * * * * * //

dimensions      [0 1 -1 0 0 0 0];

internalField   nonuniform List<vector> 
200
(
(1.15672e-17 -7.14982e-17 1.28139e-16)
(1.26867e-19 -7.84169e-19 1.39735e-18)
(1.24856e-21 -7.7173e-21 1.36406e-20)
(1.12825e-23 -6.97362e-23 1.22346e-22)
(9.37018e-26 -5.84197e-25 1.02502e-24)
(-1.07311e-25 3.00256e-25 -7.24866e-26)
(-7.97368e-24 2.23199e-23 -1.50166e-23)
(-5.41356e-22 1.4132e-21 -2.02916e-21)
(-3.10811e-20 6.76315e-20 -2.31757e-19)
(-1.38805e-18 1.5764e-18 -2.26896e-17)
(9.13935e-16 -5.64915e-15 1.0147e-14)
(9.2537e-18 -5.71982e-17 1.02536e-16)
(8.45866e-20 -5.22838e-19 9.34377e-19)
(7.13721e-22 -4.41157e-21 7.86028e-21)
(5.64585e-24 -3.48975e-23 6.20079e-23)
(4.19309e-26 -2.60878e-25 4.608e-25)
(-3.05518e-26 4.89419e-26 -3.62934e-25)
(-2.11796e-24 1.88985e-24 -3.91005e-23)
(-1.28821e-22 -4.94043e-23 -3.78195e-21)
(-6.88389e-21 -1.69519e-20 -3.24379e-19)
(1.15672e-17 -7.14983e-17 1.2826e-16)
(1.26876e-19 -7.84235e-19 1.40241e-18)
(1.24894e-21 -7.7198e-21 1.37545e-20)
(1.12908e-23 -6.9789e-23 1.23939e-22)
(9.52674e-26 -5.88853e-25 1.04284e-24)
(7.57616e-28 -4.6916e-27 8.2587e-27)
(-1.14454e-28 -7.29702e-29 -3.32053e-27)
(-8.68118e-27 -1.32288e-26 -3.34414e-25)
(-5.79489e-25 -1.78619e-24 -3.00529e-23)
(-3.57922e-23 -1.72882e-22 -2.39708e-21)
(7.96948e-20 -4.87777e-19 8.82161e-19)
(9.41698e-22 -5.75965e-21 1.03803e-20)
(9.93534e-24 -6.07239e-23 1.09067e-22)
(9.58385e-26 -5.85344e-25 1.0485e-24)
(8.59484e-28 -5.24569e-27 9.37685e-27)
(7.24856e-30 -4.4253e-29 7.87536e-29)
(-4.18837e-31 -1.47803e-30 -2.05056e-29)
(-3.61365e-29 -1.28332e-28 -1.97292e-27)
(-2.55608e-27 -1.22308e-26 -1.67349e-25)
(-1.66593e-25 -9.7915e-25 -1.25794e-23)
(4.67127e-15 -2.88736e-14 5.1863e-14)
(4.72901e-17 -2.92303e-16 5.23995e-16)
(4.32207e-19 -2.67147e-18 4.77429e-18)
(3.64631e-21 -2.25376e-20 4.01568e-20)
(2.83748e-23 -1.77085e-22 3.16613e-22)
(-3.39298e-23 8.92642e-23 -4.96854e-23)
(-2.59007e-21 6.76307e-21 -8.61787e-21)
(-1.88923e-19 4.4114e-19 -1.15158e-18)
(-1.20008e-17 2.07357e-17 -1.35365e-16)
(-6.13234e-16 2.31645e-16 -1.3994e-14)
(4.02687e-13 -2.48906e-12 4.47457e-12)
(3.73699e-15 -2.30989e-14 4.15244e-14)
(3.15274e-17 -1.94875e-16 3.50323e-16)
(2.46987e-19 -1.52666e-18 2.74443e-18)
(1.82328e-21 -1.12699e-20 2.02596e-20)
(1.26926e-23 -7.9029e-23 1.41045e-22)
(-9.86456e-24 9.62383e-24 -1.69523e-22)
(-7.5269e-22 4.6662e-23 -1.92286e-20)
(-5.20833e-20 -7.27037e-20 -1.97926e-18)
(-3.27203e-18 -1.13184e-17 -1.82038e-16)
(4.67127e-15 -2.88737e-14 5.19059e-14)
(4.729e-17 -2.92306e-16 5.25471e-16)
(4.32205e-19 -2.67152e-18 4.8025e-18)
(3.64629e-21 -2.25382e-20 4.05161e-20)
(2.88393e-23 -1.7826e-22 3.20451e-22)
(2.15794e-25 -1.33692e-24 2.39016e-24)
(-3.83945e-26 -6.19509e-26 -1.44526e-24)
(-3.22207e-24 -8.30268e-24 -1.5314e-22)
(-2.44392e-22 -9.81492e-22 -1.46445e-20)
(-1.72653e-20 -9.39842e-20 -1.24873e-18)
(2.96935e-17 -1.8187e-16 3.29945e-16)
(3.25765e-19 -1.99387e-18 3.61977e-18)
(3.20742e-21 -1.96175e-20 3.56395e-20)
(2.9002e-23 -1.7726e-22 3.22257e-22)
(2.4476e-25 -1.49492e-24 2.71966e-24)
(1.94901e-27 -1.19112e-26 2.15962e-26)
(-1.48515e-28 -6.3742e-28 -8.46668e-27)
(-1.37144e-26 -6.04342e-26 -8.51921e-25)
(-1.07901e-24 -5.8224e-24 -7.66633e-23)
(-7.79444e-23 -4.83672e-22 -6.13146e-21)
(1.03082e-12 -6.37157e-12 1.14542e-11)
(9.56606e-15 -5.91281e-14 1.06294e-13)
(8.07042e-17 -4.98829e-16 8.96745e-16)
(6.32233e-19 -3.90774e-18 7.025e-18)
(4.56912e-21 -2.86334e-20 5.17767e-20)
(-6.45592e-21 1.44629e-20 -2.12753e-20)
(-4.76737e-19 1.00399e-18 -3.43967e-18)
(-3.7384e-17 5.94394e-17 -4.65875e-16)
(-2.73552e-15 1.65972e-15 -5.70645e-14)
(-1.71597e-13 -2.12212e-13 -6.28423e-12)
(9.77469e-11 -6.04187e-10 1.08615e-09)
(8.24647e-13 -5.09725e-12 9.16337e-12)
(6.37746e-15 -3.942e-14 7.08655e-14)
(4.61182e-17 -2.85063e-16 5.12459e-16)
(3.16131e-19 -1.95405e-18 3.51281e-18)
(2.05104e-21 -1.28076e-20 2.26135e-20)
(-1.93851e-21 -8.28268e-22 -5.63451e-20)
(-1.68728e-19 -2.76787e-19 -6.76456e-18)
(-1.40257e-17 -4.43714e-17 -7.44874e-16)
(-1.09236e-15 -5.31348e-15 -7.38937e-14)
(1.03081e-12 -6.3716e-12 1.14543e-11)
(9.56599e-15 -5.91287e-14 1.06296e-13)
(8.07033e-17 -4.98838e-16 8.96763e-16)
(6.32223e-19 -3.90785e-18 7.02517e-18)
(4.66706e-21 -2.88477e-20 5.18597e-20)
(3.2718e-23 -2.02984e-22 3.60848e-22)
(-8.51026e-24 -2.80262e-23 -4.46181e-22)
(-8.13459e-22 -3.41535e-21 -4.9957e-20)
(-7.22504e-20 -3.80024e-19 -5.10521e-18)
(-5.95662e-18 -3.66558e-17 -4.67647e-16)
(6.00435e-15 -3.68019e-14 6.67193e-14)
(6.08067e-17 -3.72435e-16 6.75674e-16)
(5.55933e-19 -3.40264e-18 6.17743e-18)
(4.69174e-21 -2.86961e-20 5.21338e-20)
(3.7121e-23 -2.26883e-22 4.12482e-22)
(2.7808e-25 -1.70233e-24 3.0722e-24)
(-3.64027e-26 -1.94712e-25 -2.47078e-24)
(-3.6388e-24 -2.00088e-23 -2.61035e-22)
(-3.22659e-22 -1.9698e-21 -2.50096e-20)
(-2.60575e-20 -1.70858e-19 -2.13669e-18)
(5.35272e-15 -2.2026e-14 5.07699e-14)
(5.87868e-17 -1.76779e-16 5.06306e-16)
(5.89803e-19 -1.08783e-18 4.53978e-18)
(5.32463e-21 -3.53145e-21 3.74647e-20)
(-9.51092e-21 1.35791e-20 -1.93401e-20)
(-3.92592e-19 1.83347e-19 -4.5335e-18)
(-1.50953e-17 -4.79409e-17 -7.22692e-16)
(-1.17902e-15 -8.24181e-15 -1.01239e-13)
(-1.52691e-13 -1.06548e-12 -1.30894e-11)
(-1.8098e-11 -1.26296e-10 -1.55152e-09)
(4.02688e-13 -2.48904e-12 4.47459e-12)
(3.73702e-15 -2.30985e-14 4.15248e-14)
(3.15279e-17 -1.94871e-16 3.50327e-16)
(2.46992e-19 -1.5266e-18 2.74446e-18)
(1.79793e-21 -1.12774e-20 1.97668e-20)
(-1.50525e-21 -4.95061e-21 -7.29924e-20)
(-1.28899e-19 -7.95834e-19 -1.00182e-17)
(-1.49391e-17 -1.04278e-16 -1.28099e-15)
(-1.77115e-15 -1.23601e-14 -1.51838e-13)
(-1.90854e-13 -1.3319e-12 -1.63619e-11)
(4.67127e-15 -2.88737e-14 5.19063e-14)
(4.72901e-17 -2.92305e-16 5.25478e-16)
(4.32206e-19 -2.6715e-18 4.80258e-18)
(3.6463e-21 -2.2538e-20 4.05168e-20)
(2.87501e-23 -1.78548e-22 3.1618e-22)
(-7.8246e-24 -4.68931e-23 -5.74995e-22)
(-8.84394e-22 -5.99423e-21 -7.33943e-20)
(-1.02421e-19 -7.14797e-19 -8.7294e-18)
(-1.12071e-17 -7.82102e-17 -9.58081e-16)
(-1.10703e-15 -7.72559e-15 -9.48272e-14)
(2.96935e-17 -1.8187e-16 3.29949e-16)
(3.25765e-19 -1.99387e-18 3.61984e-18)
(3.20743e-21 -1.96175e-20 3.56403e-20)
(2.90021e-23 -1.7726e-22 3.22265e-22)
(2.44381e-25 -1.49691e-24 2.69444e-24)
(-3.8737e-26 -2.74876e-25 -3.18049e-24)
(-4.60567e-24 -3.15813e-23 -3.82495e-22)
(-5.05923e-22 -3.50286e-21 -4.26454e-20)
(-5.14017e-20 -3.56075e-19 -4.36808e-18)
(-4.68605e-18 -3.2479e-17 -4.00509e-16)
(1.49453e-17 -3.75535e-17 1.22472e-16)
(1.88627e-19 -1.63727e-19 1.30205e-18)
(2.16071e-21 1.44237e-21 1.23102e-20)
(2.16966e-23 4.80391e-23 1.06012e-22)
(-5.52027e-23 7.80044e-23 -1.25941e-22)
(-2.13178e-21 8.14286e-22 -2.62723e-20)
(-7.83215e-20 -2.62361e-19 -3.86319e-18)
(-5.84393e-18 -4.08539e-17 -4.99134e-16)
(-6.93628e-16 -4.84035e-15 -5.91689e-14)
(-7.47261e-14 -5.21481e-13 -6.37724e-12)
(9.13945e-16 -5.64907e-15 1.01221e-14)
(9.25389e-18 -5.71966e-17 1.02459e-16)
(8.45895e-20 -5.22812e-19 9.363e-19)
(7.13758e-22 -4.41122e-21 7.89807e-21)
(5.48638e-24 -3.49616e-23 5.92569e-23)
(-9.09594e-24 -3.09453e-23 -4.45089e-22)
(-7.40721e-22 -4.61287e-21 -5.70962e-20)
(-8.02358e-20 -5.60069e-19 -6.80035e-18)
(-8.77915e-18 -6.12662e-17 -7.46506e-16)
(-8.67015e-16 -6.05061e-15 -7.39015e-14)
(1.15672e-17 -7.14982e-17 1.28074e-16)
(1.26877e-19 -7.84235e-19 1.40441e-18)
(1.24895e-21 -7.7198e-21 1.38209e-20)
(1.12909e-23 -6.97887e-23 1.24911e-22)
(9.46572e-26 -5.9091e-25 1.02452e-24)
(-5.18646e-26 -3.06511e-25 -3.70729e-24)
(-5.47051e-24 -3.71499e-23 -4.44775e-22)
(-5.92346e-22 -4.13397e-21 -4.96245e-20)
(-6.0188e-20 -4.20029e-19 -5.08531e-18)
(-5.48736e-18 -3.82945e-17 -4.66491e-16)
(7.9695e-20 -4.87779e-19 8.82152e-19)
(9.41702e-22 -5.7597e-21 1.04209e-20)
(9.93539e-24 -6.07246e-23 1.09915e-22)
(9.58392e-26 -5.85351e-25 1.05998e-24)
(8.56712e-28 -5.26059e-27 9.32238e-27)
(-2.77059e-28 -1.88772e-27 -2.16813e-26)
(-3.03962e-26 -2.08433e-25 -2.46024e-24)
(-3.13428e-24 -2.16892e-23 -2.58744e-22)
(-2.97346e-22 -2.0587e-21 -2.49061e-20)
(-2.51739e-20 -1.74388e-19 -2.1318e-18)
)
;

boundaryField
{
    inlet
    {
        type            calculated;
        value           nonuniform 0();
    }
    outlet
    {
        type            calculated;
        value           nonuniform 0();
    }
    bottom
    {
        type            calculated;
        value           uniform (0 0 0);
    }
    top
    {
        type            symmetryPlane;
    }
    side1
    {
        type            symmetryPlane;
    }
    side2
    {
        type            symmetryPlane;
    }
    procBoundary25to17
    {
        type            processor;
        value           nonuniform List<vector> 
50
(
(8.39022e-20 -4.42225e-19 8.43855e-19)
(1.02601e-21 -4.83871e-21 9.6383e-21)
(1.12781e-23 -4.59519e-23 9.88862e-23)
(7.9869e-26 -3.54767e-25 8.02918e-25)
(-3.59575e-25 9.58034e-25 4.34792e-25)
(-2.59648e-23 7.67808e-23 2.9809e-23)
(-1.92694e-21 6.02305e-21 2.13865e-21)
(-1.35753e-19 4.31032e-19 1.49479e-19)
(-8.05622e-18 2.5577e-17 8.89806e-18)
(-3.47693e-16 1.10385e-15 3.84735e-16)
(3.21802e-17 -1.56189e-16 3.17472e-16)
(3.71937e-19 -1.5182e-18 3.39034e-18)
(3.89437e-21 -1.25454e-20 3.25649e-20)
(3.58256e-23 -8.31842e-23 2.89906e-22)
(-1.28748e-22 3.22289e-22 1.65483e-22)
(-8.92163e-21 2.53854e-20 1.0536e-20)
(-6.61212e-19 2.0462e-18 7.41199e-19)
(-4.93091e-17 1.5657e-16 5.44341e-17)
(-3.19319e-15 1.01377e-14 3.53407e-15)
(-1.51629e-13 4.81381e-13 1.67857e-13)
(7.04388e-15 -2.62578e-14 6.41005e-14)
(7.84934e-17 -1.93627e-16 6.32394e-16)
(7.99451e-19 -9.44879e-19 5.60859e-18)
(7.06462e-21 1.40387e-21 4.64153e-20)
(-3.17775e-20 7.09612e-20 4.30337e-20)
(-1.91509e-18 4.9814e-18 2.38655e-18)
(-1.27362e-16 3.82861e-16 1.45677e-16)
(-9.66495e-15 3.06934e-14 1.06725e-14)
(-6.8874e-13 2.18658e-12 7.62525e-13)
(-3.63428e-11 1.15375e-10 4.0205e-11)
(2.34984e-13 2.36078e-12 -3.91317e-13)
(3.63398e-15 3.65112e-14 -6.05334e-15)
(4.59825e-17 4.62021e-16 -7.66077e-17)
(4.30768e-19 5.19712e-18 -7.328e-19)
(-4.01387e-18 7.16213e-18 5.87413e-18)
(-1.58462e-16 2.8065e-16 2.30815e-16)
(-3.39438e-15 6.02531e-15 4.83852e-15)
(9.45392e-16 -1.07379e-15 -7.20656e-15)
(-4.75133e-15 -1.14431e-15 -1.34622e-13)
(-3.23175e-13 -7.15802e-13 -1.45386e-11)
(1.06749e-15 1.07255e-14 -1.7696e-15)
(1.80128e-17 1.80988e-16 -2.9853e-17)
(2.46965e-19 2.48158e-18 -4.09172e-19)
(2.49226e-21 3.0067e-20 -4.21802e-21)
(-2.15454e-20 3.84987e-20 3.12538e-20)
(-7.85001e-19 1.39059e-18 1.1351e-18)
(-1.5402e-17 2.73499e-17 2.17482e-17)
(4.30667e-18 -5.12608e-18 -3.34489e-17)
(-1.58487e-17 -3.08127e-17 -6.67063e-16)
(-1.13499e-15 -4.39049e-15 -6.62911e-14)
)
;
    }
    procBoundary25to24
    {
        type            processor;
        value           nonuniform List<vector> 
20
(
(9.13983e-16 -5.64945e-15 1.01561e-14)
(7.87775e-14 -4.86934e-13 8.75366e-13)
(9.13983e-16 -5.64945e-15 1.0156e-14)
(5.81078e-18 -3.55904e-17 6.45684e-17)
(4.02705e-13 -2.48917e-12 4.4748e-12)
(3.81858e-11 -2.36031e-10 4.24316e-10)
(4.02704e-13 -2.48917e-12 4.4748e-12)
(2.34574e-15 -1.43775e-14 2.60656e-14)
(9.77506e-11 -6.04208e-10 1.08619e-09)
(1.02989e-08 -6.36588e-08 1.1444e-07)
(9.77505e-11 -6.04209e-10 1.08619e-09)
(5.17448e-13 -3.17377e-12 5.74982e-12)
(4.32085e-13 -2.19394e-12 4.42583e-12)
(3.81858e-11 -2.36031e-10 4.24315e-10)
(4.02704e-13 -2.48917e-12 4.4748e-12)
(2.34574e-15 -1.43775e-14 2.60656e-14)
(1.04747e-15 -4.30809e-15 9.90124e-15)
(7.87778e-14 -4.86931e-13 8.72724e-13)
(9.13984e-16 -5.64944e-15 1.01226e-14)
(5.81079e-18 -3.55904e-17 6.43385e-17)
)
;
    }
    procBoundary25to26
    {
        type            processor;
        value           nonuniform List<vector> 
20
(
(-4.59877e-17 -7.76456e-17 -1.86185e-15)
(-3.39457e-19 -1.75288e-18 -2.38331e-17)
(-2.05001e-21 -1.28979e-20 -1.63703e-19)
(-9.73851e-24 -6.4468e-23 -8.08144e-22)
(-2.51176e-14 -6.81254e-14 -1.23684e-12)
(-1.93439e-16 -1.10124e-15 -1.44566e-14)
(-1.12074e-18 -7.29651e-18 -9.15934e-17)
(-5.00528e-21 -3.36497e-20 -4.19992e-19)
(-9.63118e-12 -4.12078e-11 -6.0328e-10)
(-7.99637e-14 -5.03175e-13 -6.38612e-12)
(-4.42937e-16 -2.98501e-15 -3.70659e-14)
(-1.84969e-18 -1.26291e-17 -1.569e-16)
(-1.90682e-09 -1.3307e-08 -1.63473e-07)
(-1.80983e-11 -1.26303e-10 -1.55159e-09)
(-9.54356e-14 -6.66017e-13 -8.18181e-12)
(-3.70222e-16 -2.56738e-15 -3.17398e-14)
(-7.08456e-12 -4.94409e-11 -6.04869e-10)
(-7.47288e-14 -5.2151e-13 -6.37762e-12)
(-4.33555e-16 -3.02565e-15 -3.69861e-14)
(-1.83565e-18 -1.2723e-17 -1.565e-16)
)
;
    }
}


// ************************************************************************* //
