/*--------------------------------*- C++ -*----------------------------------*\
| =========                 |                                                 |
| \\      /  F ield         | OpenFOAM: The Open Source CFD Toolbox           |
|  \\    /   O peration     | Version:  2.4.0                                 |
|   \\  /    A nd           | Web:      www.OpenFOAM.org                      |
|    \\/     M anipulation  |                                                 |
\*---------------------------------------------------------------------------*/
FoamFile
{
    version     2.0;
    format      ascii;
    class       volVectorField;
    location    "0.06";
    object      U;
}
// * * * * * * * * * * * * * * * * * * * * * * * * * * * * * * * * * * * * * //

dimensions      [0 1 -1 0 0 0 0];

internalField   nonuniform List<vector> 
200
(
(117785 80799.6 -1274.66)
(151782 233931 -16542.6)
(95567 108179 -35608.4)
(158142 365305 -47763.7)
(179739 158317 9835.85)
(216679 112783 -11333.6)
(218592 173792 -7516.92)
(262858 94079.5 44475)
(244040 160263 8495.69)
(217027 101572 55165)
(158272 173541 5966.72)
(135081 64475.9 -6512.19)
(197934 343632 -33632)
(206975 85395.8 21117.1)
(287408 78964.5 18445.3)
(235535 138351 1406.08)
(273629 85698.9 15867.7)
(286085 74162.9 17258.6)
(284814 84883 12939.2)
(285867 78114.9 44357.5)
(119080 41932.5 23075.9)
(157756 130049 3481.13)
(176584 54084.8 21797.6)
(276455 62324.1 9726.11)
(241003 130688 -9154.39)
(263101 119677 495.242)
(310942 3720.21 -1057.25)
(308040 30000.1 2071.19)
(333075 67647.5 -15504.1)
(359652 18013.8 -16621.9)
(152326 28100.4 9491.03)
(155240 23910.8 15481)
(196610 34624.8 -3306.89)
(191742 13303 10079.3)
(229541 7778.27 -15923.8)
(248291 -15470.5 -14575)
(269712 3069.91 -13398.9)
(271213 11451.4 -14190.7)
(296276 -5659.53 -20992.8)
(314742 33917.7 -17236)
(120938 113097 22156.3)
(139480 115898 21099.1)
(130032 263939 -56544.5)
(116776 183003 -34111.6)
(174928 161147 -19666.3)
(183880 216439 -23540.1)
(277496 147626 -6547.25)
(156296 238228 -53781.2)
(135449 -287749 -25926.8)
(-24535.9 -400995 343852)
(129151 76126.8 16839.1)
(159951 102147 5553.98)
(185594 88184.6 15998)
(269681 93164.3 -4185.98)
(236418 22288.9 -9491.85)
(212055 79317.4 9765.64)
(247089 67405.4 5653.19)
(334144 4494.71 31936.4)
(314738 114843 -9644.97)
(299579 -53207.7 30478.9)
(150658 43157.2 15254.1)
(149048 35095.2 20772.8)
(205219 42744.9 18851.6)
(329668 -43178.5 -100638)
(-83294.2 988263 229782)
(336242 122125 142720)
(359341 -19187.3 17276.9)
(326256 -18436.9 -19898.5)
(338851 -63781.7 -12556.4)
(350685 -40149.1 -7056.61)
(112454 23103.4 29095.8)
(162520 -40285.4 36021.6)
(99669.5 83922.7 62494.2)
(178507 68890.2 17062.6)
(192760 -143103 25924.7)
(352004 -1636.76 18683)
(343306 -6314.69 -15989.9)
(325733 -26806.7 -33657.9)
(317897 -9846.21 -21922.8)
(309376 -9897.01 -31730.7)
(118331 84193.2 26246.5)
(160313 106140 11007.8)
(134182 110377 15739.8)
(180657 185078 -26166.3)
(230840 149746 3800.48)
(183340 210097 -8059.43)
(263235 284072 -11309.2)
(396167 155068 44001.1)
(286934 375730 -53288.6)
(147013 -104743 81170.1)
(144991 55634.7 13278.6)
(148710 65430.2 9513.48)
(172760 97196.5 -30468.6)
(198461 79650.7 -1993.62)
(248377 74340.2 -11059)
(220585 82357.5 -7774.53)
(190823 83260.7 13569)
(330796 102937 16768.8)
(324793 -34714 76473.1)
(263361 56738.7 23329.3)
(132244 37816.3 23312.1)
(160605 35116 2026.45)
(163447 31759.5 10925.3)
(207091 48730.1 4699.84)
(348233 89260.6 208080)
(-17227.1 574494 -630448)
(392864 -63116.4 -227697)
(371060 -11124.3 30041.6)
(325017 46110.2 24403.9)
(322289 -10551.5 34686.5)
(150155 13048.4 27344.8)
(132099 15999 34249.6)
(186433 13034.9 25043.7)
(169917 24944.7 22142.3)
(219981 40326.2 -23453)
(263962 -119362 -7593.2)
(276225 -46310 26208.3)
(280047 -66480 124287)
(353657 3932.19 43424)
(363441 57619.1 13614.7)
(135489 87297.7 45640)
(130635 83112 10670.7)
(142411 116781 11476.9)
(143731 112570 5353.19)
(144288 157505 660.989)
(193983 200612 -6665.95)
(165723 159703 69070)
(306371 280126 20053.7)
(326157 105165 210861)
(276739 332150 25939.4)
(158278 37969.7 13653.4)
(174625 88367.5 -1144.45)
(166685 83553.7 -9619.26)
(183889 122263 -36645.2)
(226238 112885 -10846.7)
(222379 85741.4 8497.73)
(269367 120337 -319.59)
(282196 98750.7 42031.9)
(327240 144505 15270.7)
(337550 20861.1 41291.2)
(142879 46065.9 -14400.4)
(152387 73736.5 -2294.37)
(197199 70892.7 -50093.4)
(225419 51120.2 -11075.5)
(265618 55253.5 8706.11)
(272531 58462.4 13873.1)
(266267 84777.8 26648.3)
(289655 125959 29922.9)
(297330 46397.8 32242.2)
(344641 49351.2 205.909)
(128748 17142.2 53894.1)
(179323 14046.4 -15325.3)
(189187 19489.1 1201.37)
(231556 38910.3 17784.6)
(231597 15319.1 2513.41)
(313414 19022.4 48453.8)
(279705 -187686 76176.8)
(174343 -57216.5 -1.05444e+06)
(479067 105425 -128828)
(406703 6289.41 56635.8)
(127716 88587.2 12163.4)
(142365 91354.1 20489.8)
(153686 74455.2 -6070.72)
(170792 160104 -8514.35)
(211622 196391 -8113.71)
(160965 139288 -26070.2)
(243565 137450 13066.7)
(227248 141040 47486.3)
(315392 221713 31713.6)
(301342 116413 138825)
(386988 121270 130989)
(218074 42921 -14988.1)
(203784 97146.2 -21442.2)
(224098 88891.3 -28682.6)
(196809 19022.8 -14755.6)
(263535 119492 5831.11)
(259777 136730 15991.8)
(266121 155218 17577)
(279855 142396 48657.1)
(307200 139940 3535.97)
(415469 93551.4 10854.9)
(220310 53090.3 -16632.7)
(227199 53847.3 -13568.3)
(228627 54470.4 844.104)
(245485 80012.6 836.794)
(247885 88628.1 503.8)
(266514 119610 8849.34)
(266599 142578 28556.2)
(292827 115771 102.03)
(491212 63151.1 -121829)
(176879 36969.3 -5710.35)
(211340 35117.5 -5263.19)
(206668 20974.8 -8082.74)
(234733 33357.3 -21143.3)
(275857 43705 6393.34)
(295122 37776.6 7341.56)
(348390 31293.1 -25044.6)
(305290 75529.9 31591)
(315356 48145 35063.7)
(251197 40990.8 37233.8)
)
;

boundaryField
{
    inlet
    {
        type            calculated;
        value           nonuniform 0();
    }
    outlet
    {
        type            calculated;
        value           nonuniform 0();
    }
    bottom
    {
        type            calculated;
        value           uniform (0 0 0);
    }
    top
    {
        type            symmetryPlane;
    }
    side1
    {
        type            symmetryPlane;
    }
    side2
    {
        type            symmetryPlane;
    }
    procBoundary29to21
    {
        type            processor;
        value           nonuniform List<vector> 
50
(
(135313 185516 -9968.27)
(115193 120773 -17838.1)
(145049 211180 -16303.2)
(132404 233809 -48394.9)
(116627 201444 -17915.6)
(154875 235139 -45262.2)
(202449 157434 -18458.3)
(97320.2 258459 -81920)
(113285 -136064 -7779.23)
(-7546.73 55349.9 5772.76)
(81735.1 130288 10676.2)
(90706.1 152106 -9658.34)
(73737.5 180498 -37598.3)
(-5972.24 129597 -12383.7)
(63081.7 244264 -39927.3)
(171206 195950 -69650)
(-298964 148166 -185201)
(-186501 -671855 -173185)
(-162915 -362621 -7642.45)
(-247458 -205184 1.17843e+06)
(93730.2 143937 42260.5)
(119384 149687 36787.9)
(118951 162930 36454.2)
(107347 203086 2063.8)
(116926 198031 11613.3)
(54924.3 234771 15236.3)
(167961 289249 -5580.38)
(-160551 388250 -47781.3)
(-194422 -238582 -25267.9)
(-354294 -2.26162e+06 828722)
(96786.8 83254.2 29431.8)
(117523 108184 39786.6)
(115971 106008 5539.21)
(134681 145215 21688.5)
(149494 183607 18911.2)
(129852 192011 43924.7)
(135852 303725 36942.1)
(154265 261529 177501)
(44396.4 294624 93648.9)
(39764.2 -47996.8 200379)
(117260 102257 18794.5)
(125186 98175.4 8261.41)
(143425 118737 37236.2)
(141611 124945 -8322.6)
(145043 140886 15312.4)
(132529 171155 10683.4)
(129019 155507 76525.7)
(177984 228398 54591.9)
(180420 149424 248447)
(264541 237857 58488.2)
)
;
    }
    procBoundary29to28
    {
        type            processor;
        value           nonuniform List<vector> 
20
(
(110726 108529 17450.1)
(132664 58846.4 26962.8)
(128131 33748.7 4644.15)
(126522 23683.9 -22637.5)
(113366 115606 26914.9)
(126313 71255.9 14285.5)
(111645 40166.3 20042)
(134175 15045.7 17202.7)
(115650 71457.6 20622.2)
(129257 42122.7 26706.4)
(138693 29875.8 31175.2)
(120119 15056 28140.9)
(112400 77217.7 26008.3)
(213443 53791 -31303.6)
(173241 16288.7 -55879.8)
(153458 5857.53 15445.5)
(135394 58614.6 3985.6)
(-193246 512658 870573)
(-48645.4 -331271 1.11267e+06)
(126093 40096 108349)
)
;
    }
    procBoundary29to30
    {
        type            processor;
        value           nonuniform List<vector> 
20
(
(128812 104146 126608)
(289970 72851.2 7548.42)
(369318 28689.5 -5303.79)
(346366 1510.97 -36894.9)
(92331.4 -244345 -223557)
(247556 5865.67 -10885.2)
(309260 -13147.5 -12678.1)
(287126 128531 -22824)
(-51187.5 -299039 94094.6)
(181190 -98367.9 58792.1)
(338524 53263 -2569.56)
(333301 -985.754 -6672.38)
(257170 63082.8 276756)
(397231 53856.2 1338.45)
(363791 15884.1 45449.3)
(405652 -2527.84 82580.5)
(386264 209878 -32741.1)
(456626 163675 -94797.7)
(-59057.5 -85674.1 -105956)
(524816 53202.1 21223)
)
;
    }
}


// ************************************************************************* //
