/*--------------------------------*- C++ -*----------------------------------*\
| =========                 |                                                 |
| \\      /  F ield         | OpenFOAM: The Open Source CFD Toolbox           |
|  \\    /   O peration     | Version:  2.4.0                                 |
|   \\  /    A nd           | Web:      www.OpenFOAM.org                      |
|    \\/     M anipulation  |                                                 |
\*---------------------------------------------------------------------------*/
FoamFile
{
    version     2.0;
    format      ascii;
    class       volVectorField;
    location    "0.01";
    object      Ub;
}
// * * * * * * * * * * * * * * * * * * * * * * * * * * * * * * * * * * * * * //

dimensions      [0 1 -1 0 0 0 0];

internalField   nonuniform List<vector> 
40
(
(-3.69848e+08 6.51903e+09 1.34522e+08)
(-8.56066e+08 4.33191e+09 3.54752e+07)
(-7.61481e+08 3.13862e+09 4.02794e+07)
(-7.3365e+08 4.64639e+09 -1.54105e+08)
(-1.04617e+09 3.27254e+09 -6.56307e+07)
(-2.21801e+09 7.70701e+09 6.0358e+08)
(-1.9866e+09 3.7687e+09 1.16204e+08)
(-1.6754e+09 3.14075e+09 1.12587e+08)
(-1.44622e+09 4.58092e+09 2.14756e+06)
(-1.36171e+09 3.61062e+09 7.79378e+06)
(-2.39169e+09 5.8051e+09 5.57199e+08)
(-2.48273e+09 3.22643e+09 2.98042e+08)
(-2.87136e+09 3.35287e+09 2.48768e+08)
(-2.7813e+09 4.60251e+09 1.79741e+08)
(-2.74606e+09 3.47551e+09 1.08781e+08)
(-4.2179e+09 4.86664e+09 6.53713e+08)
(-3.78088e+09 3.18439e+09 1.78138e+08)
(-3.80506e+09 3.29095e+09 1.43641e+08)
(-3.47538e+09 3.85678e+09 -2.64437e+07)
(-2.68003e+09 1.77642e+09 -1.00992e+08)
(-6.82937e+08 3.69648e+09 1.0299e+09)
(-9.2283e+08 2.21278e+09 4.93408e+08)
(-5.92916e+08 2.21379e+09 3.37542e+08)
(-5.48032e+08 2.64587e+09 2.66259e+08)
(-8.31926e+08 2.67176e+09 2.19906e+08)
(-8.82047e+08 2.70758e+09 1.1394e+09)
(-9.47217e+08 1.76979e+09 4.80739e+08)
(-1.0575e+09 1.56394e+09 5.10606e+08)
(-1.21749e+09 2.62574e+09 4.17832e+08)
(-1.41605e+09 2.52927e+09 3.50328e+08)
(-1.35623e+09 1.88003e+09 1.41775e+09)
(-1.45645e+09 1.57972e+09 9.64949e+08)
(-1.56038e+09 1.36284e+09 6.98331e+08)
(-1.57679e+09 2.11224e+09 5.84063e+08)
(-2.02682e+09 3.12351e+09 4.74631e+08)
(-2.35471e+09 1.51879e+09 1.44278e+09)
(-2.5821e+09 1.5566e+09 7.52229e+08)
(-3.09451e+09 1.66679e+09 3.35473e+08)
(-3.70702e+09 2.6342e+09 8.06532e+07)
(-4.9238e+09 4.42381e+09 2.98095e+08)
)
;

boundaryField
{
    inlet
    {
        type            fixedValue;
        value           nonuniform 0();
    }
    outlet
    {
        type            zeroGradient;
    }
    bottom
    {
        type            fixedValue;
        value           uniform (0 0 0);
    }
    top
    {
        type            symmetryPlane;
    }
    side1
    {
        type            symmetryPlane;
    }
    side2
    {
        type            symmetryPlane;
    }
    procBoundary41to25
    {
        type            processor;
        value           nonuniform List<vector> 10((1.45035e+09 4.56101e+09 2.81304e+08) (9.63185e+08 4.5766e+09 1.84301e+08) (9.05175e+08 3.2927e+09 -6.11521e+07) (6.16899e+08 3.29051e+09 7.72199e+07) (1.0242e+07 2.98582e+09 -1.14802e+08) (4.55931e+08 3.2664e+09 9.47065e+08) (-1.46252e+08 2.44962e+09 4.28286e+08) (9.42773e+06 3.60502e+09 3.31752e+08) (9.19168e+07 2.72941e+09 3.67452e+08) (-6.83348e+07 2.80526e+09 7.55415e+07));
    }
    procBoundary41to40
    {
        type            processor;
        value           nonuniform List<vector> 8((1.67865e+09 9.65709e+09 4.37533e+08) (-1.8169e+09 1.208e+10 1.60597e+09) (-2.8569e+09 9.54186e+09 1.33322e+09) (-4.82946e+09 6.58129e+09 1.40516e+09) (1.72686e+08 5.2134e+09 1.53808e+09) (-1.1359e+09 5.50923e+09 2.48012e+09) (-1.78908e+09 4.61516e+09 2.58235e+09) (-3.04733e+09 3.12176e+09 2.66958e+09));
    }
    procBoundary41to42
    {
        type            processor;
        value           nonuniform List<vector> 8((-1.01706e+09 2.3641e+09 -2.18607e+07) (-1.41544e+09 2.74477e+09 -3.56224e+07) (-2.13176e+09 1.88251e+09 1.99236e+06) (-2.25236e+09 1.07131e+09 4.16313e+08) (-8.26375e+08 3.92046e+09 4.08857e+08) (-1.7685e+09 3.61365e+09 4.25212e+08) (-2.77053e+09 4.26074e+09 4.65528e+08) (-4.93898e+09 3.88481e+09 4.0933e+08));
    }
    procBoundary41to57
    {
        type            processor;
        value           nonuniform List<vector> 10((-4.77107e+09 3.29994e+09 7.16958e+08) (-4.90136e+09 2.90001e+09 4.74267e+08) (-4.59643e+09 2.51738e+09 1.41142e+07) (-3.88803e+09 2.86224e+09 -1.86516e+08) (-3.18698e+09 1.0029e+09 8.91476e+07) (-3.74041e+09 1.70314e+09 1.72461e+09) (-4.29163e+09 2.27526e+09 1.05951e+09) (-5.24648e+09 2.84425e+09 4.27931e+08) (-6.01911e+09 3.99578e+09 -7.91083e+07) (-5.64492e+09 3.80705e+09 4.4094e+06));
    }
    procBoundary41to105
    {
        type            processor;
        value           nonuniform List<vector> 
20
(
(-2.37312e+09 7.39434e+09 2.36432e+09)
(-2.4351e+09 3.91424e+09 1.13577e+09)
(-2.14278e+09 5.41713e+09 1.22516e+09)
(-1.95308e+09 3.1405e+09 1.02271e+09)
(-2.07705e+09 4.88579e+09 8.12431e+08)
(-2.98962e+09 5.50016e+09 2.33173e+09)
(-2.90564e+09 3.79094e+09 1.4653e+09)
(-2.81287e+09 4.40405e+09 1.33866e+09)
(-2.90446e+09 3.63961e+09 1.26924e+09)
(-3.201e+09 4.2334e+09 1.00389e+09)
(-4.8789e+09 3.91054e+09 2.20895e+09)
(-5.59982e+09 3.2969e+09 2.2578e+09)
(-5.38813e+09 2.86866e+09 1.84311e+09)
(-5.21468e+09 3.04466e+09 1.6214e+09)
(-4.73995e+09 3.57593e+09 1.33559e+09)
(-4.59421e+09 3.00552e+09 2.16259e+09)
(-4.49744e+09 2.26157e+09 1.46312e+09)
(-4.66146e+09 1.83261e+09 1.62194e+09)
(-4.96207e+09 1.83396e+09 1.83776e+09)
(-5.33792e+09 2.75065e+09 2.18786e+09)
)
;
    }
}


// ************************************************************************* //
