/*--------------------------------*- C++ -*----------------------------------*\
| =========                 |                                                 |
| \\      /  F ield         | OpenFOAM: The Open Source CFD Toolbox           |
|  \\    /   O peration     | Version:  2.4.0                                 |
|   \\  /    A nd           | Web:      www.OpenFOAM.org                      |
|    \\/     M anipulation  |                                                 |
\*---------------------------------------------------------------------------*/
FoamFile
{
    version     2.0;
    format      ascii;
    class       surfaceScalarField;
    location    "0.01";
    object      phib;
}
// * * * * * * * * * * * * * * * * * * * * * * * * * * * * * * * * * * * * * //

dimensions      [0 3 -1 0 0 0 0];

internalField   nonuniform List<scalar> 
133
(
621.907
29.8304
212.582
438.516
20.0314
140.033
353.079
14.2118
61.2578
357.481
-5.07286
9.29365
-8.01368
9.0607
80.3917
22.0844
51.3066
62.245
12.762
19.019
59.7433
5.65749
0.56433
37.3213
8.24781
6.79206
1.76521
3.76187
79.9516
93.3942
17.4688
10.4202
60.8545
1.2396
-18.7246
25.3171
4.59636
-3.89498
1.65399
-5.73404
1.05326
1.47467
163.681
-15.7178
83.6565
-21.1449
22.7115
-13.0956
2.51387
-1.71115
-3.02145
2355.75
8.92345
423.514
2113.32
-17.2458
399.822
1785.54
-5.54459
394.671
1404.63
30.4742
359.776
8.24484
139.911
692.542
84.9011
317.743
481.663
35.3202
177.45
394.152
23.445
59.1421
388.111
8.22349
35.0995
-6.36548
18.7852
285.31
223.063
149.777
145.236
121.802
54.894
119.8
46.95
6.54611
73.5806
44.0465
4.67113
14.677
5.78912
413.214
4.94187
315.255
2.2857
214.062
5.13398
139.694
6.99896
7.678
1904.73
-258.781
2711.65
-406.84
3542.65
-436.112
4217.4
-314.823
-79.8821
1968.16
91.9212
1750.63
-11.4565
1424.42
-50.5637
1187.4
-42.6327
-7.44339
882.4
219.875
724.048
202.044
530.344
149.763
372.055
120.346
43.25
520.045
602.23
643.483
629.617
)
;

boundaryField
{
    inlet
    {
        type            fixedValue;
        value           nonuniform 0();
    }
    outlet
    {
        type            calculated;
        value           nonuniform List<scalar> 
12
(
367.179
24.0955
-2.23978
2.40645
1265.56
387.705
48.2268
98.3537
4437.32
1133.76
327.158
579.124
)
;
    }
    bottom
    {
        type            fixedValue;
        value           nonuniform 0();
    }
    top
    {
        type            symmetryPlane;
        value           nonuniform List<scalar> 
20
(
-4.23566e-14
-9.55076e-14
-5.96432e-14
-1.85812e-14
-4.15178e-14
-5.9431e-14
-3.17661e-14
-1.11317e-14
-5.74829e-14
-2.11896e-14
-1.06823e-14
-8.81273e-15
-9.33801e-14
-1.61668e-14
-4.06431e-15
-1.44752e-14
-8.46821e-14
-1.65864e-14
-4.06778e-15
-1.64518e-14
)
;
    }
    side1
    {
        type            symmetryPlane;
        value           uniform 0;
    }
    side2
    {
        type            symmetryPlane;
        value           nonuniform 0();
    }
    procBoundary79to15
    {
        type            processor;
        value           nonuniform List<scalar> 
20
(
32.6512
23.298
9.96042
-8.62495
-10.7452
12.4366
6.39044
10.4904
2.30819
-0.315018
17.5378
20.2001
4.88847
-2.50208
-2.41773
53.6527
52.5958
34.0335
3.27999
0.692526
)
;
    }
    procBoundary79to78
    {
        type            processor;
        value           nonuniform List<scalar> 
12
(
-897.356
-136.452
-186.322
-243.014
-2575.29
-1034.63
-555.412
-401.152
-1221.67
-1998.13
-858.528
-454.291
)
;
    }
    procBoundary79to95
    {
        type            processor;
        value           nonuniform List<scalar> 
15
(
134.73
109.416
65.317
20.2791
3.48887
190.652
196.397
129.944
109.724
45.3244
160.273
122.257
113.684
141.234
101.433
)
;
    }
}


// ************************************************************************* //
