/*--------------------------------*- C++ -*----------------------------------*\
| =========                 |                                                 |
| \\      /  F ield         | OpenFOAM: The Open Source CFD Toolbox           |
|  \\    /   O peration     | Version:  2.4.0                                 |
|   \\  /    A nd           | Web:      www.OpenFOAM.org                      |
|    \\/     M anipulation  |                                                 |
\*---------------------------------------------------------------------------*/
FoamFile
{
    version     2.0;
    format      ascii;
    class       volVectorField;
    location    "0.01";
    object      gradp;
}
// * * * * * * * * * * * * * * * * * * * * * * * * * * * * * * * * * * * * * //

dimensions      [1 -2 -2 0 0 0 0];

internalField   nonuniform List<vector> 
40
(
(1.33345e+24 1.66799e+23 -9.03109e+23)
(6.40225e+23 1.92087e+23 -7.65215e+23)
(7.20107e+23 1.94699e+23 -5.67282e+23)
(7.67862e+23 1.02446e+23 -3.96934e+23)
(4.80733e+23 2.13077e+22 -2.81556e+23)
(9.72124e+23 4.44607e+23 -8.74133e+23)
(6.96023e+23 4.25274e+23 -7.01573e+23)
(5.40826e+23 3.82125e+23 -5.14014e+23)
(4.2108e+23 1.8859e+23 -3.63996e+23)
(2.71449e+23 4.07099e+22 -2.60187e+23)
(5.76806e+23 4.99401e+23 -7.06598e+23)
(5.15262e+23 3.50547e+23 -5.24726e+23)
(2.46738e+23 2.40837e+23 -3.69594e+23)
(8.50309e+22 1.27265e+23 -2.55082e+23)
(1.09051e+23 6.79455e+22 -1.96809e+23)
(2.67938e+23 3.10133e+23 -4.47129e+23)
(1.78896e+23 1.83606e+23 -3.36816e+23)
(9.42636e+22 1.17801e+23 -2.4136e+23)
(7.52968e+22 9.91467e+22 -1.75787e+23)
(7.86644e+22 8.85927e+22 -1.38828e+23)
(1.04788e+24 1.20671e+23 -9.3021e+22)
(9.19808e+23 1.11137e+23 -6.74741e+22)
(8.20171e+23 6.89951e+22 -5.65113e+21)
(5.68896e+23 5.38193e+22 -3.6204e+22)
(3.87008e+23 4.06739e+22 -6.78278e+22)
(8.60832e+23 3.48194e+23 -1.21851e+23)
(8.16457e+23 3.06695e+23 -1.18068e+23)
(7.05535e+23 2.24033e+23 -8.42159e+22)
(5.12254e+23 1.61367e+23 -6.65959e+22)
(3.30651e+23 1.1461e+23 -5.57239e+22)
(6.35536e+23 4.88295e+23 -1.53279e+23)
(6.71486e+23 3.89523e+23 -1.41586e+23)
(5.29516e+23 2.95529e+23 -1.04459e+23)
(3.50052e+23 1.97706e+23 -5.32181e+22)
(2.10144e+23 1.29724e+23 -2.164e+22)
(4.3509e+23 4.56406e+23 -1.28793e+23)
(4.30925e+23 3.32623e+23 -9.37076e+22)
(3.21902e+23 2.26103e+23 -5.00333e+22)
(1.80644e+23 1.39203e+23 -2.25707e+22)
(7.8838e+22 8.57359e+22 -1.71122e+22)
)
;

boundaryField
{
    inlet
    {
        type            zeroGradient;
    }
    outlet
    {
        type            zeroGradient;
    }
    bottom
    {
        type            zeroGradient;
    }
    top
    {
        type            symmetryPlane;
    }
    side1
    {
        type            symmetryPlane;
    }
    side2
    {
        type            symmetryPlane;
    }
    procBoundary65to1
    {
        type            processor;
        value           nonuniform List<vector> 
20
(
(1.24106e+24 7.431e+22 -3.25039e+24)
(-1.54838e+23 9.30863e+21 -2.09799e+24)
(-3.5833e+23 -1.62329e+22 -1.41812e+24)
(-3.45427e+23 1.11941e+21 -9.10215e+23)
(-2.40813e+23 6.48398e+21 -5.85958e+23)
(-5.18585e+21 3.37756e+22 -2.79587e+24)
(-3.35924e+23 -7.80876e+22 -1.81067e+24)
(-3.74709e+23 -9.22684e+22 -1.23363e+24)
(-2.99993e+23 -6.55956e+22 -8.26298e+23)
(-2.47985e+23 -2.09838e+22 -5.54794e+23)
(-4.08674e+23 -1.94913e+23 -1.88518e+24)
(-4.06927e+23 -1.94087e+23 -1.24417e+24)
(-3.33346e+23 -1.40717e+23 -8.2198e+23)
(-2.02857e+23 -1.03429e+23 -5.90211e+23)
(-1.29328e+23 -6.44498e+22 -4.30355e+23)
(-1.64784e+23 -2.47382e+23 -1.02129e+24)
(-2.27533e+23 -1.69579e+23 -7.22311e+23)
(-1.93394e+23 -1.13416e+23 -5.4573e+23)
(-1.47458e+23 -8.79808e+22 -4.1508e+23)
(-1.16727e+23 -8.96267e+22 -3.00645e+23)
)
;
    }
    procBoundary65to64
    {
        type            processor;
        value           nonuniform List<vector> 8((3.12446e+24 3.72752e+23 -7.04846e+23) (1.41734e+24 8.03598e+23 -9.72203e+23) (5.3758e+23 7.0264e+23 -8.51042e+23) (2.88486e+23 4.12569e+23 -5.24277e+23) (1.21343e+24 2.04661e+23 2.17677e+22) (8.56495e+23 5.12867e+23 -8.32887e+22) (5.67369e+23 6.02394e+23 -1.59939e+23) (3.9643e+23 5.3858e+23 -1.45943e+23));
    }
    procBoundary65to66
    {
        type            processor;
        value           nonuniform List<vector> 8((2.47011e+23 -2.19573e+21 -2.0074e+23) (1.81502e+23 2.74856e+21 -1.83172e+23) (1.07503e+23 3.08731e+22 -1.48997e+23) (5.65271e+22 5.44977e+22 -1.14673e+23) (2.61588e+23 2.56409e+22 -6.54932e+22) (2.22452e+23 7.29352e+22 -4.80953e+22) (1.01649e+23 7.17992e+22 -2.16265e+22) (1.95593e+22 5.33766e+22 -2.25165e+22));
    }
    procBoundary65to81
    {
        type            processor;
        value           nonuniform List<vector> 10((1.1888e+23 1.5957e+23 -2.6673e+23) (1.30599e+23 1.1595e+23 -2.1085e+23) (7.78189e+22 9.1726e+22 -1.57394e+23) (2.66144e+22 7.76523e+22 -1.13092e+23) (1.97525e+22 5.71954e+22 -8.72078e+22) (2.23623e+23 3.0489e+23 -6.18581e+22) (2.1088e+23 2.19369e+23 -4.84505e+22) (1.42676e+23 1.39671e+23 -3.67702e+22) (6.93178e+22 9.19629e+22 -2.81828e+22) (3.84903e+22 6.65415e+22 -2.34254e+22));
    }
}


// ************************************************************************* //
