/*--------------------------------*- C++ -*----------------------------------*\
| =========                 |                                                 |
| \\      /  F ield         | OpenFOAM: The Open Source CFD Toolbox           |
|  \\    /   O peration     | Version:  2.4.0                                 |
|   \\  /    A nd           | Web:      www.OpenFOAM.org                      |
|    \\/     M anipulation  |                                                 |
\*---------------------------------------------------------------------------*/
FoamFile
{
    version     2.0;
    format      ascii;
    class       volVectorField;
    location    "0.13";
    object      Ur;
}
// * * * * * * * * * * * * * * * * * * * * * * * * * * * * * * * * * * * * * //

dimensions      [0 1 -1 0 0 0 0];

internalField   nonuniform List<vector> 
200
(
(-6.55422e+10 1.96526e+11 7.18277e+09)
(-1.74179e+11 1.29552e+10 -1.02857e+11)
(-2.1342e+11 1.32783e+11 9.52966e+09)
(-2.58702e+11 -4.2388e+10 -6.55204e+10)
(-2.48714e+11 1.65735e+11 5.26906e+10)
(-2.55312e+11 -8.2582e+10 -3.79035e+10)
(-2.05852e+11 1.63511e+11 3.8485e+10)
(-2.38263e+11 -6.10241e+10 -4.80161e+10)
(-2.48235e+11 3.37026e+11 8.62464e+10)
(-3.4584e+11 -8.60984e+10 -4.02073e+10)
(-2.76784e+10 2.44647e+11 -1.18159e+10)
(-8.42385e+10 4.52209e+11 1.17245e+11)
(-2.39614e+11 1.07335e+11 -9.44938e+10)
(-2.31206e+11 1.63537e+11 3.21137e+09)
(-3.70105e+11 -1.19853e+11 -5.53668e+10)
(-4.14646e+11 -9.84608e+10 -3.45269e+10)
(-3.26578e+11 -4.62776e+10 -2.57708e+10)
(-2.95649e+11 1.7451e+11 2.41634e+10)
(-3.51352e+11 -7.40596e+08 -3.16795e+10)
(-3.40409e+11 2.90608e+11 6.05567e+10)
(-3.54987e+10 4.76202e+11 1.07547e+11)
(-5.4121e+10 3.0851e+11 2.52448e+09)
(-1.17583e+11 5.73925e+11 8.72812e+10)
(-2.1496e+11 3.70062e+11 -9.13264e+10)
(-2.51758e+11 4.60385e+11 -1.17285e+11)
(-4.90421e+11 -8.89495e+10 -8.83077e+10)
(-5.96433e+11 -2.88658e+11 -9.65969e+10)
(-4.24928e+11 9.99869e+10 -1.48468e+10)
(-4.38749e+11 2.6513e+11 1.89693e+10)
(-4.81916e+11 9.9017e+10 -1.72666e+10)
(-1.8049e+10 3.57046e+11 1.36257e+10)
(-4.32504e+10 4.8567e+11 5.09289e+10)
(-4.60792e+10 4.25594e+11 1.21799e+09)
(-4.45692e+10 6.76253e+11 2.03072e+09)
(-2.47609e+11 4.04979e+11 1.23412e+10)
(-2.0995e+11 6.2057e+11 -7.51726e+10)
(-3.02309e+11 7.92358e+10 -1.35307e+11)
(-6.91604e+11 -2.41831e+11 -1.03635e+11)
(-4.95371e+11 1.85121e+11 -4.0563e+10)
(-5.55804e+11 2.95349e+11 -4.6431e+09)
(-1.00882e+11 4.16694e+09 -8.96468e+10)
(-1.57761e+11 1.90959e+11 -3.07629e+10)
(-3.53563e+11 -3.68689e+09 -8.79297e+10)
(-3.81668e+11 1.60231e+11 8.69443e+09)
(-4.41538e+11 -8.68393e+10 -4.92157e+10)
(-3.6523e+11 2.38536e+10 4.24439e+09)
(-3.05075e+11 -7.00132e+10 -5.85288e+10)
(-2.48213e+11 2.87806e+11 1.1316e+10)
(-3.08329e+11 -9.92983e+10 -6.78639e+10)
(-3.05543e+11 5.16195e+11 4.11886e+10)
(2.26076e+10 4.40098e+11 1.12036e+11)
(-1.54906e+11 1.81856e+11 -9.09478e+10)
(-8.8129e+10 4.9645e+11 -5.07187e+10)
(-3.65353e+11 8.6234e+09 -8.94916e+10)
(-3.99425e+11 4.28582e+08 2.32303e+09)
(-4.22822e+11 -1.61941e+11 -2.38725e+10)
(-3.73262e+11 -4.22397e+10 -4.60324e+10)
(-3.19861e+11 3.21731e+10 -4.71925e+10)
(-3.20425e+11 2.82224e+11 1.17681e+10)
(-3.03335e+11 -2.54274e+11 -6.47883e+10)
(-5.1429e+10 3.55373e+11 1.83494e+10)
(-5.84528e+10 7.02826e+11 1.5629e+11)
(-1.14575e+11 4.00763e+11 1.602e+09)
(-5.97129e+10 1.01955e+12 -2.67131e+10)
(-4.99381e+11 2.01633e+11 -1.10851e+11)
(-3.66139e+11 -1.6886e+11 7.48538e+10)
(-6.9952e+11 -2.58968e+11 1.33005e+10)
(-5.58404e+11 6.04952e+09 -1.01622e+11)
(-4.84328e+11 1.5418e+11 -4.67101e+10)
(-5.37906e+11 3.15974e+11 -1.0102e+10)
(-8.22606e+10 5.78823e+11 3.7507e+10)
(-1.2026e+11 4.25294e+11 3.10407e+09)
(-5.52368e+10 5.8511e+11 3.21334e+10)
(-2.02399e+11 1.88865e+11 -7.4161e+10)
(-1.40738e+11 7.9971e+11 1.16471e+11)
(2.3211e+11 -4.97485e+11 -1.06699e+12)
(-6.4084e+11 7.98478e+10 -2.76542e+11)
(-6.53806e+11 5.38282e+10 -5.22118e+10)
(-7.23861e+11 6.65894e+10 -1.00008e+11)
(-6.25979e+11 3.40175e+11 4.5776e+10)
(-4.20229e+10 1.60304e+11 1.74824e+10)
(-1.81108e+11 -2.50481e+09 -3.32088e+10)
(-2.4111e+11 1.33289e+11 8.33869e+09)
(-3.68708e+11 -1.65673e+10 -2.75835e+10)
(-3.62102e+11 7.82904e+10 -8.12745e+09)
(-4.31276e+11 -1.18207e+11 -6.576e+10)
(-3.46555e+11 2.284e+11 -8.59954e+10)
(-3.511e+11 -1.0368e+11 -1.22678e+11)
(-3.20801e+11 1.84525e+11 -1.11541e+11)
(-2.36685e+11 1.85984e+11 -1.31607e+11)
(-6.38073e+10 1.96064e+11 6.95234e+09)
(-7.11923e+10 2.15816e+11 -1.77885e+10)
(-2.22886e+11 1.01762e+11 -3.27582e+10)
(-2.21589e+11 1.18973e+11 -2.99008e+10)
(-3.43854e+11 -3.27576e+10 -2.11141e+10)
(-3.60563e+11 1.0611e+10 -4.44626e+10)
(-4.16803e+11 -1.44768e+11 -7.1648e+10)
(-3.78767e+11 -3.27075e+10 -7.64046e+10)
(-4.28359e+11 -2.41751e+11 -9.37334e+10)
(-4.50938e+11 2.66566e+10 -1.01084e+11)
(-6.71072e+10 3.39388e+11 1.46091e+10)
(-1.71692e+11 3.31447e+11 6.40107e+10)
(-1.31482e+11 4.44012e+11 -3.17799e+10)
(-2.64564e+11 2.21373e+11 -6.11344e+10)
(-2.8789e+11 4.31943e+11 -7.05664e+10)
(-4.47616e+11 8.78678e+10 3.11565e+10)
(-5.1448e+11 -9.3544e+10 -4.99577e+10)
(-5.00086e+11 2.0974e+09 -6.01491e+10)
(-4.36113e+11 9.26087e+10 2.88944e+09)
(-6.22243e+11 3.14517e+10 -3.80975e+10)
(-4.81507e+10 6.75791e+11 9.14895e+10)
(-6.37765e+10 3.8827e+11 -9.82662e+10)
(-1.61628e+11 3.64615e+11 3.41957e+10)
(-1.2969e+11 5.31589e+11 -8.55559e+10)
(-1.26826e+11 2.70375e+11 -1.71776e+11)
(-2.42479e+11 4.77322e+11 -9.97626e+10)
(-3.56679e+11 1.99965e+11 2.93069e+10)
(-6.65574e+11 -6.32516e+11 -1.8408e+11)
(-5.74042e+11 3.43801e+11 -4.63196e+10)
(-6.58613e+11 3.75235e+11 2.26437e+10)
(-4.834e+10 8.34522e+10 -2.1292e+10)
(-9.28596e+10 1.16667e+11 -5.62009e+09)
(-2.43514e+11 4.68101e+10 6.2674e+10)
(-3.38741e+11 9.52541e+09 6.267e+10)
(-3.08364e+11 -8.64447e+10 9.00804e+10)
(-2.50324e+11 -9.40352e+10 2.28988e+10)
(-1.92721e+11 9.16293e+11 -9.35529e+08)
(-4.75595e+11 -8.11676e+10 -9.2114e+10)
(-3.9797e+11 1.95067e+11 -8.9033e+10)
(-4.26566e+11 9.57059e+10 -1.03613e+11)
(5.61022e+10 1.80392e+11 -2.4517e+10)
(-1.72338e+11 2.36394e+11 -6.02276e+09)
(1.07746e+10 6.21888e+11 -1.12986e+11)
(-4.14882e+11 3.27746e+10 -2.38409e+10)
(-5.78608e+11 -3.22963e+11 -5.07325e+10)
(-4.72213e+11 -2.8027e+10 1.08801e+11)
(-6.19036e+11 2.11988e+11 3.31976e+10)
(-5.3038e+11 1.39378e+11 -3.2413e+10)
(-4.65798e+11 -1.00262e+11 -4.15452e+10)
(-5.10065e+11 -2.61093e+11 -1.1033e+11)
(-1.88066e+11 6.01286e+11 3.5633e+11)
(1.16249e+11 6.75653e+11 -9.75787e+10)
(-2.92233e+11 3.54522e+11 2.17566e+11)
(2.32856e+11 1.5199e+12 -2.2104e+11)
(-4.54517e+11 -1.14414e+11 -1.02904e+11)
(-7.01646e+11 4.2282e+11 -2.03919e+11)
(-5.51942e+11 1.28396e+11 2.01344e+10)
(-4.71813e+11 4.09989e+10 8.26012e+09)
(-4.91654e+11 3.41237e+10 -2.61748e+10)
(-5.82994e+11 1.63023e+11 -8.90638e+10)
(6.74588e+10 2.72285e+11 -4.74395e+10)
(-1.84784e+11 5.26432e+11 2.41847e+11)
(2.65058e+10 5.31495e+11 -5.93368e+10)
(-2.07899e+11 2.74692e+11 6.26009e+09)
(2.66411e+11 1.1247e+12 -1.15069e+11)
(-4.11944e+11 2.3203e+11 -4.3014e+10)
(-4.29603e+11 -6.03802e+10 -3.16433e+10)
(-3.33241e+11 -2.85133e+11 -2.21752e+11)
(-7.03274e+11 3.50043e+11 7.78803e+10)
(-6.81698e+11 3.11987e+11 1.84166e+10)
(-7.66913e+10 4.48335e+10 -5.07256e+10)
(-1.37789e+11 4.02508e+10 1.14204e+10)
(-2.19872e+11 -7.1362e+10 4.46627e+10)
(8.82494e+10 -2.63416e+11 1.5296e+11)
(6.7404e+10 -1.35961e+11 1.4912e+10)
(7.85385e+10 1.84134e+12 -1.43642e+09)
(-3.38331e+11 -6.25033e+11 -1.85107e+11)
(-4.40027e+10 7.2555e+11 -5.47706e+10)
(-2.81081e+11 -3.03187e+11 -9.70605e+10)
(-1.42765e+11 4.35522e+11 -5.76527e+10)
(-4.40221e+10 2.11654e+11 -1.35248e+11)
(-1.13636e+11 1.13403e+11 -1.07806e+11)
(-2.8855e+11 1.61255e+10 2.66964e+09)
(-4.20756e+11 -7.79456e+10 -2.57685e+10)
(-5.06837e+11 -1.38371e+11 7.16023e+10)
(-2.95172e+11 -1.41161e+11 -6.59609e+10)
(-4.91907e+11 6.32429e+10 -4.16277e+10)
(-4.83113e+11 -2.05419e+11 -1.54976e+11)
(-3.6988e+11 2.41849e+11 -7.19296e+10)
(-5.99806e+11 -2.15677e+11 -1.40568e+11)
(2.75019e+10 1.9001e+11 -3.32003e+09)
(-1.1607e+11 2.83856e+11 -6.40707e+10)
(-1.81718e+10 5.96052e+11 -1.754e+11)
(-3.38904e+11 5.50162e+10 -8.58957e+09)
(-4.20821e+11 -1.72964e+10 2.43634e+10)
(-4.19616e+11 8.4898e+10 3.88331e+10)
(-4.12638e+11 9.10843e+10 -4.93664e+09)
(-5.27195e+11 9.04674e+10 -3.74166e+09)
(-5.20735e+11 1.28734e+11 -8.42882e+10)
(-5.61959e+11 8.87736e+10 -8.11009e+10)
(-1.26522e+11 6.54675e+11 3.26538e+11)
(-1.63739e+10 3.80454e+11 1.5891e+10)
(-1.48938e+11 3.20426e+11 9.41969e+10)
(-2.02296e+09 6.97627e+11 -6.15406e+10)
(-3.13513e+11 1.24573e+11 -8.80975e+10)
(-4.42571e+11 6.10571e+10 7.15593e+09)
(-3.96557e+11 2.26876e+11 1.81444e+09)
(-5.02422e+11 2.1393e+11 1.96015e+09)
(-5.40245e+11 2.01291e+11 -3.92704e+10)
(-5.27579e+11 4.37762e+11 -4.63174e+10)
)
;

boundaryField
{
    inlet
    {
        type            calculated;
        value           uniform (-6 0 0);
    }
    outlet
    {
        type            calculated;
        value           nonuniform 0();
    }
    bottom
    {
        type            calculated;
        value           uniform (0 0 0);
    }
    top
    {
        type            symmetryPlane;
    }
    side1
    {
        type            symmetryPlane;
    }
    side2
    {
        type            symmetryPlane;
    }
    procBoundary0to1
    {
        type            processor;
        value           nonuniform List<vector> 
20
(
(-3.51424e+11 4.36568e+11 1.61854e+11)
(-3.88399e+11 -1.72131e+11 1.86882e+08)
(-4.84243e+11 2.82437e+11 6.19915e+10)
(-6.02548e+11 1.86524e+11 -1.59116e+10)
(-3.73019e+11 -3.78731e+11 8.04689e+09)
(-3.50793e+11 6.28554e+11 2.90357e+10)
(-5.48654e+11 2.62168e+11 -1.62544e+11)
(-6.56722e+11 3.57674e+11 -4.28679e+10)
(-3.61714e+11 1.18539e+11 -6.36453e+10)
(-4.29097e+11 8.03633e+10 -1.24769e+11)
(-6.30684e+11 1.96306e+11 -9.47084e+10)
(-7.32671e+11 2.55418e+11 -5.16371e+10)
(-3.9542e+11 1.06405e+11 -8.58473e+10)
(-5.54198e+11 7.64561e+10 -8.4404e+10)
(-7.34283e+11 1.81057e+11 -1.0164e+11)
(-7.39028e+11 2.65214e+11 -7.18063e+10)
(-3.8129e+11 -2.75914e+10 -7.15323e+10)
(-5.83395e+11 1.98637e+11 -6.21983e+10)
(-8.21378e+11 -1.84337e+11 -9.74026e+10)
(-5.97061e+11 3.97401e+11 -8.72079e+10)
)
;
    }
    procBoundary0to8
    {
        type            processor;
        value           nonuniform List<vector> 
50
(
(-4.22306e+10 4.77629e+11 4.92045e+10)
(-4.05966e+09 3.83128e+11 7.45833e+09)
(-8.57309e+09 5.82067e+11 1.9718e+10)
(-1.69569e+11 5.61142e+11 -2.88069e+10)
(-2.32823e+09 9.34637e+11 -4.47534e+09)
(-2.70426e+11 4.57648e+11 -2.5362e+09)
(2.61184e+09 1.022e+12 1.16689e+10)
(-1.82672e+11 5.39533e+11 -1.31819e+11)
(-5.659e+11 1.18337e+11 -4.89425e+10)
(-4.97079e+11 2.9061e+11 -1.05214e+10)
(-1.51275e+10 7.16646e+11 -1.02004e+11)
(-2.17851e+10 4.83945e+11 -6.35735e+10)
(-6.46234e+10 4.86592e+11 -1.15757e+11)
(-1.95894e+11 5.70226e+11 -3.90951e+10)
(-1.1483e+11 4.47573e+11 -7.83797e+10)
(-1.75249e+11 8.26507e+11 -2.2888e+10)
(-1.85034e+11 5.84841e+11 -1.86435e+11)
(-3.88429e+11 4.99863e+11 -7.00492e+10)
(-5.74605e+11 -5.58392e+10 -1.02757e+11)
(-6.75832e+11 1.62225e+11 -5.06282e+10)
(4.03432e+10 4.19303e+11 -1.56098e+11)
(-3.10686e+09 6.62541e+11 -5.03961e+10)
(-7.20236e+10 4.58764e+11 -1.22433e+11)
(-1.49053e+11 3.87713e+11 -6.0532e+10)
(-1.27093e+11 5.66215e+11 -1.6916e+11)
(-1.46853e+11 4.43748e+11 -1.80862e+11)
(-1.39225e+11 5.00655e+11 -2.57187e+11)
(-5.02292e+11 6.64599e+11 -1.79298e+11)
(-5.23258e+11 -4.35921e+11 -6.45944e+10)
(-6.33178e+11 2.66285e+11 4.10475e+10)
(-6.40502e+10 5.71158e+11 8.99408e+10)
(-8.18334e+09 3.48517e+11 -7.77452e+10)
(-9.33149e+10 4.85884e+11 7.04505e+10)
(-1.33667e+10 6.49587e+11 -8.6952e+10)
(-1.26261e+11 5.37293e+11 -2.07021e+10)
(5.58698e+10 8.93441e+11 -1.29367e+11)
(-3.40806e+11 4.81815e+11 9.76363e+10)
(-2.6264e+11 7.18826e+10 -1.37623e+11)
(-6.50223e+11 3.29643e+11 -2.10068e+11)
(-5.77412e+11 3.58849e+11 -5.52756e+10)
(2.72754e+10 5.09172e+11 -5.75827e+10)
(-6.72141e+09 6.01084e+11 1.05673e+11)
(-5.19242e+10 4.29073e+11 -9.4678e+09)
(-6.74225e+10 5.1893e+11 5.5891e+10)
(-4.31791e+09 7.12816e+11 -5.39067e+09)
(-2.95444e+11 2.17877e+11 -7.79492e+10)
(-4.82616e+11 1.9336e+11 1.23006e+10)
(-2.9166e+11 4.18349e+11 -1.35798e+10)
(-6.22587e+11 -3.15403e+10 -1.91997e+11)
(-6.12751e+11 2.97053e+11 -7.76062e+10)
)
;
    }
}


// ************************************************************************* //
