/*--------------------------------*- C++ -*----------------------------------*\
| =========                 |                                                 |
| \\      /  F ield         | OpenFOAM: The Open Source CFD Toolbox           |
|  \\    /   O peration     | Version:  2.4.0                                 |
|   \\  /    A nd           | Web:      www.OpenFOAM.org                      |
|    \\/     M anipulation  |                                                 |
\*---------------------------------------------------------------------------*/
FoamFile
{
    version     2.0;
    format      ascii;
    class       volVectorField;
    location    "0.03";
    object      Uc;
}
// * * * * * * * * * * * * * * * * * * * * * * * * * * * * * * * * * * * * * //

dimensions      [0 1 -1 0 0 0 0];

internalField   nonuniform List<vector> 
200
(
(4.85407e-17 -4.26975e-17 -9.98261e-18)
(3.85133e-15 -3.36676e-15 -8.04412e-16)
(2.49121e-13 -2.17778e-13 -5.20356e-14)
(1.18136e-11 -1.03273e-11 -2.46795e-12)
(3.11782e-10 -2.7255e-10 -6.51766e-11)
(6.65413e-11 -5.74127e-11 -1.82895e-11)
(2.8834e-09 -2.48098e-09 -8.33732e-10)
(8.54333e-08 -7.35309e-08 -2.47202e-08)
(9.20353e-10 -2.27424e-09 -1.43716e-09)
(-1.97982e-11 -3.92507e-11 -3.874e-11)
(-2.40964e-19 3.7944e-19 1.15915e-18)
(7.24499e-17 -6.24773e-17 -1.99343e-17)
(7.86963e-15 -6.77829e-15 -2.21525e-15)
(8.01191e-13 -6.89484e-13 -2.28918e-13)
(7.37455e-11 -6.34333e-11 -2.12409e-11)
(5.76823e-09 -4.96081e-09 -1.66604e-09)
(3.41826e-07 -2.93978e-07 -9.87298e-08)
(1.15782e-05 -9.95752e-06 -3.34414e-06)
(3.41821e-07 -2.93978e-07 -9.87312e-08)
(5.768e-09 -4.96076e-09 -1.66609e-09)
(-1.38622e-16 1.47414e-16 2.09778e-16)
(-1.47448e-18 1.7424e-18 3.28712e-18)
(9.22623e-17 -7.93669e-17 -2.64633e-17)
(9.00694e-15 -7.74719e-15 -2.5957e-15)
(7.71646e-13 -6.63655e-13 -2.2275e-13)
(5.4761e-11 -4.70957e-11 -1.58166e-11)
(2.88473e-09 -2.48093e-09 -8.33197e-10)
(8.55079e-08 -7.35387e-08 -2.46973e-08)
(2.88472e-09 -2.48093e-09 -8.332e-10)
(5.47604e-11 -4.70954e-11 -1.58167e-11)
(-1.19487e-14 1.27065e-14 1.80813e-14)
(-1.84694e-16 1.96404e-16 2.79495e-16)
(-1.70613e-18 1.94122e-18 3.34673e-18)
(5.66745e-17 -4.8738e-17 -1.6326e-17)
(4.47083e-15 -3.84504e-15 -1.29107e-15)
(2.88832e-13 -2.48402e-13 -8.34236e-14)
(1.36944e-11 -1.17775e-11 -3.95537e-12)
(3.60874e-10 -3.1036e-10 -1.04231e-10)
(1.36944e-11 -1.17774e-11 -3.95531e-12)
(2.90543e-13 -2.42077e-13 -7.76223e-14)
(-2.74786e-17 -2.49294e-17 3.65758e-17)
(1.72699e-16 -1.49121e-16 -4.81386e-17)
(1.93769e-14 -1.66805e-14 -5.50665e-15)
(2.0153e-12 -1.73389e-12 -5.78199e-13)
(1.87656e-10 -1.61405e-10 -5.41087e-11)
(1.47387e-08 -1.26756e-08 -4.25698e-09)
(8.73605e-07 -7.51321e-07 -2.52324e-07)
(2.95967e-05 -2.54539e-05 -8.54844e-06)
(8.73598e-07 -7.5132e-07 -2.52326e-07)
(1.47377e-08 -1.26754e-08 -4.25729e-09)
(-4.44043e-16 4.8935e-16 7.79589e-16)
(1.21591e-14 -1.04553e-14 -3.50094e-15)
(1.5734e-12 -1.35316e-12 -4.54445e-13)
(1.86497e-10 -1.60392e-10 -5.38661e-11)
(1.96499e-08 -1.68994e-08 -5.67549e-09)
(1.74691e-06 -1.50238e-06 -5.0456e-07)
(0.000118332 -0.000101768 -3.41778e-05)
(0.00467657 -0.00402196 -0.00135074)
(0.000118332 -0.000101768 -3.41778e-05)
(1.74691e-06 -1.50238e-06 -5.0456e-07)
(-9.16555e-14 9.74681e-14 1.38698e-13)
(-1.26266e-15 1.37403e-15 2.09926e-15)
(1.82337e-14 -1.56778e-14 -5.24458e-15)
(1.96676e-12 -1.69146e-12 -5.68059e-13)
(1.86504e-10 -1.60398e-10 -5.38682e-11)
(1.47386e-08 -1.26756e-08 -4.25697e-09)
(8.73605e-07 -7.51321e-07 -2.52324e-07)
(2.95967e-05 -2.54539e-05 -8.54844e-06)
(8.73605e-07 -7.51321e-07 -2.52324e-07)
(1.47386e-08 -1.26755e-08 -4.25694e-09)
(-8.69093e-12 9.2421e-12 1.31514e-11)
(-1.22194e-13 1.29943e-13 1.84911e-13)
(-1.30079e-15 1.40675e-15 2.10982e-15)
(1.13936e-14 -9.79584e-15 -3.2733e-15)
(9.8347e-13 -8.45805e-13 -2.84056e-13)
(6.99492e-11 -6.01578e-11 -2.02035e-11)
(3.68558e-09 -3.16969e-09 -1.06451e-09)
(1.09269e-07 -9.3974e-08 -3.15603e-08)
(3.68559e-09 -3.16966e-09 -1.06448e-09)
(7.07035e-11 -5.73715e-11 -1.76473e-11)
(-9.07508e-16 9.64764e-16 1.37325e-15)
(-1.43059e-17 1.54266e-17 2.27898e-17)
(1.00063e-16 -8.46929e-17 -3.24898e-17)
(9.45428e-15 -8.05165e-15 -2.96341e-15)
(7.89346e-13 -6.75403e-13 -2.38219e-13)
(5.50904e-11 -4.72963e-11 -1.61591e-11)
(2.8794e-09 -2.47635e-09 -8.31673e-10)
(8.53667e-08 -7.34177e-08 -2.46568e-08)
(2.85851e-09 -2.473e-09 -8.38763e-10)
(-4.86381e-10 3.94574e-11 -2.00055e-10)
(-2.34636e-13 2.49516e-13 3.55061e-13)
(-3.56637e-15 3.80471e-15 5.47047e-15)
(7.08433e-15 -6.08337e-15 -1.99016e-15)
(7.68313e-13 -6.60766e-13 -2.21912e-13)
(7.28571e-11 -6.26588e-11 -2.10434e-11)
(5.75753e-09 -4.95161e-09 -1.66295e-09)
(3.41264e-07 -2.93495e-07 -9.85673e-08)
(1.15615e-05 -9.94318e-06 -3.33932e-06)
(3.41264e-07 -2.93495e-07 -9.85674e-08)
(5.75526e-09 -4.9512e-09 -1.66369e-09)
(-4.44953e-11 4.73172e-11 6.73318e-11)
(-6.25603e-13 6.65272e-13 9.46689e-13)
(-7.16058e-15 7.63294e-15 1.09462e-14)
(8.83929e-15 -7.58705e-15 -2.46328e-15)
(7.68346e-13 -6.60793e-13 -2.21921e-13)
(5.46484e-11 -4.69988e-11 -1.57841e-11)
(2.87939e-09 -2.47634e-09 -8.31655e-10)
(8.53671e-08 -7.34177e-08 -2.46566e-08)
(2.8794e-09 -2.47627e-09 -8.31594e-10)
(5.65725e-11 -3.98651e-11 -9.24333e-12)
(-4.68785e-09 4.98517e-09 7.0938e-09)
(-5.93206e-11 6.30826e-11 8.9766e-11)
(-6.25559e-13 6.65229e-13 9.4662e-13)
(-5.74888e-15 6.1249e-15 8.76847e-15)
(4.40785e-15 -3.78085e-15 -1.21314e-15)
(2.88179e-13 -2.47838e-13 -8.32324e-14)
(1.36664e-11 -1.1753e-11 -3.94694e-12)
(3.60217e-10 -3.09741e-10 -1.03998e-10)
(1.52114e-11 -6.04735e-12 1.28728e-12)
(1.83432e-10 6.7609e-10 6.20374e-10)
(-2.00223e-13 2.12921e-13 3.02985e-13)
(-3.09463e-15 3.29083e-15 4.68295e-15)
(-3.87873e-17 4.12855e-17 5.89704e-17)
(2.05633e-17 -1.95496e-17 -8.70165e-18)
(1.46475e-15 -1.49901e-15 -6.98907e-16)
(7.87233e-14 -9.23402e-14 -4.61785e-14)
(2.29523e-12 -4.10495e-12 -2.57639e-12)
(-7.29973e-11 -8.68618e-11 -1.13306e-10)
(-1.1074e-08 1.76587e-09 -3.77035e-09)
(-3.21601e-07 5.13916e-08 -1.09442e-07)
(-5.69535e-11 6.05655e-11 8.6184e-11)
(-8.00764e-13 8.5154e-13 1.21175e-12)
(-9.2633e-15 9.85421e-15 1.40392e-14)
(1.64702e-15 -1.39739e-15 -3.60811e-16)
(1.50075e-13 -1.29069e-13 -4.33468e-14)
(1.06739e-11 -9.17996e-12 -3.08309e-12)
(5.62391e-10 -4.83681e-10 -1.62446e-10)
(1.66729e-08 -1.43398e-08 -4.81628e-09)
(5.15731e-10 -4.76224e-10 -1.7831e-10)
(-1.17471e-09 1.80244e-10 -4.06278e-10)
(-1.20005e-08 1.27616e-08 1.81595e-08)
(-1.51854e-10 1.61484e-10 2.29791e-10)
(-1.60135e-12 1.7029e-12 2.42322e-12)
(-1.48385e-14 1.57839e-14 2.24812e-14)
(1.61561e-15 -1.36396e-15 -3.13141e-16)
(1.1257e-13 -9.68134e-14 -3.25132e-14)
(5.33842e-12 -4.5912e-12 -1.54194e-12)
(1.40704e-10 -1.21011e-10 -4.06418e-11)
(5.19107e-12 -4.56731e-12 -1.59174e-12)
(-3.20771e-12 4.67487e-13 -1.13465e-12)
(-1.42236e-06 1.51257e-06 2.15236e-06)
(-1.59992e-08 1.70139e-08 2.42105e-08)
(-1.51848e-10 1.61479e-10 2.29782e-10)
(-1.28107e-12 1.36232e-12 1.93856e-12)
(-9.89624e-15 1.05261e-14 1.49888e-14)
(5.81356e-16 -4.85391e-16 -8.01824e-17)
(2.81532e-14 -2.42103e-14 -8.12932e-15)
(6.67997e-13 -5.74231e-13 -1.92727e-13)
(3.47644e-14 1.70816e-15 1.54572e-14)
(7.46978e-13 2.78727e-12 2.55323e-12)
(-9.09067e-16 9.66703e-16 1.36886e-15)
(-1.5331e-17 1.62697e-17 2.30085e-17)
(-5.12742e-18 1.00763e-18 -1.34637e-18)
(-6.23225e-16 9.95621e-17 -2.10544e-16)
(-7.32266e-14 1.16994e-14 -2.47572e-14)
(-7.80782e-12 1.24756e-12 -2.64179e-12)
(-7.30856e-10 1.16785e-10 -2.47482e-10)
(-5.68194e-08 9.07956e-09 -1.92555e-08)
(-3.29687e-06 5.26837e-07 -1.11816e-06)
(-0.000108502 1.73386e-05 -3.68288e-05)
(-2.35173e-13 2.50086e-13 3.54265e-13)
(-3.63474e-15 3.86518e-15 5.47315e-15)
(-4.59392e-17 4.88274e-17 6.91227e-17)
(-1.57236e-18 -1.3052e-18 -1.40045e-18)
(-1.97465e-16 -1.27386e-16 -2.08756e-16)
(-2.64623e-14 -6.04757e-15 -1.8135e-14)
(-2.76929e-12 -4.47417e-14 -1.37284e-12)
(-2.2108e-10 2.24867e-11 -8.63468e-11)
(-1.21521e-08 1.94141e-09 -4.11797e-09)
(-3.4274e-07 5.47696e-08 -1.16221e-07)
(-4.45868e-11 4.74145e-11 6.7193e-11)
(-6.27006e-13 6.66767e-13 9.44521e-13)
(-7.27458e-15 7.73586e-15 1.09539e-14)
(-7.36384e-17 7.82995e-17 1.10853e-16)
(4.18145e-19 -1.4696e-18 -4.15247e-19)
(1.17096e-17 -1.21091e-16 -1.02595e-16)
(-4.81976e-15 -4.36954e-15 -6.22514e-15)
(-5.8254e-13 -2.88396e-14 -3.06132e-13)
(-3.41247e-11 5.44797e-12 -1.1556e-11)
(-8.42101e-10 1.34568e-10 -2.85267e-10)
(-4.69654e-09 4.99441e-09 7.08065e-09)
(-5.94431e-11 6.32131e-11 8.95814e-11)
(-6.26983e-13 6.66747e-13 9.4448e-13)
(-5.81968e-15 6.18877e-15 8.76309e-15)
(-4.90945e-17 5.22067e-17 7.39074e-17)
(1.93089e-19 -4.37526e-19 1.00008e-19)
(7.37087e-18 -3.09705e-17 -2.41428e-17)
(-1.07688e-15 -4.67626e-16 -9.37245e-16)
(-8.12246e-14 1.34374e-14 -2.72515e-14)
(-1.82699e-12 3.56733e-13 -5.8664e-13)
)
;

boundaryField
{
    inlet
    {
        type            calculated;
        value           nonuniform 0();
    }
    outlet
    {
        type            calculated;
        value           nonuniform 0();
    }
    bottom
    {
        type            calculated;
        value           uniform (0 0 0);
    }
    top
    {
        type            symmetryPlane;
    }
    side1
    {
        type            symmetryPlane;
    }
    side2
    {
        type            symmetryPlane;
    }
    procBoundary21to13
    {
        type            processor;
        value           nonuniform List<vector> 
50
(
(1.15571e-14 -1.01032e-14 -2.41366e-15)
(9.95918e-13 -8.70633e-13 -2.07995e-13)
(7.08055e-11 -6.18983e-11 -1.47875e-11)
(3.72917e-09 -3.26005e-09 -7.78827e-10)
(1.10516e-07 -9.66136e-08 -2.3081e-08)
(3.72317e-09 -3.25964e-09 -7.80845e-10)
(-3.62712e-10 -2.66213e-11 -1.56241e-10)
(-2.31918e-08 2.16704e-09 -7.34619e-09)
(-6.98013e-07 7.34331e-08 -2.14617e-07)
(-2.35537e-08 2.47802e-09 -7.24181e-09)
(5.66587e-17 -5.01531e-17 -1.1471e-17)
(4.50519e-15 -3.93838e-15 -9.41078e-16)
(2.91295e-13 -2.54647e-13 -6.08527e-14)
(1.38173e-11 -1.20788e-11 -2.88704e-12)
(3.64805e-10 -3.18894e-10 -7.62858e-11)
(8.44168e-11 -7.26882e-11 -2.36813e-11)
(3.68408e-09 -3.16978e-09 -1.06517e-09)
(1.09182e-07 -9.39651e-08 -3.15872e-08)
(1.38481e-09 -2.92745e-09 -1.77201e-09)
(-9.78664e-11 -3.80995e-11 -7.44879e-11)
(-2.36483e-18 2.66399e-18 3.98991e-18)
(4.023e-17 -2.9295e-17 -2.69699e-17)
(2.96398e-15 -2.12726e-15 -2.09222e-15)
(1.77457e-13 -1.2514e-13 -1.32321e-13)
(7.74358e-12 -5.34713e-12 -6.13485e-12)
(1.86521e-10 -1.2557e-10 -1.58043e-10)
(2.00669e-11 -1.64016e-11 -1.01663e-11)
(3.13185e-10 -3.02358e-10 -1.20222e-10)
(-2.46619e-09 3.84293e-10 -8.48466e-10)
(-7.33805e-08 1.17259e-08 -2.50009e-08)
(-5.75761e-16 6.1223e-16 8.71299e-16)
(-9.46535e-18 1.01157e-17 1.44251e-17)
(1.02671e-17 -8.14241e-18 -1.03941e-17)
(4.53046e-16 -4.49571e-16 -6.71748e-16)
(-1.37987e-15 -1.53836e-14 -3.55643e-14)
(-2.69426e-12 7.57187e-14 -1.73676e-12)
(-3.20919e-10 5.12481e-11 -1.0918e-10)
(-2.53591e-08 4.0519e-09 -8.62725e-09)
(-1.50281e-06 2.40148e-07 -5.11445e-07)
(-5.08998e-05 8.13376e-06 -1.73297e-05)
(-2.83817e-18 3.00207e-18 4.23981e-18)
(-2.71775e-18 4.80188e-19 -8.23804e-19)
(-3.88902e-16 6.21303e-17 -1.31412e-16)
(-5.376e-14 8.58992e-15 -1.81778e-14)
(-6.94881e-12 1.11038e-12 -2.35134e-12)
(-8.23322e-10 1.31566e-10 -2.78818e-10)
(-8.67118e-08 1.38565e-08 -2.9389e-08)
(-7.70562e-06 1.23135e-06 -2.6138e-06)
(-0.00052174 8.33737e-05 -0.000177124)
(-0.0206102 0.0032935 -0.00700266)
)
;
    }
    procBoundary21to20
    {
        type            processor;
        value           nonuniform List<vector> 
20
(
(-1.79292e-17 -1.81551e-17 2.31334e-17)
(-3.4919e-17 3.66231e-17 5.27832e-17)
(-5.97641e-15 6.35546e-15 9.04369e-15)
(-5.66587e-13 6.02523e-13 8.57378e-13)
(-3.78096e-15 -3.50823e-15 4.77836e-15)
(-2.29691e-14 2.43308e-14 3.47464e-14)
(-4.34668e-12 4.62237e-12 6.57753e-12)
(-4.5792e-10 4.86964e-10 6.92939e-10)
(-3.91398e-14 4.1585e-14 5.9223e-14)
(-1.11273e-11 1.18331e-11 1.68382e-11)
(-2.34445e-09 2.49315e-09 3.5477e-09)
(-2.77862e-07 2.95486e-07 4.2047e-07)
(-9.49532e-12 1.00976e-11 1.43686e-11)
(-3.00087e-09 3.19121e-09 4.54102e-09)
(-7.11306e-07 7.56422e-07 1.07637e-06)
(-9.63476e-05 0.000102459 0.000145796)
(-3.921e-14 4.16969e-14 5.90656e-14)
(-1.11502e-11 1.18574e-11 1.68035e-11)
(-2.3488e-09 2.49777e-09 3.54112e-09)
(-2.7832e-07 2.95973e-07 4.19777e-07)
)
;
    }
    procBoundary21to22
    {
        type            processor;
        value           nonuniform List<vector> 
20
(
(-8.37907e-13 -4.97976e-13 -7.0004e-13)
(7.30019e-11 -6.27863e-11 -2.10879e-11)
(7.71774e-13 -6.55947e-13 -2.16624e-13)
(1.5207e-13 5.41244e-13 4.98758e-13)
(1.8647e-10 -1.6039e-10 -5.38786e-11)
(1.96499e-08 -1.68993e-08 -5.67547e-09)
(1.87258e-10 -1.57611e-10 -5.13118e-11)
(7.25306e-11 2.63374e-10 2.42104e-10)
(-1.74475e-11 2.26437e-12 -6.41283e-12)
(7.37366e-11 -5.9078e-11 -1.78007e-11)
(1.8392e-10 6.7571e-10 6.20263e-10)
(1.92966e-08 7.12614e-08 6.53734e-08)
(-9.47593e-09 1.51422e-09 -3.22316e-09)
(-3.97638e-11 6.26586e-12 -1.36001e-11)
(6.29753e-13 2.8056e-12 2.51292e-12)
(7.15146e-11 2.64259e-10 2.42393e-10)
(-2.7403e-06 4.37898e-07 -9.29216e-07)
(-1.00974e-08 1.61356e-09 -3.42057e-09)
(-2.84298e-11 4.63694e-12 -9.57634e-12)
(-7.05316e-12 9.21716e-12 1.48149e-12)
)
;
    }
    procBoundary21to29
    {
        type            processor;
        value           nonuniform List<vector> 
50
(
(-1.25101e-16 1.33027e-16 1.89313e-16)
(-2.09581e-18 2.22857e-18 3.17161e-18)
(-2.55217e-20 2.7757e-20 4.23504e-20)
(2.57494e-19 -2.21379e-19 -7.3939e-20)
(1.88218e-17 -1.61868e-17 -5.43595e-18)
(1.11652e-15 -9.6021e-16 -3.22488e-16)
(4.81579e-14 -4.14163e-14 -1.39095e-14)
(1.14231e-12 -9.82404e-13 -3.29934e-13)
(4.81569e-14 -4.14145e-14 -1.39085e-14)
(1.13699e-15 -8.87467e-16 -2.55434e-16)
(-8.21824e-14 8.73902e-14 1.24364e-13)
(-1.2721e-15 1.35269e-15 1.92505e-15)
(-1.55823e-17 1.66763e-17 2.42244e-17)
(4.78577e-17 -4.11215e-17 -1.36066e-17)
(3.80083e-15 -3.26873e-15 -1.0978e-15)
(2.45918e-13 -2.11492e-13 -7.10289e-14)
(1.16619e-11 -1.00294e-11 -3.36832e-12)
(3.07377e-10 -2.64351e-10 -8.87799e-11)
(1.1662e-11 -1.00292e-11 -3.36805e-12)
(2.53856e-13 -1.8214e-13 -4.41021e-14)
(-3.94989e-11 4.20023e-11 5.97722e-11)
(-5.60222e-13 5.95724e-13 8.47767e-13)
(-6.54278e-15 6.95737e-15 9.90101e-15)
(-6.63422e-17 7.05979e-17 1.00707e-16)
(1.81302e-17 -1.54673e-17 -4.48784e-18)
(1.11352e-15 -9.57588e-16 -3.21585e-16)
(4.80489e-14 -4.13177e-14 -1.3874e-14)
(1.1401e-12 -9.79882e-13 -3.28788e-13)
(6.43225e-14 1.87733e-14 4.12578e-14)
(1.73706e-12 6.40944e-12 5.88088e-12)
(-1.04829e-08 1.11474e-08 1.58633e-08)
(-1.34784e-10 1.43327e-10 2.03962e-10)
(-1.43933e-12 1.53057e-12 2.17808e-12)
(-1.34937e-14 1.4349e-14 2.04195e-14)
(-1.1475e-16 1.22034e-16 1.73708e-16)
(1.84286e-18 -1.40041e-18 5.76854e-19)
(1.0888e-16 -9.36081e-17 -3.14174e-17)
(2.34956e-15 -2.01736e-15 -6.75957e-16)
(1.87794e-16 2.01344e-16 2.38733e-16)
(7.87251e-15 2.91391e-14 2.67242e-14)
(-3.95753e-11 4.20837e-11 5.96386e-11)
(-5.63578e-13 5.99297e-13 8.48948e-13)
(-6.60558e-15 7.02423e-15 9.94628e-15)
(-6.74504e-17 7.17254e-17 1.01521e-16)
(-6.20874e-19 6.6023e-19 9.34193e-19)
(-1.71298e-21 1.6051e-21 6.06234e-21)
(9.13347e-20 -1.40024e-19 -8.1308e-20)
(-1.08075e-18 -2.26816e-18 -2.56435e-18)
(-1.7506e-16 3.39866e-17 -5.61998e-17)
(-3.98183e-15 1.38596e-15 -9.80595e-16)
)
;
    }
}


// ************************************************************************* //
