/*--------------------------------*- C++ -*----------------------------------*\
| =========                 |                                                 |
| \\      /  F ield         | OpenFOAM: The Open Source CFD Toolbox           |
|  \\    /   O peration     | Version:  2.4.0                                 |
|   \\  /    A nd           | Web:      www.OpenFOAM.org                      |
|    \\/     M anipulation  |                                                 |
\*---------------------------------------------------------------------------*/
FoamFile
{
    version     2.0;
    format      ascii;
    class       volVectorField;
    location    "0.08";
    object      Ub;
}
// * * * * * * * * * * * * * * * * * * * * * * * * * * * * * * * * * * * * * //

dimensions      [0 1 -1 0 0 0 0];

internalField   nonuniform List<vector> 
200
(
(170339 -214456 165636)
(64881.3 -444911 63619.5)
(-112049 -328582 257747)
(-128957 -629853 -94787.2)
(-227462 -446832 161837)
(-272051 -646777 -145905)
(-336264 -606665 193541)
(-408283 -815877 -116384)
(-575480 -840445 474730)
(-668926 -1.09491e+06 -447288)
(70470.1 47941.5 137071)
(-26547.2 -125951 240153)
(-153275 -513520 -35024.2)
(-281739 -309009 185199)
(-351472 -513207 -116623)
(-486083 -449535 144940)
(-568335 -650696 -129364)
(-770950 -616239 387628)
(-938735 -824613 -396852)
(-1.16448e+06 -846106 600969)
(39545.9 -41035.8 201240)
(-83292.3 -332052 101657)
(-291527 -108820 257938)
(-378903 -358241 -106613)
(-552436 -240705 96704.1)
(-618886 -434992 -112303)
(-855825 -390215 298136)
(-1.01374e+06 -523179 -394374)
(-1.24715e+06 -450576 475720)
(-1.49336e+06 -697093 -719585)
(-85760.1 -155721 160209)
(-259853 172694 450178)
(-395144 -219394 -99646.4)
(-550968 -5281.13 99288.6)
(-578213 -130017 -72964.4)
(-918662 -135988 186786)
(-988315 -249065 -453387)
(-1.19238e+06 -115605 283840)
(-1.45883e+06 -378682 -537404)
(-1.88446e+06 -177906 366761)
(300757 -161355 188847)
(282778 -140863 195797)
(259047 -404796 245264)
(224404 -250280 317720)
(24950.6 -617018 332893)
(31798.7 -465158 369859)
(67542.1 -808566 223356)
(82796.8 -882361 795399)
(-204978 -1.22507e+06 -20053)
(-163237 -844444 950181)
(182707 -119836 222328)
(184468 -328054 269479)
(151460 -116037 343762)
(77923.8 -464021 81177.3)
(-26674.4 -241727 401941)
(-112714 -602897 166365)
(-388333 -611796 780678)
(-544133 -1.01605e+06 276374)
(-636890 -654260 982473)
(-806303 -1.00571e+06 247193)
(110697 -294140 266711)
(50433.5 8533.63 324409)
(22724.5 -367770 247885)
(-114577 -60210.5 428773)
(-173389 -409772 129733)
(-441906 -161406 606556)
(-584016 -653677 287734)
(-715652 -518668 797121)
(-1.015e+06 -804488 268508)
(-1.18173e+06 -514609 1.0332e+06)
(5604.21 128621 328295)
(-60549.7 -242123 257657)
(-152492 134922 500911)
(-318143 -246148 20237.6)
(-451419 129269 596221)
(-509880 -186647 238926)
(-831724 -230666 412735)
(-1.16894e+06 -602061 361869)
(-1.83467e+06 26539.7 1.32846e+06)
(-1.99938e+06 -498041 428651)
(341600 -138582 40075.8)
(381287 -291512 274744)
(355429 -181049 30079.8)
(320849 -518401 953843)
(417657 -269978 334333)
(423890 -348856 277388)
(492315 -350743 383236)
(576845 -517041 305124)
(639626 -418575 666998)
(1.04612e+06 -727350 451589)
(261320 -334318 180625)
(260445 -56865.7 224452)
(297634 -376962 254570)
(265815 -164400 332073)
(233731 -424484 283662)
(252347 -182254 419680)
(306427 -463977 331846)
(322098 -312227 569349)
(284072 -771066 349356)
(424669 -577461 1.01468e+06)
(156574 62495.4 280602)
(168503 -355286 274211)
(145391 -6652.19 418513)
(128937 -426110 249124)
(66274 -45035.5 525001)
(71934.5 -469163 265508)
(-67085 -56198.2 717579)
(-26577.4 -575182 395547)
(-187326 -389459 901229)
(-313246 -974801 514412)
(103201 -263593 267711)
(59864.4 116640 435543)
(36597.1 -266513 305511)
(-75678.3 148362 582342)
(-143662 -322241 251464)
(-293639 174088 826985)
(-381410 -229415 407072)
(-604772 -54577.9 884221)
(-775358 -565115 711116)
(-941829 -157676 1.32121e+06)
(430360 -260877 78284.5)
(422931 -169787 -29243.1)
(439055 -274928 513790)
(470501 -290173 24936.2)
(622560 -189186 538725)
(585480 -221185 -44495)
(633691 -93648.4 89387.5)
(789946 -123807 357168)
(860343 -439680 319188)
(946669 9009.28 362750)
(332809 -36835.9 37348.1)
(369350 -306516 105111)
(394012 -132246 99136.9)
(396656 -262583 178885)
(441582 -107369 171245)
(465242 -249884 124296)
(580978 -74033.5 311999)
(675511 -356232 245369)
(739699 -54576.6 452058)
(854324 -427122 401446)
(249247 -355080 102169)
(283512 -4671.64 159061)
(276497 -345996 144212)
(306245 16505.3 288162)
(327441 -385986 150999)
(376729 28191.6 419157)
(454750 -442165 250629)
(506558 -10801.5 563266)
(580757 -504041 410645)
(648000 109075 894849)
(249891 123923 181446)
(204022 -267872 171006)
(205275 144584 330944)
(192324 -334607 233925)
(178236 226920 599239)
(219171 -375031 323224)
(170159 241685 851392)
(221299 -331671 522679)
(248255 286127 1.17345e+06)
(336614 -401511 622284)
(499922 -108368 -117810)
(535002 -62829.9 191792)
(526752 -170521 -112711)
(631829 -139564 277538)
(646807 -135713 -50175.3)
(703970 13769.8 113840)
(703990 -97153.1 -102748)
(659132 116069 -26453.9)
(801460 -98573.8 123737)
(825081 -350520 184251)
(517815 -97082.7 57595)
(509175 -49280.3 -54226.8)
(558180 -124707 115346)
(561449 -95420.9 -35542.5)
(583909 -7927.57 66104.7)
(637832 -107360 -146137)
(560184 172098 -79145.2)
(774532 -65791 94345.6)
(832178 -332504 152264)
(864660 50464.9 71745.4)
(391068 33165.5 -22170.3)
(402348 -196553 64301.7)
(440715 -21194 3319.11)
(411723 -150849 48634.8)
(526810 -29476.5 7797.75)
(478064 -174085 31359.1)
(627976 -18262.3 86332)
(740825 -393431 145758)
(792414 84139.8 133691)
(859060 -296917 190916)
(290386 -186118 46062.8)
(335384 114832 33052)
(296116 -165151 52179.7)
(371968 102979 78004.6)
(361548 -225935 75312.7)
(447915 174477 198945)
(504624 -333442 190305)
(574585 241594 331692)
(673164 -322052 233652)
(837235 328972 354283)
)
;

boundaryField
{
    inlet
    {
        type            fixedValue;
        value           nonuniform 0();
    }
    outlet
    {
        type            zeroGradient;
    }
    bottom
    {
        type            fixedValue;
        value           uniform (0 0 0);
    }
    top
    {
        type            symmetryPlane;
    }
    side1
    {
        type            symmetryPlane;
    }
    side2
    {
        type            symmetryPlane;
    }
    procBoundary27to19
    {
        type            processor;
        value           nonuniform List<vector> 
50
(
(241354 -192515 133085)
(156075 -319687 224206)
(-7268.62 -661010 -154314)
(-29103.7 -429927 236943)
(-96539.2 -621742 -150840)
(-97230.8 -487843 183597)
(-69764 -725637 -167544)
(-80799.9 -714042 231156)
(-144451 -939703 -135848)
(-254384 -985122 466414)
(309573 -330759 -95608.4)
(352960 -316433 181715)
(297960 -280323 193246)
(190322 -481201 466439)
(212249 -425663 320382)
(285738 -407623 92359.2)
(192527 -567401 332579)
(518032 -786865 253641)
(-289288 -1.30924e+06 796925)
(521295 -974759 322238)
(429184 -234331 159189)
(400191 -218227 25265.4)
(391976 -294942 489423)
(465165 -325608 207062)
(529263 -236959 176292)
(539592 -381994 190790)
(617576 -148074 68395.5)
(709201 -275072 627962)
(607767 -575864 527369)
(769061 -653363 213316)
(448473 -195687 -72233.1)
(470241 -221079 261226)
(470005 -262594 12299.4)
(577430 -188740 318578)
(583675 -256512 94305.4)
(616650 -100798 157048)
(674340 -198619 110678)
(656480 -152472 208295)
(779969 -226721 345976)
(791789 -322407 252399)
(547889 -58825.7 269981)
(492467 -165462 -112259)
(587402 -75557.2 272063)
(582417 -136591 -62575.3)
(678357 -113078 153053)
(665940 -116484 -47566.1)
(646858 49289.7 94649.3)
(705856 -114758 87633.9)
(687248 -205780 113640)
(811034 -63716.3 104668)
)
;
    }
    procBoundary27to26
    {
        type            processor;
        value           nonuniform List<vector> 
20
(
(246883 5188.53 115330)
(202833 -249108 41690.5)
(41590.4 10482.7 108526)
(26712.8 50769.2 161183)
(263114 -242602 33116.1)
(171051 -252616 121269)
(164979 44031.8 215807)
(50865.8 -252288 199037)
(348778 -280850 56440.8)
(241526 -26116.7 141267)
(176592 -369697 161825)
(128574 183467 279721)
(413023 -113283 -44158.2)
(338649 -326559 28621.1)
(251367 117363 88980.8)
(237938 -272417 102494)
(557441 -28620.3 145690)
(488474 -44872.8 -84403.7)
(380051 -234432 50299.8)
(323153 178689 2682.13)
)
;
    }
    procBoundary27to28
    {
        type            processor;
        value           nonuniform List<vector> 
20
(
(-814809 -1.18183e+06 663951)
(-1.39862e+06 -1.14246e+06 -759139)
(-1.75161e+06 -723241 636402)
(-1.88363e+06 -544996 -1.34308e+06)
(-278202 -1.11508e+06 113209)
(-833718 -956200 1.15561e+06)
(-1.64872e+06 -1.12435e+06 647234)
(-2.3049e+06 -603219 1.60597e+06)
(134210 -942943 1.10243e+06)
(97440.3 -1.27109e+06 272878)
(-576421 -608172 1.89181e+06)
(-2.00649e+06 -654442 1.28766e+06)
(1.04773e+06 -181489 556813)
(907843 -149258 382880)
(848456 -431348 563360)
(538285 399594 1.39351e+06)
(919863 12020.3 45319.8)
(902332 -188560 204725)
(1.00633e+06 94316 16913.1)
(971163 -275280 189314)
)
;
    }
}


// ************************************************************************* //
