/*--------------------------------*- C++ -*----------------------------------*\
| =========                 |                                                 |
| \\      /  F ield         | OpenFOAM: The Open Source CFD Toolbox           |
|  \\    /   O peration     | Version:  2.4.0                                 |
|   \\  /    A nd           | Web:      www.OpenFOAM.org                      |
|    \\/     M anipulation  |                                                 |
\*---------------------------------------------------------------------------*/
FoamFile
{
    version     2.0;
    format      ascii;
    class       volVectorField;
    location    "0.01";
    object      Ur;
}
// * * * * * * * * * * * * * * * * * * * * * * * * * * * * * * * * * * * * * //

dimensions      [0 1 -1 0 0 0 0];

internalField   nonuniform List<vector> 
60
(
(1.48482e+09 -6.23172e+08 1.82262e+07)
(1.13056e+09 -3.45662e+08 5.30646e+07)
(1.11482e+09 -2.16183e+08 4.17632e+07)
(1.05539e+09 -3.83274e+08 1.10372e+08)
(8.60252e+08 -4.82473e+08 2.1768e+08)
(4.43997e+08 -1.89337e+08 -3.09225e+07)
(4.33031e+08 -1.27645e+08 -6.19745e+06)
(4.33922e+08 -1.50033e+08 -1.18298e+07)
(4.45899e+08 -2.2502e+08 -2.85281e+07)
(4.27572e+08 -1.84038e+08 -1.85314e+07)
(1.83341e+08 -1.1031e+08 -2.80759e+07)
(1.70982e+08 -1.08379e+08 -5.16749e+07)
(1.968e+08 -1.26362e+08 -6.43306e+07)
(2.23235e+08 -1.80088e+08 -5.9531e+07)
(2.10664e+08 -1.43162e+08 -5.0647e+07)
(3.92372e+08 -3.51257e+07 -3.23341e+07)
(3.41493e+08 -6.66075e+07 -5.00856e+07)
(2.92176e+08 -7.2137e+07 -4.29905e+07)
(2.18878e+08 -8.35898e+07 -4.802e+07)
(1.41836e+08 -5.71159e+07 -3.75224e+07)
(8.30714e+08 -5.83857e+08 4.81302e+07)
(6.60622e+08 -3.79895e+08 -3.69342e+07)
(5.83417e+08 -2.93454e+08 -5.53958e+07)
(4.65935e+08 -3.04405e+08 1.8441e+07)
(4.51218e+08 -4.09849e+08 1.17918e+08)
(4.12978e+08 -2.43838e+08 -7.45555e+07)
(3.80524e+08 -2.54774e+08 -7.65703e+07)
(3.98036e+08 -2.41415e+08 -8.11609e+07)
(3.99175e+08 -2.20169e+08 -5.24717e+07)
(3.7487e+08 -2.81958e+08 -2.81293e+06)
(5.70222e+08 -1.58932e+08 -1.18379e+08)
(5.79655e+08 -2.51906e+08 -1.46528e+08)
(5.98351e+08 -2.15692e+08 -9.47699e+07)
(5.44659e+08 -2.2315e+08 -4.97363e+07)
(4.88161e+08 -2.48278e+08 -9.74041e+06)
(6.30125e+08 -8.42764e+07 -2.01358e+08)
(6.39745e+08 -1.22182e+08 -2.31426e+08)
(6.38084e+08 -9.27812e+07 -1.37262e+08)
(5.44664e+08 -1.22363e+08 -4.84441e+07)
(4.34716e+08 -9.62145e+07 1.38902e+07)
(8.74678e+08 -1.33488e+09 4.39024e+07)
(6.63412e+08 -6.54079e+08 -2.16761e+07)
(5.17263e+08 -3.24614e+08 -2.99138e+07)
(4.13067e+08 -2.15199e+08 -2.32966e+07)
(3.18067e+08 -1.56382e+08 -3.95582e+06)
(7.05512e+08 -6.66442e+08 -5.06191e+07)
(4.58058e+08 -3.50524e+08 -4.97642e+07)
(3.30155e+08 -1.68963e+08 -3.78414e+07)
(2.70036e+08 -1.02013e+08 -1.04423e+07)
(2.59065e+08 -8.70344e+07 1.69329e+07)
(3.77279e+08 -2.4709e+08 -1.18008e+08)
(2.77834e+08 -2.4214e+08 -8.4624e+07)
(2.98889e+08 -1.44731e+08 -3.36607e+07)
(3.16074e+08 -1.07491e+08 -7.12568e+06)
(3.26326e+08 -1.00431e+08 3.00126e+07)
(9.18292e+08 -6.88404e+07 -1.89284e+08)
(7.711e+08 -1.45356e+08 -2.20111e+08)
(5.2461e+08 -1.05871e+08 -1.22286e+08)
(3.88672e+08 -6.78133e+07 -4.61785e+07)
(3.40614e+08 -3.62208e+07 2.20844e+07)
)
;

boundaryField
{
    inlet
    {
        type            calculated;
        value           nonuniform 0();
    }
    outlet
    {
        type            calculated;
        value           nonuniform 0();
    }
    bottom
    {
        type            calculated;
        value           nonuniform 0();
    }
    top
    {
        type            symmetryPlane;
    }
    side1
    {
        type            symmetryPlane;
    }
    side2
    {
        type            symmetryPlane;
    }
    procBoundary124to60
    {
        type            processor;
        value           nonuniform List<vector> 
20
(
(2.38471e+09 -1.05417e+09 -6.37098e+07)
(1.90863e+09 -6.39852e+08 -2.5945e+07)
(1.72731e+09 -4.47157e+08 7.02543e+06)
(1.39183e+09 -1.7136e+08 9.26619e+07)
(1.34657e+09 -3.54792e+08 -1.29186e+07)
(9.37779e+08 -4.13562e+08 3.42993e+07)
(7.11141e+08 -2.04116e+08 8.06874e+06)
(6.23175e+08 -1.60397e+08 -8.88805e+06)
(4.89684e+08 -1.39185e+08 -364400)
(4.92704e+08 -1.72591e+08 -9.65374e+06)
(3.19927e+08 -1.88353e+08 6.80271e+06)
(3.28847e+08 -9.81493e+07 -8.71534e+06)
(3.48352e+08 -7.70276e+07 8.85645e+06)
(3.70652e+08 -1.04339e+08 2.10883e+07)
(3.57752e+08 -1.40618e+08 -740015)
(3.4738e+08 -8.63357e+07 -4.54319e+07)
(2.87958e+08 -6.19169e+07 -4.68512e+07)
(2.23768e+08 -5.26149e+07 -3.26598e+07)
(1.88523e+08 -4.78414e+07 -1.08982e+07)
(1.68047e+08 -4.2698e+07 -3.1187e+06)
)
;
    }
    procBoundary124to108
    {
        type            processor;
        value           nonuniform List<vector> 
15
(
(1.94154e+09 -1.18071e+09 1.263e+08)
(1.68555e+09 -8.9869e+08 1.0497e+08)
(1.3511e+09 -5.55759e+08 1.91977e+08)
(1.12599e+09 -7.41523e+08 2.6928e+08)
(9.53663e+08 -8.78254e+08 3.14986e+08)
(1.67302e+09 -1.02926e+09 1.21004e+08)
(1.32477e+09 -7.94256e+08 3.78277e+07)
(1.19503e+09 -5.94792e+08 3.65635e+07)
(1.02116e+09 -6.25675e+08 9.50111e+07)
(8.61461e+08 -8.55425e+08 1.99542e+08)
(1.82161e+09 -1.97631e+09 1.12263e+08)
(1.37067e+09 -1.38381e+09 -1.42746e+07)
(9.95666e+08 -6.36696e+08 -3.90139e+07)
(8.35398e+08 -4.68986e+08 -4.81171e+07)
(6.65242e+08 -4.1764e+08 -1.88625e+07)
)
;
    }
    procBoundary124to123
    {
        type            processor;
        value           nonuniform List<vector> 
12
(
(1.75381e+09 -8.40749e+08 -3.34616e+07)
(4.86014e+08 -3.24895e+08 -8.50653e+07)
(2.50543e+08 -1.36472e+08 -2.44249e+07)
(4.37872e+08 -2.74317e+07 -1.77508e+07)
(1.10647e+09 -7.4193e+08 1.17401e+08)
(5.40368e+08 -3.78341e+08 -9.20624e+07)
(5.14842e+08 -1.2497e+08 -1.34763e+08)
(6.14458e+08 -5.34367e+07 -1.42447e+08)
(1.02159e+09 -1.32566e+09 8.05582e+07)
(1.02318e+09 -9.00356e+08 -6.41781e+07)
(6.76871e+08 -3.25853e+08 -1.41924e+08)
(1.12558e+09 7.95781e+06 -1.44714e+08)
)
;
    }
    procBoundary124to125
    {
        type            processor;
        value           nonuniform List<vector> 
12
(
(5.88775e+08 -2.80742e+08 1.32568e+08)
(4.35061e+08 -1.04528e+08 3.15067e+07)
(2.09413e+08 -6.36989e+07 -1.9337e+07)
(9.45619e+07 -3.45299e+07 -1.45633e+07)
(4.29309e+08 -3.1591e+08 1.26053e+08)
(3.08484e+08 -1.70937e+08 4.90051e+07)
(4.03048e+08 -8.65249e+07 1.66759e+07)
(3.77644e+08 -2.01753e+07 3.00038e+07)
(2.76237e+08 -1.28087e+08 1.57718e+07)
(2.83666e+08 -9.24048e+07 2.68587e+07)
(3.12661e+08 -3.43169e+07 3.44947e+07)
(3.4503e+08 1.66801e+07 3.5702e+07)
)
;
    }
}


// ************************************************************************* //
