/*--------------------------------*- C++ -*----------------------------------*\
| =========                 |                                                 |
| \\      /  F ield         | OpenFOAM: The Open Source CFD Toolbox           |
|  \\    /   O peration     | Version:  2.4.0                                 |
|   \\  /    A nd           | Web:      www.OpenFOAM.org                      |
|    \\/     M anipulation  |                                                 |
\*---------------------------------------------------------------------------*/
FoamFile
{
    version     2.0;
    format      ascii;
    class       volVectorField;
    location    "0.09";
    object      gradp;
}
// * * * * * * * * * * * * * * * * * * * * * * * * * * * * * * * * * * * * * //

dimensions      [1 -2 -2 0 0 0 0];

internalField   nonuniform List<vector> 
200
(
(-5.41893e+16 4.31841e+15 8.72609e+14)
(-6.4808e+16 2.26962e+15 3.15366e+13)
(-7.55691e+16 4.51855e+15 6.06921e+14)
(-8.81985e+16 2.10678e+15 1.83545e+14)
(-1.02816e+17 4.31969e+15 1.83821e+15)
(-1.17068e+17 1.08326e+15 7.40748e+14)
(-1.34461e+17 8.65877e+15 2.39244e+15)
(-1.6088e+17 1.24672e+16 1.36655e+15)
(-1.87018e+17 2.2699e+15 5.42644e+15)
(-2.14657e+17 -1.03303e+16 5.53457e+15)
(-4.82401e+16 6.5363e+15 -1.97152e+15)
(-6.44077e+16 8.01434e+15 -3.93002e+14)
(-7.58948e+16 1.08963e+16 -3.96476e+15)
(-8.85962e+16 1.44144e+16 3.96426e+14)
(-1.04863e+17 6.98334e+15 1.19564e+15)
(-1.0839e+17 -6.31648e+14 1.17563e+15)
(-1.11693e+17 4.16732e+15 -4.42577e+15)
(-1.73657e+17 -5.81887e+14 -6.04001e+15)
(-2.32613e+17 -1.01956e+16 3.51755e+15)
(-2.46169e+17 -9.54636e+15 1.14631e+16)
(-4.68921e+16 1.12386e+16 -4.91532e+15)
(-5.60879e+16 1.69984e+16 -5.948e+15)
(-6.2769e+16 2.63869e+16 -5.8082e+15)
(-9.60244e+16 2.87526e+16 -7.31032e+15)
(-1.32909e+17 4.94705e+16 -2.36099e+15)
(-1.227e+17 7.6913e+15 2.54737e+15)
(-1.34361e+17 -7.92049e+15 4.28643e+15)
(-1.89606e+17 -1.6903e+16 8.927e+15)
(-2.04947e+17 -7.31919e+15 1.63167e+16)
(-1.9467e+17 -2.2676e+16 1.15028e+16)
(-3.87448e+16 1.90138e+16 -7.93822e+15)
(-3.41112e+16 2.18625e+16 -1.0359e+16)
(-5.23863e+16 2.36443e+16 -1.40469e+16)
(-4.2429e+16 4.93921e+16 -1.21704e+16)
(-1.46986e+17 1.59104e+16 -2.39095e+16)
(-2.23172e+17 -1.1233e+16 4.96749e+15)
(-1.60881e+17 -4.73393e+15 1.18836e+16)
(-1.72455e+17 6.13136e+15 1.53834e+16)
(-2.44159e+17 2.08369e+16 1.43323e+16)
(-2.2659e+17 1.68962e+16 3.28071e+16)
(-4.85394e+16 -2.32199e+14 -3.92882e+14)
(-6.56582e+16 1.59035e+15 -7.76856e+14)
(-7.50827e+16 -2.79613e+15 -2.90245e+14)
(-8.42584e+16 2.44738e+15 -9.65716e+14)
(-1.01033e+17 3.29158e+15 -1.80149e+14)
(-1.15295e+17 1.77907e+15 1.73744e+15)
(-1.32458e+17 -2.25037e+15 5.63038e+15)
(-1.51171e+17 6.1676e+14 8.88951e+15)
(-1.7368e+17 -7.84319e+14 1.50686e+16)
(-2.01338e+17 -8.44646e+14 2.12495e+16)
(-3.72344e+16 -2.72438e+15 -4.64332e+15)
(-7.07861e+16 -1.55292e+15 -3.76494e+15)
(-7.33686e+16 6.32124e+14 -3.87167e+15)
(-7.20829e+16 2.42422e+15 -2.21896e+15)
(-1.0237e+17 2.64629e+14 -1.78671e+15)
(-1.26378e+17 2.25894e+15 1.84284e+15)
(-1.34783e+17 7.1977e+15 -9.11162e+14)
(-1.48239e+17 1.15148e+16 -4.11026e+14)
(-1.76603e+17 7.22887e+15 1.06271e+16)
(-2.23238e+17 2.83171e+12 1.60204e+16)
(-5.0631e+16 1.69192e+15 -5.78433e+15)
(-5.89452e+16 1.05272e+15 -7.2493e+15)
(-6.71284e+16 1.02555e+16 -7.17456e+15)
(-8.49933e+16 8.64575e+15 -9.33717e+15)
(-1.01364e+17 9.30223e+15 -1.38778e+15)
(-1.01428e+17 1.37583e+16 3.79035e+15)
(-1.13946e+17 1.81745e+16 5.21853e+15)
(-1.51109e+17 1.73745e+16 1.35682e+16)
(-1.96704e+17 9.98435e+15 1.07512e+16)
(-2.16256e+17 1.14744e+16 2.5578e+16)
(-5.24963e+16 1.35528e+16 -1.14265e+16)
(-5.3659e+16 1.38214e+16 -1.3799e+16)
(-5.81825e+16 1.2334e+16 -1.92584e+16)
(-7.39894e+16 1.15302e+16 -1.56231e+16)
(-9.2145e+16 1.33432e+16 -2.7282e+16)
(-1.08634e+17 2.33154e+16 1.793e+15)
(-1.2755e+17 2.5141e+16 1.40053e+16)
(-1.64619e+17 2.35636e+16 9.15992e+15)
(-1.88403e+17 3.03076e+16 2.05983e+16)
(-2.60311e+17 1.4205e+16 3.06058e+16)
(-5.3499e+16 -2.48228e+15 -1.67175e+15)
(-6.44795e+16 -2.51131e+15 -1.23783e+15)
(-7.61734e+16 -1.21173e+15 -3.92348e+14)
(-8.78462e+16 1.01589e+14 4.36099e+14)
(-9.41663e+16 1.74919e+15 6.20677e+14)
(-9.84744e+16 1.2519e+15 3.67265e+15)
(-1.11574e+17 -1.80769e+15 3.2161e+15)
(-1.30677e+17 -2.41361e+15 7.29077e+15)
(-1.47466e+17 -4.83653e+15 1.33747e+16)
(-1.71261e+17 -1.86968e+16 2.34968e+16)
(-5.41784e+16 -2.09002e+15 -3.28057e+15)
(-6.19384e+16 -2.34157e+15 -3.94139e+15)
(-7.09476e+16 -1.1858e+14 -5.32671e+14)
(-8.19243e+16 1.02007e+15 -3.44587e+15)
(-9.18657e+16 5.05113e+15 -2.74593e+15)
(-1.05588e+17 2.653e+15 -1.49093e+15)
(-1.18905e+17 3.50836e+15 1.88291e+15)
(-1.36735e+17 6.90409e+15 -8.21146e+14)
(-1.80032e+17 -1.71034e+16 2.64531e+15)
(-1.75258e+17 -2.62086e+15 1.58676e+16)
(-5.46495e+16 3.85626e+14 -1.52132e+15)
(-6.05367e+16 9.43883e+14 -2.11391e+15)
(-6.94502e+16 1.76804e+15 -2.01588e+15)
(-7.75067e+16 7.30608e+15 -1.0611e+15)
(-9.09005e+16 8.67795e+15 -2.0128e+15)
(-1.0156e+17 7.61156e+15 -2.28211e+15)
(-1.03072e+17 1.59458e+16 -6.11198e+15)
(-1.71901e+17 -1.58953e+15 -1.61758e+16)
(-1.66516e+17 8.63484e+15 -3.40696e+15)
(-1.93062e+17 6.60623e+14 -6.41136e+15)
(-5.36523e+16 5.12488e+15 -3.45986e+15)
(-5.91736e+16 3.35372e+15 -4.12934e+15)
(-5.82232e+16 7.64657e+15 -3.07991e+15)
(-6.81045e+16 1.35077e+16 -4.5036e+15)
(-9.12548e+16 1.58531e+16 -8.08998e+15)
(-9.10524e+16 2.77396e+16 -1.05131e+16)
(-1.37307e+17 1.55049e+16 -2.32816e+16)
(-1.51357e+17 2.24968e+16 -2.17682e+16)
(-1.75532e+17 2.93686e+16 -3.11045e+16)
(-2.45721e+17 -1.53886e+16 -4.93391e+16)
(-5.27492e+16 -2.8063e+15 -3.35044e+15)
(-6.15641e+16 -2.73535e+15 -3.70367e+15)
(-6.97261e+16 -3.02065e+15 -3.1602e+15)
(-8.10167e+16 -3.76377e+15 -2.63183e+15)
(-9.06765e+16 -2.09498e+15 -1.73584e+15)
(-1.06989e+17 -6.48265e+15 -1.62972e+14)
(-1.2088e+17 -4.38349e+15 -2.69329e+14)
(-1.18664e+17 -1.23623e+16 7.24242e+13)
(-1.21821e+17 -1.79513e+16 7.28109e+15)
(-1.31371e+17 -1.30514e+16 1.8963e+16)
(-5.38776e+16 -2.4837e+15 -3.91951e+15)
(-6.19928e+16 -2.95465e+15 -4.48483e+15)
(-7.17829e+16 -1.96553e+15 -4.94721e+15)
(-7.91653e+16 2.87009e+13 -5.3981e+15)
(-9.61142e+16 -3.94893e+15 -6.14177e+15)
(-1.11566e+17 -7.26866e+15 -9.20377e+15)
(-1.32639e+17 -7.72724e+15 -8.35819e+15)
(-1.45799e+17 -2.60317e+16 -6.45386e+15)
(-1.23199e+17 -1.96217e+16 -4.34903e+15)
(-1.45308e+17 -4.78503e+16 1.85181e+16)
(-5.41696e+16 1.40506e+15 -4.64952e+15)
(-6.05278e+16 7.52001e+14 -5.37211e+15)
(-6.37594e+16 6.17989e+15 -6.08381e+15)
(-8.49835e+16 6.95338e+15 -6.67266e+15)
(-1.05271e+17 7.51746e+14 -1.05101e+16)
(-1.14546e+17 -6.77174e+14 -1.65043e+16)
(-1.58406e+17 -2.20887e+16 -2.0667e+16)
(-1.42453e+17 -1.61409e+16 -2.46271e+16)
(-1.65458e+17 -4.40153e+16 -6.88831e+15)
(-2.1192e+17 -9.28564e+16 -1.30237e+16)
(-5.64924e+16 7.86473e+15 -2.03987e+15)
(-5.24431e+16 8.74654e+15 -3.20141e+15)
(-5.93802e+16 1.09607e+16 -5.664e+15)
(-9.00216e+16 5.69511e+15 -1.08357e+16)
(-1.11375e+17 8.3436e+15 -1.77036e+16)
(-1.57247e+17 -1.77968e+16 -2.46129e+16)
(-1.63567e+17 -9.22491e+15 -3.779e+16)
(-1.89652e+17 -3.7913e+16 -3.44305e+16)
(-2.7663e+17 -1.24674e+17 -4.13521e+16)
(-2.97212e+17 -1.09395e+17 -1.50982e+16)
(-5.66421e+16 -3.39278e+15 -2.94418e+15)
(-6.38708e+16 -3.76117e+15 -3.27424e+15)
(-7.27435e+16 -4.07095e+15 -3.66502e+15)
(-8.32882e+16 -4.32444e+15 -4.21719e+15)
(-8.6266e+16 -5.30029e+15 -4.37488e+15)
(-9.37815e+16 -1.32134e+16 -2.83892e+15)
(-1.10821e+17 -1.47499e+16 -2.47501e+14)
(-1.06516e+17 -1.28557e+16 3.04615e+14)
(-8.70164e+16 -2.34447e+16 3.5486e+15)
(-8.32952e+16 -1.94085e+16 1.11811e+16)
(-5.76111e+16 -4.16853e+15 -3.31073e+15)
(-6.52271e+16 -5.01106e+15 -3.91537e+15)
(-7.38701e+16 -4.79635e+15 -4.32146e+15)
(-8.57469e+16 -5.44526e+15 -4.56761e+15)
(-1.04044e+17 -8.98762e+15 -6.37819e+15)
(-1.12681e+17 -2.34931e+16 -7.04563e+15)
(-1.10105e+17 -2.91279e+16 -6.72648e+15)
(-1.23906e+17 -3.26151e+16 -3.73802e+12)
(-1.00122e+17 -3.97744e+16 1.15196e+14)
(-7.79671e+16 -5.37995e+16 7.20785e+15)
(-5.92159e+16 3.39304e+15 -3.99721e+15)
(-6.51264e+16 2.99736e+15 -4.55949e+15)
(-7.36119e+16 6.21175e+14 -5.43428e+15)
(-9.16708e+16 -1.39407e+15 -7.63841e+15)
(-1.22362e+17 -9.82098e+15 -7.52406e+15)
(-1.34062e+17 -1.70431e+16 -1.29792e+16)
(-1.29065e+17 -3.11452e+16 -1.36229e+16)
(-1.27809e+17 -4.63521e+16 -3.80999e+15)
(-1.29385e+17 -5.057e+16 -9.04685e+15)
(-1.07584e+17 -5.31255e+16 7.46284e+15)
(-5.65462e+16 1.06722e+16 -2.06824e+15)
(-7.07708e+16 8.70037e+15 -2.51202e+15)
(-8.26529e+16 2.0407e+15 -7.79565e+15)
(-1.06631e+17 -5.16674e+15 -9.78477e+15)
(-1.35342e+17 -1.38941e+16 -1.29861e+16)
(-1.55329e+17 -2.64947e+16 -1.72743e+16)
(-1.68723e+17 -5.07996e+16 -1.23868e+16)
(-1.62756e+17 -6.89194e+16 -1.88857e+16)
(-1.13669e+17 -6.54019e+16 -3.98149e+15)
(-1.05951e+17 -6.08104e+16 3.20396e+16)
)
;

boundaryField
{
    inlet
    {
        type            zeroGradient;
    }
    outlet
    {
        type            zeroGradient;
    }
    bottom
    {
        type            zeroGradient;
    }
    top
    {
        type            symmetryPlane;
    }
    side1
    {
        type            symmetryPlane;
    }
    side2
    {
        type            symmetryPlane;
    }
    procBoundary4to3
    {
        type            processor;
        value           nonuniform List<vector> 
20
(
(-4.5745e+16 -7.04984e+14 -1.73406e+15)
(-3.88611e+16 4.36572e+15 -3.83229e+15)
(-3.99144e+16 1.22507e+16 -4.77959e+15)
(-3.44926e+16 1.79439e+16 -6.06169e+15)
(-3.79407e+16 -4.06215e+15 -9.92586e+14)
(-2.90792e+16 -5.07122e+14 -1.90923e+15)
(-4.36405e+16 8.68364e+15 -4.8251e+15)
(-4.43997e+16 1.38433e+16 -9.14038e+15)
(-4.46534e+16 -2.17162e+15 7.77048e+13)
(-4.62076e+16 -1.7663e+15 1.2596e+15)
(-4.45421e+16 6.80853e+14 -1.00811e+15)
(-4.79207e+16 3.83572e+15 -2.88055e+15)
(-4.51273e+16 -2.17112e+15 -2.72146e+15)
(-4.60882e+16 -2.24442e+15 -3.4121e+15)
(-4.45252e+16 2.0594e+15 -3.94512e+15)
(-4.66481e+16 1.30058e+16 -2.29708e+15)
(-4.9422e+16 -3.27664e+15 -2.0577e+15)
(-5.07253e+16 -3.72415e+15 -2.74865e+15)
(-5.162e+16 2.46489e+15 -2.98253e+15)
(-4.78152e+16 8.54156e+15 -2.49521e+15)
)
;
    }
    procBoundary4to5
    {
        type            processor;
        value           nonuniform List<vector> 
20
(
(-2.49822e+17 -1.34861e+16 9.58866e+15)
(-2.65963e+17 -2.01845e+14 1.06834e+16)
(-2.56931e+17 2.47062e+15 9.57089e+15)
(-2.4744e+17 -2.41821e+16 3.79426e+15)
(-2.27963e+17 -1.17345e+16 2.86297e+16)
(-2.51287e+17 -2.30284e+14 3.27869e+16)
(-3.05448e+17 -8.55202e+15 1.12537e+16)
(-3.24639e+17 -5.3764e+15 1.46197e+16)
(-1.88718e+17 -6.83465e+15 3.52395e+16)
(-2.15824e+17 -2.80035e+16 2.69986e+16)
(-2.4561e+17 -2.65969e+16 -2.05201e+15)
(-3.27969e+17 2.51819e+15 -4.26361e+16)
(-1.37616e+17 -2.49199e+16 3.47705e+16)
(-1.47948e+17 -5.98967e+16 2.60543e+16)
(-2.31145e+17 -1.19968e+17 1.98233e+16)
(-3.59591e+17 -1.85615e+17 2.32602e+15)
(-7.36542e+16 -2.07807e+16 1.85721e+16)
(-8.34379e+16 -5.1919e+16 2.11591e+16)
(-9.42185e+16 -6.45621e+16 2.35582e+16)
(-1.32316e+17 -9.30043e+16 5.57875e+16)
)
;
    }
    procBoundary4to12
    {
        type            processor;
        value           nonuniform List<vector> 
50
(
(-3.90548e+16 1.93334e+16 -8.32845e+15)
(-4.68269e+16 8.89338e+15 -1.09737e+16)
(-7.70994e+15 -5.45551e+15 -1.28772e+16)
(-1.11492e+17 -1.89142e+16 -3.0974e+16)
(-2.54159e+17 -6.08353e+16 -3.96549e+15)
(-1.63989e+17 4.94722e+15 2.41401e+16)
(-9.96325e+16 2.19107e+16 2.29582e+16)
(-1.38464e+17 5.8982e+16 1.98221e+16)
(-1.83417e+17 6.05211e+16 2.22359e+16)
(-2.84707e+17 6.99438e+16 9.82081e+15)
(-5.06748e+16 1.92004e+16 -1.44649e+16)
(-6.13828e+16 1.85846e+16 -1.88173e+16)
(-7.17108e+16 1.66438e+16 -1.71732e+16)
(-8.2975e+16 1.50678e+16 -3.17649e+16)
(-7.77936e+16 2.03075e+16 -1.42362e+15)
(-7.78328e+16 2.95753e+16 2.81482e+16)
(-1.1345e+17 4.28589e+16 1.78678e+16)
(-1.40775e+17 6.38579e+16 2.37967e+16)
(-2.15422e+17 6.96133e+16 1.60836e+16)
(-2.87624e+17 7.54515e+16 5.39994e+15)
(-5.56136e+16 1.15711e+16 -5.07637e+15)
(-5.54933e+16 1.2228e+16 -5.28573e+15)
(-4.91421e+16 1.50331e+16 -2.87423e+15)
(-6.10938e+16 1.7435e+16 -4.70805e+15)
(-6.24368e+16 2.73737e+16 -5.13755e+15)
(-1.02256e+17 3.23906e+16 -2.79772e+16)
(-1.13557e+17 5.02502e+16 -2.75907e+16)
(-1.44173e+17 6.14543e+16 -5.45987e+16)
(-2.42287e+17 4.06301e+16 -1.0027e+17)
(-2.46763e+17 9.31777e+16 -8.36612e+16)
(-6.26882e+16 2.36013e+16 -1.18245e+15)
(-5.43359e+16 1.80032e+16 -2.03045e+15)
(-6.98622e+16 1.03102e+16 -9.58748e+15)
(-9.02176e+16 1.09576e+16 -1.83442e+16)
(-1.52255e+17 -6.84264e+15 -2.91021e+16)
(-1.49683e+17 1.19664e+16 -5.04007e+16)
(-1.98639e+17 -5.11013e+16 -6.21073e+16)
(-3.73351e+17 -1.707e+17 -8.17622e+16)
(-3.08422e+17 -1.23245e+17 -6.61199e+16)
(-3.33802e+17 -1.29011e+17 -4.14123e+16)
(-5.88983e+16 1.22451e+16 -2.24255e+15)
(-8.23894e+16 7.89313e+15 -4.58835e+15)
(-1.01346e+17 4.01415e+15 -1.10093e+16)
(-1.2354e+17 -4.24487e+14 -1.44271e+16)
(-1.65018e+17 -1.85437e+16 -2.14226e+16)
(-2.07873e+17 -5.09649e+16 -1.84154e+16)
(-2.13914e+17 -8.47172e+16 -3.96071e+16)
(-1.57014e+17 -1.14339e+17 -2.3189e+16)
(-1.13167e+17 -1.30017e+17 2.79982e+16)
(-1.62789e+17 -1.61508e+17 3.78281e+16)
)
;
    }
}


// ************************************************************************* //
