/*--------------------------------*- C++ -*----------------------------------*\
| =========                 |                                                 |
| \\      /  F ield         | OpenFOAM: The Open Source CFD Toolbox           |
|  \\    /   O peration     | Version:  2.4.0                                 |
|   \\  /    A nd           | Web:      www.OpenFOAM.org                      |
|    \\/     M anipulation  |                                                 |
\*---------------------------------------------------------------------------*/
FoamFile
{
    version     2.0;
    format      ascii;
    class       volVectorField;
    location    "0.12";
    object      gradp;
}
// * * * * * * * * * * * * * * * * * * * * * * * * * * * * * * * * * * * * * //

dimensions      [1 -2 -2 0 0 0 0];

internalField   nonuniform List<vector> 
200
(
(-1.25163e+25 -4.51332e+24 1.35223e+24)
(-1.23355e+25 -4.06279e+24 1.97954e+23)
(-1.53046e+25 -4.59279e+24 -9.28819e+21)
(-2.19284e+25 -7.33443e+24 7.14802e+23)
(-2.65134e+25 -9.81752e+24 2.53044e+24)
(-3.17804e+25 -1.38808e+25 -2.0197e+24)
(-3.9386e+25 -1.87752e+25 -1.18524e+24)
(-5.54992e+25 -2.93387e+25 -4.68472e+24)
(-6.45797e+25 -3.57378e+25 -4.7543e+24)
(-6.63225e+25 -3.61735e+25 -1.1336e+25)
(-1.13824e+25 -6.78394e+24 2.44688e+24)
(-1.47478e+25 -8.17927e+24 2.48244e+24)
(-2.11885e+25 -1.16301e+25 3.24189e+24)
(-2.51878e+25 -1.40276e+25 9.15787e+24)
(-3.12619e+25 -1.52599e+25 -1.7003e+24)
(-4.17727e+25 -1.75029e+25 -1.58172e+24)
(-6.21987e+25 -2.35386e+25 -4.66464e+24)
(-7.57307e+25 -2.69306e+25 -3.97235e+24)
(-7.09804e+25 -2.55977e+25 -8.88718e+24)
(-5.91714e+25 -2.88698e+25 -7.4784e+24)
(-1.80085e+25 -6.35424e+24 2.6345e+24)
(-2.20279e+25 -9.52014e+24 2.14907e+24)
(-2.70012e+25 -1.15939e+25 3.94098e+24)
(-2.91879e+25 -1.11168e+25 -8.59422e+23)
(-3.34641e+25 -9.23617e+24 -5.85576e+24)
(-4.83378e+25 -6.06654e+24 -1.27114e+24)
(-5.82414e+25 -3.60039e+24 -1.92524e+24)
(-5.96173e+25 2.17161e+24 -6.61191e+24)
(-6.84579e+25 4.04425e+24 -9.88274e+24)
(-6.30135e+25 1.60698e+24 -4.42855e+24)
(-2.22335e+25 -2.30877e+24 1.46882e+24)
(-2.52271e+25 -3.9206e+24 1.07408e+24)
(-2.43818e+25 -3.90837e+24 -1.40256e+24)
(-2.04724e+25 -2.61088e+24 -4.77375e+24)
(-2.11614e+25 4.49419e+23 -1.55858e+24)
(-3.05011e+25 3.54047e+24 2.79843e+24)
(-4.57225e+25 9.36777e+24 3.21136e+23)
(-6.04414e+25 9.79995e+24 -4.05596e+24)
(-7.21097e+25 8.95572e+24 -3.76384e+24)
(-6.73152e+25 7.97404e+24 -5.01584e+23)
(-1.52942e+25 -3.84991e+24 7.94497e+23)
(-1.66924e+25 -2.24152e+24 7.97875e+23)
(-1.36507e+25 -4.39354e+23 -1.05436e+24)
(-1.38013e+25 6.79596e+24 -5.58283e+23)
(-3.52638e+25 -1.16298e+25 -5.17681e+23)
(-4.36705e+25 -1.41088e+25 -3.49823e+23)
(-4.79141e+25 -2.06385e+25 -2.06989e+23)
(-6.69201e+25 -3.13339e+25 5.70943e+23)
(-8.58638e+25 -4.01107e+25 9.31531e+23)
(-8.09166e+25 -3.94546e+25 2.69705e+23)
(-1.30207e+25 -4.73231e+24 7.8987e+23)
(-1.22038e+25 -5.05749e+24 -1.25865e+24)
(1.72914e+23 -5.3097e+24 -1.01879e+24)
(-4.10027e+25 -1.65464e+25 7.00272e+23)
(-6.56286e+25 -2.86778e+25 2.24204e+24)
(-5.12586e+25 -1.63052e+25 3.63818e+24)
(-6.98487e+25 -2.47226e+25 4.99252e+24)
(-8.92429e+25 -3.00141e+25 6.28442e+24)
(-8.21998e+25 -3.38032e+25 5.98726e+24)
(-4.55944e+25 -1.78178e+25 5.17848e+24)
(-1.96535e+25 -7.91914e+24 2.32644e+24)
(-1.78471e+25 -1.17735e+25 2.04538e+24)
(-3.66284e+25 -1.9025e+25 2.81699e+24)
(-6.05375e+25 -3.34074e+25 5.624e+24)
(-3.47816e+25 -9.00942e+24 8.09889e+24)
(-3.57601e+25 9.41712e+23 1.07861e+25)
(-7.53319e+25 4.37684e+24 1.11393e+25)
(-8.50813e+25 2.03782e+24 4.43753e+24)
(-6.14712e+25 1.22416e+25 -8.21425e+24)
(-3.59554e+25 1.27699e+25 -5.30201e+24)
(-2.55808e+25 -4.17386e+24 3.21644e+24)
(-3.44155e+25 -5.64058e+24 3.95011e+24)
(-4.30948e+25 -1.2458e+25 5.91842e+24)
(-2.09716e+25 -8.87381e+24 7.5391e+24)
(3.06962e+24 7.32492e+24 8.45894e+24)
(-2.4486e+25 1.00518e+25 6.67241e+24)
(-6.76565e+25 1.2962e+25 8.60813e+24)
(-7.35133e+25 1.38895e+25 7.82597e+24)
(-6.07357e+25 1.8746e+25 1.18185e+25)
(-5.62559e+25 1.42572e+25 1.06061e+25)
(-1.09427e+25 -6.54167e+24 2.58381e+23)
(-1.82518e+25 -1.03293e+25 1.98981e+24)
(-1.96443e+25 -1.03745e+25 2.81968e+24)
(-2.0211e+25 -7.23967e+24 2.02825e+24)
(-2.58463e+25 -5.47511e+24 -1.36224e+23)
(-3.07861e+25 -3.85043e+24 3.54449e+24)
(-3.64396e+25 -4.51978e+24 2.92169e+24)
(-5.18559e+25 -9.65614e+24 7.07106e+24)
(-6.55436e+25 -1.45186e+25 1.17299e+25)
(-7.14936e+25 -1.57794e+25 2.08362e+25)
(-1.99442e+25 -4.33284e+24 -2.00944e+23)
(-2.05355e+25 -6.18326e+24 1.19497e+23)
(-1.49199e+25 -5.43597e+24 -1.50906e+24)
(-1.47531e+25 -4.13595e+24 -8.93328e+24)
(-2.18606e+25 -1.47339e+24 1.13823e+24)
(-3.29711e+25 3.14518e+23 4.21665e+24)
(-5.37308e+25 -5.38459e+24 1.06329e+25)
(-7.25475e+25 -2.07441e+25 1.62667e+25)
(-7.45195e+25 -4.02309e+25 2.61843e+25)
(-7.58831e+25 -3.77845e+25 2.44757e+25)
(-1.97596e+25 -2.47172e+24 1.09917e+24)
(-2.04581e+25 -1.18612e+24 8.39493e+23)
(-1.55497e+25 -4.94326e+23 -2.78407e+24)
(-1.22859e+25 -1.74666e+23 3.65939e+24)
(-1.69454e+25 7.10867e+23 1.11027e+25)
(-3.86086e+25 -1.21177e+24 9.43443e+24)
(-7.85568e+25 2.18458e+24 1.64034e+25)
(-1.21549e+26 4.63809e+24 2.49908e+25)
(-9.96244e+25 1.33743e+25 2.7725e+25)
(-3.38148e+25 1.02912e+25 1.06056e+25)
(-1.75487e+25 -8.84756e+23 1.94444e+24)
(-1.65807e+25 -8.73036e+23 1.68111e+24)
(-1.2897e+25 1.05393e+24 5.78714e+24)
(-1.23427e+25 4.53289e+23 1.08705e+25)
(-2.39348e+25 1.0255e+24 7.58839e+24)
(-3.00237e+25 -3.0414e+24 4.16301e+24)
(-4.20311e+25 5.31793e+24 8.63253e+24)
(-5.01681e+25 1.52215e+25 2.03825e+25)
(-6.32133e+25 4.10081e+25 1.82593e+25)
(-8.58213e+25 3.3427e+25 1.95753e+25)
(-8.08723e+24 -3.59962e+24 9.56612e+23)
(-8.4962e+24 -4.14693e+24 1.95039e+24)
(-1.35277e+25 -7.75369e+24 3.09822e+24)
(-2.32602e+25 -1.33842e+25 6.21475e+23)
(-3.04118e+25 -1.60217e+25 2.58284e+23)
(-3.38852e+25 -1.27549e+25 1.83957e+24)
(-3.6629e+25 -8.60978e+24 4.41994e+24)
(-3.87339e+25 -7.3345e+24 7.08638e+24)
(-4.18154e+25 -5.83961e+24 1.47384e+25)
(-5.10399e+25 -1.13603e+25 2.10403e+25)
(-9.57217e+24 -3.38705e+24 2.66649e+24)
(-1.63898e+25 -6.898e+24 2.99033e+24)
(-2.8796e+25 -1.42757e+25 -2.59649e+23)
(-3.25314e+25 -1.39365e+25 -2.14295e+24)
(-2.35488e+25 -1.06956e+25 -3.62813e+24)
(-2.08757e+25 -6.88132e+24 -5.68926e+23)
(-3.12887e+25 -3.15193e+24 2.86348e+24)
(-3.94782e+25 -1.34248e+24 1.06029e+25)
(-5.59308e+25 -8.21108e+24 1.9207e+25)
(-6.75508e+25 -3.41868e+25 2.70471e+25)
(-1.59945e+25 -4.48652e+24 2.6773e+24)
(-3.02735e+25 -9.27492e+24 2.22864e+23)
(-2.76047e+25 -7.35106e+24 3.92907e+23)
(-1.61e+25 -1.72127e+24 -2.53518e+24)
(-1.63014e+25 1.31083e+24 -1.03857e+24)
(-1.87979e+25 8.55889e+23 -5.69954e+23)
(-2.55514e+25 1.17631e+24 6.10469e+24)
(-4.88522e+25 8.62313e+24 1.84561e+25)
(-1.07504e+26 -4.38386e+23 3.63114e+25)
(-1.20744e+26 4.92917e+24 3.7663e+25)
(-2.22798e+25 -2.82142e+24 2.69578e+24)
(-2.21188e+25 -4.29399e+24 3.0192e+24)
(-1.36887e+25 1.25591e+24 1.70412e+24)
(-1.52076e+25 2.66403e+24 3.4072e+24)
(-1.83945e+25 1.70207e+24 1.18451e+24)
(-2.11448e+25 1.6175e+24 4.49387e+24)
(-1.57542e+25 5.28623e+23 6.34724e+24)
(-4.27076e+25 6.5161e+24 1.28363e+25)
(-6.33187e+25 3.60092e+24 1.98985e+25)
(-6.34348e+25 2.86087e+25 2.65993e+25)
(-7.76794e+24 -1.29728e+24 1.40495e+23)
(-1.13987e+25 -4.85384e+24 5.60497e+23)
(-2.38968e+25 -1.23664e+25 -7.66527e+23)
(-2.92988e+25 -1.57613e+25 -2.67986e+24)
(-2.19484e+25 -1.79598e+25 -2.65361e+24)
(-1.74688e+25 -1.26545e+25 -3.50406e+22)
(-1.96498e+25 -8.74852e+24 2.4765e+24)
(-1.88368e+25 -6.8912e+24 5.27099e+24)
(-2.08912e+25 -6.09493e+24 8.69434e+24)
(-3.29294e+25 -5.71918e+24 1.18098e+25)
(-1.48925e+25 -1.57974e+24 1.21041e+24)
(-2.98991e+25 -8.9473e+24 -8.70252e+23)
(-3.13464e+25 -9.76447e+24 -3.01127e+24)
(-2.55322e+25 -9.1866e+24 -1.66726e+24)
(-1.68237e+25 -3.54835e+24 -8.24023e+23)
(-1.2198e+25 -3.54072e+24 4.34328e+23)
(-1.79808e+25 -2.68899e+24 1.88777e+24)
(-2.02482e+25 -2.55256e+24 4.59302e+24)
(-2.18983e+25 -5.71413e+24 7.89715e+24)
(-2.4313e+25 -1.11882e+25 1.52282e+25)
(-2.64914e+25 -2.42485e+24 1.27007e+24)
(-2.77681e+25 -1.13994e+24 -7.20316e+23)
(-2.43754e+25 2.64771e+24 2.05299e+24)
(-1.68666e+25 8.70556e+24 2.88849e+23)
(-1.06567e+25 8.41109e+24 1.81342e+24)
(-1.57501e+25 6.88871e+24 2.05283e+24)
(-1.76734e+25 7.7586e+24 2.76584e+24)
(-2.48871e+25 8.21149e+24 4.51469e+24)
(-3.81625e+25 1.44807e+25 1.02549e+25)
(-7.42872e+25 9.57469e+24 2.61839e+25)
(-1.67954e+25 -8.55193e+23 2.49896e+24)
(-1.9754e+25 3.6011e+24 4.21411e+24)
(-1.16554e+25 3.15187e+24 3.23797e+24)
(-1.40055e+25 9.9611e+24 4.84951e+24)
(-2.04574e+25 4.58242e+24 3.61364e+24)
(-1.35029e+25 5.06072e+24 4.20484e+24)
(-1.53353e+25 5.706e+24 6.00171e+24)
(-6.80398e+24 6.22979e+24 4.33574e+24)
(-1.91719e+25 1.47476e+25 1.72216e+25)
(-7.23459e+24 1.57251e+25 1.81316e+25)
)
;

boundaryField
{
    inlet
    {
        type            zeroGradient;
    }
    outlet
    {
        type            zeroGradient;
    }
    bottom
    {
        type            zeroGradient;
    }
    top
    {
        type            symmetryPlane;
    }
    side1
    {
        type            symmetryPlane;
    }
    side2
    {
        type            symmetryPlane;
    }
    procBoundary30to22
    {
        type            processor;
        value           nonuniform List<vector> 
50
(
(-1.36733e+25 -6.62403e+24 2.03226e+24)
(-1.45888e+25 -6.61076e+24 1.34414e+24)
(-1.46452e+25 -5.61048e+24 6.4599e+23)
(-1.47383e+25 -5.50693e+24 3.26378e+23)
(-1.81691e+25 -6.79641e+24 -5.67613e+23)
(-2.38572e+25 -8.04468e+24 -1.43921e+24)
(-3.1283e+25 -9.89232e+24 -3.50013e+24)
(-4.18056e+25 -1.27473e+25 -2.72534e+24)
(-5.73107e+25 -1.93843e+25 -6.15411e+24)
(-6.55808e+25 -2.16996e+25 -5.42771e+24)
(-1.32202e+25 -6.78923e+24 2.05759e+24)
(-1.90249e+25 -9.16895e+24 2.65793e+24)
(-1.79021e+25 -7.6058e+24 2.59478e+24)
(-1.86218e+25 -5.33859e+24 6.4105e+23)
(-2.3819e+25 -2.73412e+24 -4.71962e+23)
(-3.32413e+25 -9.09728e+24 -2.6308e+24)
(-3.53986e+25 -8.29718e+24 -3.91714e+24)
(-5.02983e+25 -1.31018e+25 -6.01718e+24)
(-6.59583e+25 -1.86703e+25 -7.27475e+24)
(-7.44515e+25 -2.56963e+25 -7.56789e+24)
(-7.97967e+24 -6.44343e+24 -3.57375e+23)
(-1.28698e+25 -7.29914e+24 1.31037e+24)
(-2.10992e+25 -1.0339e+25 3.0624e+24)
(-2.45519e+25 -8.7612e+24 3.67929e+24)
(-2.86391e+25 -8.87964e+24 3.88317e+24)
(-3.48818e+25 -7.61885e+24 3.37048e+24)
(-4.21194e+25 -6.21713e+24 3.11495e+24)
(-5.25499e+25 -1.14932e+24 1.26705e+24)
(-6.2273e+25 -1.19019e+24 4.76487e+24)
(-6.6196e+25 -1.09634e+24 6.91676e+24)
(-5.91445e+24 -3.33364e+24 -6.11258e+23)
(-8.08163e+24 -3.40913e+24 -4.31842e+23)
(-1.03215e+25 -3.29724e+24 9.85274e+23)
(-1.59954e+25 -5.13503e+24 3.1831e+24)
(-2.48072e+25 -7.82802e+24 4.17477e+24)
(-3.56996e+25 -9.37083e+24 4.93362e+24)
(-4.21296e+25 -7.79164e+24 5.50645e+24)
(-4.50185e+25 -5.28881e+24 8.87485e+24)
(-4.78792e+25 -3.50303e+24 1.39422e+25)
(-5.07435e+25 6.60519e+23 2.07594e+25)
(-8.91124e+24 -3.26792e+24 -2.2855e+23)
(-7.76094e+24 -2.68394e+24 -4.28433e+23)
(-9.53139e+24 -5.14245e+24 -1.28336e+23)
(-1.43455e+25 -1.11288e+25 -1.81514e+23)
(-2.30374e+25 -1.52241e+25 3.8725e+23)
(-3.06204e+25 -1.53017e+25 3.71544e+23)
(-2.95074e+25 -1.1161e+25 1.97449e+24)
(-2.55554e+25 -4.70468e+24 4.31596e+24)
(-2.42423e+25 4.19385e+24 8.05672e+24)
(-2.50195e+25 1.08428e+25 1.17025e+25)
)
;
    }
    procBoundary30to29
    {
        type            processor;
        value           nonuniform List<vector> 
20
(
(-1.19209e+25 -5.20822e+24 1.06606e+24)
(-1.5199e+25 -5.43317e+24 2.99439e+24)
(-1.78663e+25 -4.09462e+24 2.66314e+24)
(-2.08611e+25 -1.8081e+24 2.12012e+24)
(-9.59182e+24 -2.34128e+24 3.06127e+23)
(-1.14072e+25 -2.87784e+24 1.41689e+24)
(-1.68029e+25 -5.49344e+24 2.59259e+24)
(-2.30409e+25 -2.67692e+24 2.48611e+24)
(-9.42736e+24 -4.34706e+24 -2.62367e+23)
(-1.33722e+25 -1.77482e+24 -9.58165e+23)
(-1.36391e+25 -2.38387e+24 -3.03961e+23)
(-1.21281e+25 -1.97848e+24 6.49538e+23)
(-6.92667e+24 -2.31807e+24 9.58282e+23)
(-7.96336e+24 -2.94439e+24 1.41167e+24)
(-9.03813e+24 -2.92112e+24 2.32657e+24)
(-1.20662e+25 -1.15132e+24 2.78381e+24)
(-8.69573e+24 -1.86322e+24 4.60719e+23)
(-7.40081e+24 4.14444e+23 7.92341e+23)
(-1.05266e+25 -1.88456e+23 2.55999e+24)
(-1.22217e+25 -1.2469e+24 2.50025e+24)
)
;
    }
    procBoundary30to31
    {
        type            processor;
        value           nonuniform List<vector> 
20
(
(-6.3471e+25 -3.25331e+25 -9.31494e+24)
(-4.68932e+25 -2.39432e+25 -4.64438e+24)
(-4.88432e+25 -2.76234e+22 -1.42708e+24)
(-6.20419e+25 6.80485e+24 -3.07828e+23)
(-5.55443e+25 -2.56822e+25 -6.84437e+23)
(-3.39038e+25 -1.13226e+25 7.6485e+23)
(-3.95532e+25 6.91086e+24 9.10323e+23)
(-5.27844e+25 8.59566e+24 6.03535e+24)
(-6.96873e+25 -1.93622e+25 2.10664e+25)
(-4.60917e+25 -2.13915e+25 1.93229e+25)
(-1.3488e+25 8.40517e+24 1.22864e+24)
(-6.09668e+25 1.50049e+25 1.60159e+25)
(-6.16523e+25 -1.42433e+25 2.67897e+25)
(-6.51161e+25 -4.3063e+25 3.53227e+25)
(-4.38376e+25 1.61963e+24 2.36638e+25)
(-7.14095e+25 3.22553e+25 4.44569e+25)
(-4.74415e+25 -5.74166e+24 1.43538e+25)
(-9.52419e+24 -2.6393e+25 2.1409e+25)
(-4.43953e+25 2.30199e+25 2.47726e+25)
(-9.45239e+24 4.82739e+25 3.47841e+25)
)
;
    }
}


// ************************************************************************* //
