/*--------------------------------*- C++ -*----------------------------------*\
| =========                 |                                                 |
| \\      /  F ield         | OpenFOAM: The Open Source CFD Toolbox           |
|  \\    /   O peration     | Version:  2.4.0                                 |
|   \\  /    A nd           | Web:      www.OpenFOAM.org                      |
|    \\/     M anipulation  |                                                 |
\*---------------------------------------------------------------------------*/
FoamFile
{
    version     2.0;
    format      ascii;
    class       surfaceScalarField;
    location    "0.12";
    object      phib;
}
// * * * * * * * * * * * * * * * * * * * * * * * * * * * * * * * * * * * * * //

dimensions      [0 3 -1 0 0 0 0];

internalField   nonuniform List<scalar> 
490
(
461457
149933
5626.99
406119
143190
12501.1
397606
158212
-67310.6
417492
136513
-101725
545455
67326.4
-93189.5
710331
-13990.2
-64861.4
816352
54902.5
-83133.3
944793
-46696.1
-30316.5
915534
74005.7
-51214.3
2499.38
-53409.7
410993
128907
1466.97
359379
221619
-26814.5
349806
201719
-33934.1
482268
126848
-122796
565683
17691.3
-33780.1
666925
-46042.5
-69190.2
914307
-194259
1779.55
849420
1368.64
16822.4
862242
41445.6
19738.2
24725.6
-31897.3
309960
130250
2808.34
376193
166270
-10883.5
477686
181468
-81242.1
466480
74694.4
63359.6
637338
-122785
-30381.7
736968
-194791
49118.6
718514
-229845
54040
690931
-55906.3
84858.1
585148
85061.1
62167.1
21634.4
12198.7
325630
-5764.42
506422
-14522
682226
5663.61
758919
-1998.6
614384
21749.4
390507
29085.6
48458.6
112204
-87348.9
79901.2
-71346.5
69058.7
-2615.62
267259
6481.1
36620.9
232241
-43166.1
10894.7
200198
-52199.3
-46934.2
207674
-136987
-22195.7
435794
-278487
-81423.9
439605
-144647
-38822.9
817948
-287352
-140046
708825
-73255.5
-49729.6
941397
-91430.2
-147516
43305
-125305
-79134.8
121789
39333.9
-276998
109487
18395.5
-317409
-81568.8
35846.3
72268.8
-667670
18208.9
20991.6
-232311
-28678.7
335127
-389476
-138497
361619
-244035
-68030.1
525846
-87080.3
-133580
690814
-118048
-118611
93618.6
-237680
-29673.9
162615
18216.3
-151378
218134
2174.46
-318461
47949.5
-43677.4
40276.5
-908858
-54190.5
7673.93
-78963.9
-151126
24646.1
-278996
-78333.2
101911
-153575
-113685
161535
-19614.1
-42232.7
83539.8
-60155.4
82269.9
174534
-21913.8
215922
-13505.6
447183
-27649.6
609388
-108592
-97201.4
-204267
17170.9
-171587
-101060
-131679
-139289
-3141.92
-264386
185384
-277822
22338.8
84942.6
509184
117690
-11702.9
592369
61501.2
-39848.1
593969
43628.3
-91917.7
740277
71499.2
-154855
747754
6569.28
-75690.8
912088
-16285.4
-112326
868883
2592.75
-80823.8
1.02019e+06
-52433.1
-118668
974681
36365.6
-121063
109984
-203814
382625
96603.8
-19105.6
504023
47986.8
-89488.5
661855
46409
-124766
731864
36433.3
-16734.9
839307
-60559.2
-68992.6
840508
-130787
-25196.4
1.0759e+06
-211222
-89610.4
1.21874e+06
-120778
-208070
1.08753e+06
251548
-202583
189343
-212276
363550
97329.4
-49888.7
489912
16424
-92625.1
417730
54080.8
20832.8
379481
30082.9
-9590.4
271249
-99486.6
-3967.22
411469
-276976
-72363.1
539596
-290795
-162240
441261
64020.6
-128696
141844
646579
-13344.2
-57969.3
166668
379140
-46559.3
362362
5552.82
277687
30164
124443
-20940.9
-71377.2
-75252.8
-332234
-147799
-617343
-8828.49
-544592
176654
-122655
246981
118781
318441
28523.9
-19963.8
474570
-9373.94
-84931
604671
-34307.1
-138913
524630
25393.1
-65809.6
596256
8272.41
-103507
551765
65828.2
-79973.1
554036
16650.1
-31529.4
573952
-4743.97
-82137.1
665930
7774.22
-164801
79862.4
-272383
393782
-20837.4
-88703.8
548571
-81484.1
-172167
400747
15684.3
-26933.9
382634
-14442.2
41214
427763
-39954
-65895.4
528196
-64423.7
4623.15
601257
-116852
-29169.8
742508
-186704
-167361
1.05325e+06
-174080
-331468
384682
-125042
431933
-50196
-137527
340001
-33288.5
-48888.9
166456
-44074
254136
182816
-4619.59
-35772.9
108764
-32710.6
62841.6
97700.7
-99342.9
-26380.7
97626
-184185
-94832
244259
-322408
-139625
-2192.49
65567.9
-6540.85
509851
158034
398573
-76263.3
114392
256446
81638.5
18843.4
-66349.7
122428
-167300
-7012.7
-399812
-14630.4
-524092
-68733.1
-725604
55758.4
-613591
200536
253947
330238
-132497
375279
-240548
148890
-91341
132022
-48049.2
3304.35
-35218.5
-71596.6
24920.8
-93757.6
-1971.78
-140889
-34644.1
-210769
-107289
-180103
177867
-222067
-92837.4
-142011
-187488
-23624.8
-154341
-39982.2
-218923
-36531.5
-124773
-64605.7
-14654.8
-141260
-10900.5
-205759
-91317.4
-358341
-327269
-241775
-117012
-420659
-12015.9
-175952
-14196.1
-206764
-44943.3
-157425
-23028.7
-125490
-122921
-164051
-197532
-214938
-294497
-91953.1
-487866
-489.525
-462359
-217929
-213282
-135797
-165839
-303391
-569656
-808394
-1.09572e+06
)
;

boundaryField
{
    inlet
    {
        type            fixedValue;
        value           nonuniform 0();
    }
    outlet
    {
        type            calculated;
        value           nonuniform 0();
    }
    bottom
    {
        type            fixedValue;
        value           uniform 0;
    }
    top
    {
        type            symmetryPlane;
        value           nonuniform List<scalar> 
40
(
-7.63252e-20
-6.80967e-20
-4.05904e-20
-3.20859e-20
-1.14032e-19
-5.3676e-20
-2.11145e-20
-2.33323e-20
-4.84762e-20
-1.98864e-20
-1.46977e-20
-1.60627e-20
-2.61109e-20
-1.83681e-20
-1.66681e-20
-1.25398e-20
-2.9488e-20
-2.23234e-20
-1.43396e-20
-2.06583e-20
-6.30883e-20
-2.2158e-20
-2.39099e-20
-2.48188e-20
-3.46561e-20
-2.44432e-20
-2.68368e-20
-3.0702e-20
-5.02929e-20
-3.50235e-20
-3.90114e-20
-2.03912e-20
-3.60084e-20
-5.99985e-20
-2.96432e-20
-1.57779e-20
-3.64928e-20
-3.25263e-20
-1.4702e-20
-9.98282e-21
)
;
    }
    side1
    {
        type            symmetryPlane;
        value           nonuniform 0();
    }
    side2
    {
        type            symmetryPlane;
        value           uniform 0;
    }
    procBoundary30to22
    {
        type            processor;
        value           nonuniform List<scalar> 
50
(
-140253
-100354
-82388
-54674.4
-102100
-86024.5
-77789.5
-51429.1
6468.12
-55074.6
-5257.36
79790.9
63866.4
49982
38600.6
114798
-34077.4
201791
-44839.8
47747.1
-27507.5
-93943.3
-245.249
-85147.2
-19779.2
-74545.5
-18610.5
-29936.9
-17307.4
-88042.4
-138089
-101672
-48798.1
-34398.1
-52082.5
-53690.7
-68215.4
-51702.9
-56013.2
-45608.9
-17595.5
110576
178817
-892.436
60429.5
-29993
-7396.66
-361.465
12367.4
39712.5
)
;
    }
    procBoundary30to29
    {
        type            processor;
        value           nonuniform List<scalar> 
20
(
-476764
-391434
-314112
-189615
-299477
-74040.3
-26559.7
-45566
-551042
-303099
-296171
-248757
-200615
-274823
-314936
-419065
-200109
-177001
-806.255
269083
)
;
    }
    procBoundary30to31
    {
        type            processor;
        value           nonuniform List<scalar> 
20
(
1.02152e+06
871913
576041
-47096.5
922240
846282
36737.1
-190846
1.03125e+06
982766
200574
-214462
700245
661192
-118727
-238906
-342761
-69193.2
-260698
-842267
)
;
    }
}


// ************************************************************************* //
