/*--------------------------------*- C++ -*----------------------------------*\
| =========                 |                                                 |
| \\      /  F ield         | OpenFOAM: The Open Source CFD Toolbox           |
|  \\    /   O peration     | Version:  2.4.0                                 |
|   \\  /    A nd           | Web:      www.OpenFOAM.org                      |
|    \\/     M anipulation  |                                                 |
\*---------------------------------------------------------------------------*/
FoamFile
{
    version     2.0;
    format      ascii;
    class       volVectorField;
    location    "0.09";
    object      A_Source;
}
// * * * * * * * * * * * * * * * * * * * * * * * * * * * * * * * * * * * * * //

dimensions      [1 -2 -2 0 0 0 0];

internalField   nonuniform List<vector> 
200
(
(-1.39137e-153 -1.04964e-153 5.32602e-154)
(-6.1765e-156 -4.65773e-156 2.3643e-156)
(-2.75227e-158 -2.07463e-158 1.05354e-158)
(-1.23068e-160 -9.27249e-161 4.71092e-161)
(-5.52017e-163 -4.15711e-163 2.11306e-163)
(-2.48287e-165 -1.86883e-165 9.50417e-166)
(-1.11943e-167 -8.42134e-168 4.28505e-168)
(-5.05739e-170 -3.80253e-170 1.93591e-170)
(-2.28877e-172 -1.7199e-172 8.76115e-173)
(-1.04196e-174 -7.82534e-175 3.98852e-175)
(-2.36853e-155 -1.7954e-155 9.06649e-156)
(-1.0688e-157 -8.09922e-158 4.09126e-158)
(-4.81926e-160 -3.65081e-160 1.84476e-160)
(-2.17191e-162 -1.64479e-162 8.31385e-163)
(-9.7854e-165 -7.40804e-165 3.74575e-165)
(-4.40826e-167 -3.33614e-167 1.68744e-167)
(-1.98597e-169 -1.50243e-169 7.60208e-170)
(-8.9484e-172 -6.76721e-172 3.42535e-172)
(-4.03298e-174 -3.04877e-174 1.54378e-174)
(-1.82641e-176 -1.38015e-176 6.99129e-177)
(-3.27776e-157 -2.4936e-157 1.25469e-157)
(-1.50161e-159 -1.14203e-159 5.748e-160)
(-6.87095e-162 -5.22412e-162 2.63013e-162)
(-3.14042e-164 -2.38703e-164 1.20212e-164)
(-1.43384e-166 -1.08955e-166 5.4886e-167)
(-6.54025e-169 -4.96838e-169 2.50354e-169)
(-2.98059e-171 -2.26358e-171 1.14094e-171)
(-1.35725e-173 -1.03045e-173 5.1954e-174)
(-6.17593e-176 -4.68751e-176 2.36408e-176)
(-2.8212e-178 -2.14064e-178 1.07993e-178)
(-3.92801e-159 -2.99652e-159 1.5036e-159)
(-1.82273e-161 -1.39012e-161 6.9772e-162)
(-8.44772e-164 -6.44104e-164 3.2337e-164)
(-3.91055e-166 -2.98085e-166 1.49692e-166)
(-1.80812e-168 -1.3779e-168 6.92128e-169)
(-8.35065e-171 -6.36206e-171 3.19654e-171)
(-3.85242e-173 -2.93426e-173 1.47467e-173)
(-1.77535e-175 -1.35188e-175 6.79585e-176)
(-8.17312e-178 -6.22198e-178 3.12858e-178)
(-3.7762e-180 -2.87397e-180 1.44549e-180)
(-4.3885e-155 -3.3093e-155 1.67987e-155)
(-1.97265e-157 -1.48698e-157 7.55111e-158)
(-8.8996e-160 -6.70564e-160 3.40667e-160)
(-4.02839e-162 -3.03391e-162 1.54202e-162)
(-1.82887e-164 -1.37671e-164 7.00071e-165)
(-8.32467e-167 -6.26332e-167 3.1866e-167)
(-3.7978e-169 -2.85586e-169 1.45376e-169)
(-1.73591e-171 -1.30464e-171 6.64487e-172)
(-7.94708e-174 -5.96936e-174 3.04206e-174)
(-3.65956e-176 -2.74725e-176 1.40084e-176)
(-7.56568e-157 -5.73298e-157 2.89606e-157)
(-3.45648e-159 -2.61836e-159 1.3231e-159)
(-1.57767e-161 -1.19475e-161 6.03917e-162)
(-7.19639e-164 -5.44795e-164 2.7547e-164)
(-3.28112e-166 -2.48311e-166 1.25598e-166)
(-1.49561e-168 -1.13148e-168 5.72505e-169)
(-6.81668e-171 -5.15521e-171 2.60935e-171)
(-3.10695e-173 -2.34882e-173 1.18931e-173)
(-1.41627e-175 -1.07028e-175 5.42134e-176)
(-6.48658e-178 -4.89998e-178 2.483e-178)
(-1.06008e-158 -8.06232e-159 4.05788e-159)
(-4.9161e-161 -3.73778e-161 1.88183e-161)
(-2.27676e-163 -1.73055e-163 8.71518e-164)
(-1.05307e-165 -8.00204e-166 4.03105e-166)
(-4.86498e-168 -3.69572e-168 1.86226e-168)
(-2.24503e-170 -1.70496e-170 8.59372e-171)
(-1.03494e-172 -7.85746e-173 3.96165e-173)
(-4.76653e-175 -3.61778e-175 1.82458e-175)
(-2.1934e-177 -1.66429e-177 8.3961e-178)
(-1.01318e-179 -7.68543e-180 3.87835e-180)
(-1.28605e-160 -9.80819e-161 4.92286e-161)
(-6.04008e-163 -4.60532e-163 2.31208e-163)
(-2.83291e-165 -2.15941e-165 1.08441e-165)
(-1.3269e-167 -1.01118e-167 5.07924e-168)
(-6.2069e-170 -4.72881e-170 2.37594e-170)
(-2.89972e-172 -2.20862e-172 1.10998e-172)
(-1.353e-174 -1.03027e-174 5.17915e-175)
(-6.30551e-177 -4.80021e-177 2.41368e-177)
(-2.93521e-179 -2.23392e-179 1.12357e-179)
(-1.37116e-181 -1.04329e-181 5.24867e-182)
(-7.08412e-157 -5.3398e-157 2.71173e-157)
(-3.22437e-159 -2.4295e-159 1.23425e-159)
(-1.47274e-161 -1.10921e-161 5.63747e-162)
(-6.74815e-164 -5.08014e-164 2.58312e-164)
(-3.1008e-166 -2.3332e-166 1.18695e-166)
(-1.42836e-168 -1.07422e-168 5.4676e-169)
(-6.59359e-171 -4.95615e-171 2.52395e-171)
(-3.04915e-173 -2.29066e-173 1.16718e-173)
(-1.4121e-175 -1.06023e-175 5.40537e-176)
(-6.57748e-178 -4.93565e-178 2.51779e-178)
(-1.2368e-158 -9.36874e-159 4.73436e-159)
(-5.72064e-161 -4.33201e-161 2.1898e-161)
(-2.64315e-163 -2.00091e-163 1.01177e-163)
(-1.22025e-165 -9.23452e-166 4.67097e-166)
(-5.63016e-168 -4.25936e-168 2.15517e-168)
(-2.59671e-170 -1.96381e-170 9.93995e-171)
(-1.19736e-172 -9.05204e-173 4.58336e-173)
(-5.52046e-175 -4.17194e-175 2.11317e-175)
(-2.54519e-177 -1.92273e-177 9.74271e-178)
(-1.17893e-179 -8.90258e-180 4.51283e-180)
(-1.75459e-160 -1.33403e-160 6.71638e-161)
(-8.23666e-163 -6.26057e-163 3.1529e-163)
(-3.8608e-165 -2.93369e-165 1.47787e-165)
(-1.80711e-167 -1.37277e-167 6.91744e-168)
(-8.44722e-170 -6.41506e-170 3.23351e-170)
(-3.94366e-172 -2.99406e-172 1.50959e-172)
(-1.839e-174 -1.39578e-174 7.03948e-175)
(-8.56638e-177 -6.4999e-177 3.27912e-177)
(-3.98645e-179 -3.0239e-179 1.52597e-179)
(-1.86208e-181 -1.41205e-181 7.12784e-182)
(-2.15481e-162 -1.64295e-162 8.24837e-163)
(-1.02429e-164 -7.80775e-165 3.92088e-165)
(-4.86161e-167 -3.70484e-167 1.86097e-167)
(-2.30405e-169 -1.75537e-169 8.81966e-170)
(-1.09037e-171 -8.30494e-172 4.17382e-172)
(-5.15279e-174 -3.92367e-174 1.97243e-174)
(-2.43173e-176 -1.8512e-176 9.30839e-177)
(-1.14607e-178 -8.7224e-179 4.38703e-179)
(-5.39447e-181 -4.10452e-181 2.06495e-181)
(-2.54793e-183 -1.93815e-183 9.75319e-184)
(-7.74116e-159 -5.83263e-159 2.96323e-159)
(-3.56727e-161 -2.68675e-161 1.36551e-161)
(-1.6494e-163 -1.24175e-163 6.31371e-164)
(-7.64951e-166 -5.7563e-166 2.92815e-166)
(-3.55723e-168 -2.67553e-168 1.36167e-168)
(-1.65809e-170 -1.24647e-170 6.34698e-171)
(-7.74401e-173 -5.81844e-173 2.96433e-173)
(-3.62277e-175 -2.72045e-175 1.38676e-175)
(-1.69703e-177 -1.27363e-177 6.49607e-178)
(-7.99496e-180 -5.99674e-180 3.06038e-180)
(-1.36852e-160 -1.03628e-160 5.23854e-161)
(-6.40768e-163 -4.85057e-163 2.45279e-163)
(-2.99654e-165 -2.26764e-165 1.14704e-165)
(-1.39999e-167 -1.05911e-167 5.35903e-168)
(-6.53611e-170 -4.94301e-170 2.50195e-170)
(-3.04988e-172 -2.30572e-172 1.16746e-172)
(-1.42261e-174 -1.07512e-174 5.4456e-175)
(-6.63412e-177 -5.01181e-177 2.53947e-177)
(-3.09328e-179 -2.33596e-179 1.18407e-179)
(-1.44893e-181 -1.09376e-181 5.54636e-182)
(-1.96542e-162 -1.49388e-162 7.52343e-163)
(-9.33846e-165 -7.0959e-165 3.57466e-165)
(-4.42979e-167 -3.36503e-167 1.69567e-167)
(-2.09803e-169 -1.59328e-169 8.03103e-170)
(-9.92201e-172 -7.53278e-172 3.79804e-172)
(-4.68583e-174 -3.55646e-174 1.79369e-174)
(-2.2101e-176 -1.67694e-176 8.46004e-177)
(-1.04116e-178 -7.89763e-179 3.98545e-179)
(-4.89938e-181 -3.71528e-181 1.87543e-181)
(-2.31396e-183 -1.75419e-183 8.85758e-184)
(-2.44317e-164 -1.86233e-164 9.35218e-165)
(-1.1753e-166 -8.95649e-167 4.49893e-167)
(-5.64451e-169 -4.30032e-169 2.16066e-169)
(-2.70644e-171 -2.06139e-171 1.036e-171)
(-1.29563e-173 -9.86575e-174 4.95954e-174)
(-6.19291e-176 -4.71444e-176 2.37058e-176)
(-2.95567e-178 -2.24946e-178 1.1314e-178)
(-1.40859e-180 -1.07176e-180 5.39194e-181)
(-6.70354e-183 -5.09922e-183 2.56604e-183)
(-3.20105e-185 -2.43433e-185 1.22533e-185)
(-6.47436e-161 -4.8761e-161 2.44517e-161)
(-3.02046e-163 -2.27396e-163 1.14055e-163)
(-1.41367e-165 -1.06384e-165 5.33726e-166)
(-6.63566e-168 -4.99128e-168 2.50486e-168)
(-3.12271e-170 -2.34772e-170 1.17858e-170)
(-1.47279e-172 -1.1067e-172 5.55771e-173)
(-6.95914e-175 -5.22651e-175 2.62567e-175)
(-3.29331e-177 -2.47199e-177 1.24236e-177)
(-1.56038e-179 -1.17057e-179 5.88536e-180)
(-7.43487e-182 -5.57424e-182 2.80378e-182)
(-1.1589e-162 -8.7724e-163 4.37608e-163)
(-5.49261e-165 -4.1564e-165 2.07371e-165)
(-2.59968e-167 -1.96662e-167 9.81336e-168)
(-1.2291e-169 -9.29497e-170 4.63888e-170)
(-5.80604e-172 -4.38934e-172 2.19097e-172)
(-2.74086e-174 -2.07137e-174 1.03412e-174)
(-1.29323e-176 -9.76998e-177 4.87854e-177)
(-6.09966e-179 -4.60642e-179 2.30064e-179)
(-2.8762e-181 -2.17126e-181 1.08465e-181)
(-1.36237e-183 -1.02806e-183 5.13684e-184)
(-1.68484e-164 -1.28022e-164 6.36102e-165)
(-8.10215e-167 -6.1546e-167 3.05843e-167)
(-3.88927e-169 -2.95354e-169 1.4679e-169)
(-1.8638e-171 -1.41497e-171 7.03322e-172)
(-8.91722e-174 -6.7679e-174 3.36445e-174)
(-4.25993e-176 -3.23222e-176 1.607e-176)
(-2.03216e-178 -1.54146e-178 7.66479e-179)
(-9.68141e-181 -7.34152e-181 3.65098e-181)
(-4.60663e-183 -3.49223e-183 1.73694e-183)
(-2.19984e-185 -1.66717e-185 8.29314e-186)
(-2.11981e-166 -1.61541e-166 8.00193e-167)
(-1.03194e-168 -7.8619e-169 3.89477e-169)
(-5.01457e-171 -3.81938e-171 1.89229e-171)
(-2.43248e-173 -1.85223e-173 9.17768e-174)
(-1.17793e-175 -8.96707e-176 4.44356e-176)
(-5.69456e-178 -4.33392e-178 2.14784e-178)
(-2.74851e-180 -2.09124e-180 1.0365e-180)
(-1.32449e-182 -1.0075e-182 4.99399e-183)
(-6.37289e-185 -4.84641e-185 2.40251e-185)
(-3.07656e-187 -2.33903e-187 1.15964e-187)
)
;

boundaryField
{
    inlet
    {
        type            zeroGradient;
    }
    outlet
    {
        type            zeroGradient;
    }
    bottom
    {
        type            zeroGradient;
    }
    top
    {
        type            symmetryPlane;
    }
    side1
    {
        type            symmetryPlane;
    }
    side2
    {
        type            symmetryPlane;
    }
    procBoundary15to7
    {
        type            processor;
        value           nonuniform List<vector> 
50
(
(-7.13214e-151 -5.3352e-151 2.73011e-151)
(-3.15705e-153 -2.3604e-153 1.20849e-153)
(-1.39669e-155 -1.0437e-155 5.34639e-156)
(-6.17566e-158 -4.61244e-158 2.36398e-158)
(-2.7292e-160 -2.0373e-160 1.04471e-160)
(-1.20548e-162 -8.99398e-163 4.61445e-163)
(-5.32188e-165 -3.96853e-165 2.03716e-165)
(-2.34831e-167 -1.75021e-167 8.98907e-168)
(-1.0357e-169 -7.71512e-170 3.96455e-170)
(-4.58582e-172 -3.41426e-172 1.7554e-172)
(-2.24493e-152 -1.67845e-152 8.59335e-153)
(-1.00625e-154 -7.51937e-155 3.85181e-155)
(-4.50707e-157 -3.36623e-157 1.72526e-157)
(-2.01734e-159 -1.50592e-159 7.72218e-160)
(-9.02337e-162 -6.73229e-162 3.45405e-162)
(-4.03337e-164 -3.00769e-164 1.54393e-164)
(-1.8017e-166 -1.34283e-166 6.89673e-167)
(-8.04309e-169 -5.99147e-169 3.07881e-169)
(-3.58832e-171 -2.67162e-171 1.37357e-171)
(-1.60704e-173 -1.19586e-173 6.1516e-174)
(-3.61652e-154 -2.70251e-154 1.38437e-154)
(-1.64142e-156 -1.22594e-156 6.2832e-157)
(-7.44341e-159 -5.55639e-159 2.84926e-159)
(-3.37251e-161 -2.5162e-161 1.29096e-161)
(-1.52677e-163 -1.13851e-163 5.8443e-164)
(-6.90621e-166 -5.14727e-166 2.64362e-166)
(-3.1215e-168 -2.32526e-168 1.19488e-168)
(-1.40977e-170 -1.04962e-170 5.39646e-171)
(-6.3622e-173 -4.73436e-173 2.43538e-173)
(-2.88202e-175 -2.1435e-175 1.10321e-175)
(-3.94408e-156 -2.94573e-156 1.50975e-156)
(-1.81239e-158 -1.35291e-158 6.93762e-159)
(-8.31975e-161 -6.20729e-161 3.18471e-161)
(-3.81537e-163 -2.84512e-163 1.46048e-163)
(-1.74799e-165 -1.30279e-165 6.69111e-166)
(-8.00068e-168 -5.95984e-168 3.06257e-168)
(-3.65857e-170 -2.7239e-170 1.40046e-170)
(-1.67148e-172 -1.24381e-172 6.39824e-173)
(-7.62966e-175 -5.67453e-175 2.92055e-175)
(-3.49549e-177 -2.59839e-177 1.33804e-177)
(-3.29217e-158 -2.45753e-158 1.24339e-158)
(-1.53157e-160 -1.14268e-160 5.78349e-161)
(-7.11676e-163 -5.30692e-163 2.68698e-163)
(-3.30317e-165 -2.46186e-165 1.24693e-165)
(-1.53142e-167 -1.14078e-167 5.78009e-168)
(-7.09228e-170 -5.28035e-170 2.67642e-170)
(-3.28106e-172 -2.44154e-172 1.23797e-172)
(-1.51632e-174 -1.12775e-174 5.72028e-175)
(-7.00046e-177 -5.2038e-177 2.64047e-177)
(-3.2436e-179 -2.40986e-179 1.22324e-179)
)
;
    }
    procBoundary15to14
    {
        type            processor;
        value           nonuniform List<vector> 
20
(
(-2.05763e-150 -1.55087e-150 7.8764e-151)
(-3.07362e-152 -2.33004e-152 1.17655e-152)
(-4.22442e-154 -3.2144e-154 1.61706e-154)
(-5.07006e-156 -3.86816e-156 1.94076e-156)
(-6.46772e-152 -4.87274e-152 2.47578e-152)
(-9.78e-154 -7.4114e-154 3.74368e-154)
(-1.36101e-155 -1.0353e-155 5.20982e-156)
(-1.65374e-157 -1.26138e-157 6.33036e-158)
(-1.04051e-153 -7.83571e-154 3.98295e-154)
(-1.59267e-155 -1.20652e-155 6.09655e-156)
(-2.24411e-157 -1.70655e-157 8.59023e-158)
(-2.76059e-159 -2.10506e-159 1.05672e-159)
(-1.13322e-155 -8.53017e-156 4.33783e-156)
(-1.75563e-157 -1.3295e-157 6.72036e-158)
(-2.50436e-159 -1.90388e-159 9.58643e-160)
(-3.11855e-161 -2.3774e-161 1.19375e-161)
(-9.44644e-158 -7.1076e-158 3.56779e-158)
(-1.48117e-159 -1.12126e-159 5.59328e-160)
(-2.13889e-161 -1.62554e-161 8.07567e-162)
(-2.696e-163 -2.05473e-163 1.01775e-163)
)
;
    }
    procBoundary15to23
    {
        type            processor;
        value           nonuniform List<vector> 
50
(
(-2.89155e-162 -2.21135e-162 1.10685e-162)
(-1.34482e-164 -1.02824e-164 5.14783e-165)
(-6.28662e-167 -4.80552e-167 2.40645e-167)
(-2.9517e-169 -2.25572e-169 1.12988e-169)
(-1.39097e-171 -1.06272e-171 5.3245e-172)
(-6.57442e-174 -5.02156e-174 2.51662e-174)
(-3.11466e-176 -2.37833e-176 1.19226e-176)
(-1.47817e-178 -1.12841e-178 5.65829e-179)
(-7.02391e-181 -5.36041e-181 2.68868e-181)
(-3.3561e-183 -2.56054e-183 1.28468e-183)
(-9.48025e-164 -7.24849e-164 3.62894e-164)
(-4.4626e-166 -3.41128e-166 1.70823e-166)
(-2.11112e-168 -1.61338e-168 8.08116e-169)
(-1.00296e-170 -7.66296e-171 3.83922e-171)
(-4.78171e-173 -3.65243e-173 1.83039e-173)
(-2.28622e-175 -1.74582e-175 8.75142e-176)
(-1.0955e-177 -8.36321e-178 4.19345e-178)
(-5.25788e-180 -4.01283e-180 2.01266e-180)
(-2.52635e-182 -1.92758e-182 9.6706e-183)
(-1.22052e-184 -9.30983e-185 4.67204e-185)
(-1.59063e-165 -1.21589e-165 6.08876e-166)
(-7.57818e-168 -5.79153e-168 2.90085e-168)
(-3.62794e-170 -2.77194e-170 1.38874e-170)
(-1.74397e-172 -1.33215e-172 6.67573e-173)
(-8.41188e-175 -6.42379e-175 3.21998e-175)
(-4.06841e-177 -3.10603e-177 1.55734e-177)
(-1.97178e-179 -1.50494e-179 7.54777e-180)
(-9.57073e-182 -7.3027e-182 3.66357e-182)
(-4.65008e-184 -3.54713e-184 1.78e-184)
(-2.27152e-186 -1.73225e-186 8.69513e-187)
(-1.80593e-167 -1.38015e-167 6.91289e-168)
(-8.70715e-170 -6.65279e-170 3.33301e-170)
(-4.21787e-172 -3.22193e-172 1.61456e-172)
(-2.05134e-174 -1.56657e-174 7.85231e-175)
(-1.00092e-176 -7.64184e-177 3.83143e-177)
(-4.89651e-179 -3.73737e-179 1.87433e-179)
(-2.40005e-181 -1.83138e-181 9.18714e-182)
(-1.17802e-183 -8.98649e-184 4.50934e-184)
(-5.78712e-186 -4.41344e-186 2.21525e-186)
(-2.85814e-188 -2.17909e-188 1.09407e-188)
(-1.569e-169 -1.1988e-169 5.9226e-170)
(-7.65525e-172 -5.84771e-172 2.8892e-172)
(-3.75215e-174 -2.86551e-174 1.41588e-174)
(-1.84618e-176 -1.40956e-176 6.96545e-177)
(-9.11233e-179 -6.95544e-179 3.43743e-179)
(-4.50874e-181 -3.44058e-181 1.70055e-181)
(-2.23499e-183 -1.70503e-183 8.42825e-184)
(-1.10928e-185 -8.46013e-186 4.18247e-186)
(-5.50979e-188 -4.20094e-188 2.07708e-188)
(-2.75113e-190 -2.09701e-190 1.03695e-190)
)
;
    }
}


// ************************************************************************* //
