/*--------------------------------*- C++ -*----------------------------------*\
| =========                 |                                                 |
| \\      /  F ield         | OpenFOAM: The Open Source CFD Toolbox           |
|  \\    /   O peration     | Version:  2.4.0                                 |
|   \\  /    A nd           | Web:      www.OpenFOAM.org                      |
|    \\/     M anipulation  |                                                 |
\*---------------------------------------------------------------------------*/
FoamFile
{
    version     2.0;
    format      ascii;
    class       surfaceScalarField;
    location    "0.17";
    object      phib;
}
// * * * * * * * * * * * * * * * * * * * * * * * * * * * * * * * * * * * * * //

dimensions      [0 3 -1 0 0 0 0];

internalField   nonuniform List<scalar> 
490
(
-1.16556e+11
3.48915e+10
-9.90742e+09
-1.45717e+11
3.20136e+10
-2.85188e+09
-1.41471e+11
2.55817e+10
-2.98277e+10
-1.6208e+11
4.00151e+10
-1.94066e+10
-1.92252e+11
5.51792e+10
-2.50072e+10
-1.98794e+11
4.56705e+10
-3.91286e+10
-1.82135e+11
2.83129e+10
-4.49719e+10
-1.30246e+11
3.4492e+09
-5.5338e+10
-1.36347e+11
4.70235e+10
-4.09222e+10
6.25508e+10
-4.42021e+10
-1.55588e+11
5.65943e+10
5.93254e+09
-1.60817e+11
4.12954e+10
-4.05278e+09
-2.00672e+11
5.80308e+10
7.40551e+09
-1.9331e+11
3.42036e+10
-1.55006e+09
-1.86088e+11
4.40753e+10
3.88147e+09
-1.58373e+11
1.46605e+10
3.2952e+09
-1.25423e+11
2.17178e+10
-2.63548e+10
-1.20971e+11
-3.44786e+09
2.44482e+09
-3.57881e+10
1.70609e+10
-5.52201e+10
6.75774e+10
-3.23554e+10
-1.27106e+11
3.0336e+10
1.65492e+10
-1.34882e+11
2.66463e+10
2.24252e+10
-1.06475e+11
7.71281e+09
2.19114e+10
-1.05956e+11
1.0443e+09
3.26402e+10
-7.50911e+10
-2.5824e+10
3.90343e+10
-4.87931e+10
-4.19134e+10
3.02759e+10
-5.96222e+09
-6.3621e+10
4.25079e+10
6.94722e+10
-9.77651e+10
1.88828e+10
9.38412e+10
-3.53037e+10
2.79955e+10
1.66133e+10
1.9261e+09
-1.25478e+11
2.40803e+10
-1.32214e+11
3.07238e+10
-1.39584e+11
3.64052e+10
-1.26731e+11
4.35464e+10
-1.53917e+11
4.06392e+10
-1.7708e+11
4.39043e+10
-2.55074e+11
8.42483e+10
-2.27595e+11
1.25591e+11
4.77701e+11
6.90325e+10
3.57172e+10
-1.93995e+11
3.46301e+10
-7.17436e+06
-2.35424e+11
4.99645e+10
-1.1388e+10
-3.08265e+11
6.00915e+10
-1.70782e+10
-3.70683e+11
7.32683e+10
-3.02563e+10
-3.90512e+11
2.99272e+10
-3.51056e+10
-3.85073e+11
2.36396e+10
-6.82075e+10
-2.95886e+11
-5.66441e+10
-7.75148e+10
-2.55892e+11
-1.09593e+10
-8.43724e+10
-8.51549e+10
-9.33272e+10
-1.18332e+11
3.41135e+10
-8.36651e+10
-1.35096e+11
5.65672e+10
4.59871e+09
-1.8474e+11
7.92573e+10
1.62988e+10
-2.11875e+11
7.94808e+10
1.51505e+10
-2.58544e+11
9.63827e+10
2.20046e+10
-2.59263e+11
3.73916e+10
-2.86357e+09
-1.91322e+11
-1.69583e+10
-2.40476e+10
-1.75769e+11
-7.3146e+10
-2.54064e+10
-1.20624e+11
-3.61869e+10
-2.74724e+10
-1.42477e+11
-9.84029e+10
-2.82918e+10
-9.52526e+10
-4.9154e+10
-5.49787e+10
5.70137e+10
2.48377e+10
-3.573e+10
5.41719e+10
2.82619e+10
-3.67499e+10
6.40601e+10
3.83519e+10
1.60339e+09
3.06057e+10
6.00638e+10
-1.59948e+10
5.80999e+10
3.59242e+10
3.9556e+10
-7.50972e+10
3.2864e+10
-6.47302e+09
9.45488e+09
5.93599e+09
5.16065e+10
-8.8211e+10
1.28274e+10
-1.90067e+10
-2.70672e+10
2.72731e+10
-1.24435e+11
-1.50474e+09
-9.09981e+09
2.75003e+10
5.61947e+09
3.30205e+10
3.7674e+10
4.33576e+10
5.00367e+10
5.0151e+10
1.03217e+11
4.9506e+10
5.87387e+10
3.42642e+10
1.59435e+11
3.32661e+10
1.8617e+11
3.88199e+10
2.69523e+11
3.18432e+10
3.71661e+10
-2.47784e+11
3.51832e+10
4.40332e+09
-2.95442e+11
3.22057e+10
4.06496e+09
-3.30838e+11
2.91574e+10
-1.08399e+10
-3.19072e+11
-2.90381e+10
-1.29844e+10
-3.05561e+11
-2.50669e+10
-2.35495e+10
-2.06128e+11
-1.46717e+11
-2.0923e+10
-1.35858e+11
-1.07994e+11
-3.97907e+10
-6.03087e+10
-1.44353e+11
-1.55691e+10
-9.5729e+10
-2.47258e+10
-5.8186e+10
-3.11318e+10
-6.02631e+10
-1.89838e+11
6.85655e+10
1.34434e+10
-2.03133e+11
5.30467e+10
8.75312e+09
-1.88302e+11
2.3356e+10
6.12121e+09
-1.84758e+11
-8.68031e+09
-1.89748e+09
-1.33804e+11
-6.58142e+10
-1.30704e+10
-1.18226e+11
-1.56038e+11
-3.03037e+10
-1.35488e+11
-9.72914e+10
-1.88479e+10
-1.05222e+11
-1.69646e+11
-3.2445e+10
-1.06354e+11
-2.28521e+10
-2.90343e+10
-2.57148e+10
-5.98626e+10
-6.8364e+10
6.18296e+10
2.33988e+10
-7.99174e+10
7.95774e+10
1.32846e+10
-4.00706e+10
9.48813e+09
1.2373e+10
-4.13119e+10
4.59087e+10
6.71602e+09
3.66073e+10
-1.04307e+11
-3.50206e+09
-5.12514e+10
-3.25662e+10
-2.74942e+09
-8.09106e+09
-1.30985e+11
-3.53123e+09
-9.12281e+10
-6.80196e+10
-5.66172e+09
-3.671e+09
-8.33596e+10
2.23535e+08
2.71157e+10
-1.87636e+10
1.51899e+09
2.04534e+10
5.31116e+10
2.00895e+10
5.26087e+10
1.45478e+10
1.31605e+11
2.44959e+10
7.16331e+10
1.92868e+10
1.232e+11
1.51502e+10
6.08929e+10
1.74332e+10
9.90891e+10
2.31375e+10
1.26943e+11
3.21269e+10
3.51269e+10
-2.01394e+11
1.67325e+10
1.33293e+10
-2.33002e+11
2.51698e+10
1.05024e+10
-2.46956e+11
-1.32624e+10
1.63773e+10
-2.77634e+11
8.56442e+09
9.1293e+09
-2.44905e+11
-7.61258e+10
1.98467e+10
-2.19435e+11
-4.82616e+10
1.86847e+09
-2.00273e+11
-5.86694e+10
-2.82598e+08
-2.34605e+11
3.13513e+10
-1.25891e+10
-2.40874e+11
7.08739e+10
-1.22791e+11
5.87581e+10
2.08598e+10
-1.25626e+11
4.1462e+10
1.6348e+09
-1.39718e+11
3.52287e+10
1.27861e+10
-1.38822e+11
-2.72903e+09
-5.30807e+09
-1.47544e+11
2.06949e+09
1.33198e+10
-1.3326e+11
-9.00306e+10
-1.34494e+10
-1.77311e+11
-3.92774e+10
4.76274e+09
-1.58715e+11
-7.96685e+10
-1.64452e+10
-1.74247e+11
9.90746e+09
4.53081e+09
-2.23913e+11
1.05784e+11
-1.42778e+10
1.3163e+11
-5.38388e+10
-8.98135e+09
6.267e+10
3.63635e+09
3.99463e+10
1.09481e+10
-1.13624e+10
8.37264e+09
4.56848e+10
-4.46715e+09
5.9143e+10
-2.71988e+10
-1.4786e+10
-3.6936e+10
8.25948e+09
-5.71312e+09
1.36264e+08
-7.08276e+10
-8.27148e+09
-5.8774e+10
-2.38109e+10
-4.78596e+08
-6.03013e+09
-4.13924e+10
-7.10572e+09
2.14311e+10
7.49312e+10
3.61513e+09
8.39423e+10
-3.1927e+09
6.6397e+10
-3.64135e+09
6.11899e+10
-7.23587e+09
1.20405e+11
-5.38219e+09
1.06726e+11
-8.30603e+08
1.52521e+11
3.21591e+09
1.11523e+11
9.15472e+08
1.6249e+11
6.40396e+09
1.87445e+11
1.28878e+09
3.33513e+11
5.27601e+09
1.47404e+10
-2.0505e+11
3.6524e+10
-2.32551e+11
3.80042e+10
-2.66695e+11
5.05208e+10
-3.00656e+11
4.30901e+10
-3.3411e+11
5.3301e+10
-3.53616e+11
2.13747e+10
-4.52679e+11
9.87806e+10
-5.29701e+11
6.44329e+10
-5.92066e+11
-6.04256e+10
6.00306e+10
-1.5432e+11
5.2642e+10
-1.80307e+11
7.67776e+10
-1.98731e+11
6.36365e+10
-2.19761e+11
7.74398e+10
-2.487e+11
6.87906e+10
-2.8988e+11
6.73176e+10
-3.04492e+11
9.69478e+10
-3.85588e+11
1.5006e+11
-5.83342e+11
1.23051e+11
1.06816e+11
-1.08351e+11
6.47056e+10
-1.31061e+11
8.81256e+10
-1.40456e+11
6.85648e+10
-1.60952e+11
8.31497e+10
-1.74854e+11
7.69788e+10
-2.19221e+11
1.03413e+11
-2.34858e+11
1.12107e+11
-2.13357e+11
1.21453e+11
-2.60792e+11
1.741e+11
1.55935e+11
-6.07795e+10
-4.805e+10
-7.5263e+10
-4.99656e+10
-6.80674e+10
-4.10433e+10
-4.149e+10
-2.15026e+10
2.89522e+10
)
;

boundaryField
{
    inlet
    {
        type            fixedValue;
        value           nonuniform 0();
    }
    outlet
    {
        type            calculated;
        value           nonuniform 0();
    }
    bottom
    {
        type            fixedValue;
        value           uniform 0;
    }
    top
    {
        type            symmetryPlane;
        value           nonuniform List<scalar> 
40
(
-8.12549e-26
-9.64731e-26
-1.53746e-25
-1.9322e-25
-6.77308e-26
-7.95406e-26
-1.6645e-25
-1.8582e-25
-6.57878e-26
-7.10184e-26
-8.08291e-26
-1.36176e-25
-5.97492e-26
-5.68429e-26
-7.00824e-26
-9.50462e-26
-5.27686e-26
-5.58767e-26
-7.90343e-26
-7.67909e-26
-4.86013e-26
-4.45392e-26
-6.81782e-26
-7.64482e-26
-4.16748e-26
-4.85733e-26
-1.0755e-25
-7.43407e-26
-7.60306e-26
-4.69238e-26
-6.9921e-26
-6.15024e-26
-2.1899e-25
-3.94377e-26
-6.66617e-26
-5.31337e-26
-4.32727e-26
-5.45713e-26
-6.13151e-26
-4.24191e-26
)
;
    }
    side1
    {
        type            symmetryPlane;
        value           uniform 0;
    }
    side2
    {
        type            symmetryPlane;
        value           nonuniform 0();
    }
    procBoundary5to4
    {
        type            processor;
        value           nonuniform List<scalar> 
20
(
9.15716e+10
1.27953e+11
1.36815e+11
1.11839e+11
1.49465e+11
1.14493e+11
4.62438e+10
1.63024e+10
2.0819e+11
1.47611e+11
7.65388e+10
1.97857e+09
1.75736e+11
1.12705e+11
7.53572e+09
-1.55967e+10
1.81855e+11
1.39836e+11
9.99233e+10
3.94493e+10
)
;
    }
    procBoundary5to6
    {
        type            processor;
        value           nonuniform List<scalar> 
20
(
-1.54696e+11
-8.45931e+09
1.42879e+11
3.17215e+11
-7.98054e+10
3.68783e+09
1.3607e+10
1.8258e+11
-8.79993e+10
-1.01062e+11
-3.92426e+10
2.30645e+11
-3.80755e+11
-3.02809e+11
5.35482e+10
2.70057e+11
-6.31237e+11
-6.83967e+11
-3.13103e+11
4.18698e+10
)
;
    }
    procBoundary5to13
    {
        type            processor;
        value           nonuniform List<scalar> 
50
(
1.9894e+10
2.65851e+09
-2.13217e+10
-5.53559e+10
-3.92767e+10
-6.26547e+10
-6.98757e+10
-2.50835e+11
-8.09632e+11
1.41381e+11
4.63911e+10
3.71559e+10
2.50532e+10
1.16384e+10
-3.94748e+09
-2.09784e+10
-4.02593e+10
-2.81741e+10
-7.32314e+10
-3.8941e+10
6.53789e+10
4.09158e+10
3.88008e+10
-7.433e+09
-1.41155e+10
-6.50188e+10
-5.2845e+10
-9.05334e+10
-1.11497e+11
-7.45473e+10
3.59644e+10
4.34806e+10
6.40006e+09
1.18061e+10
-2.14641e+10
-1.55947e+10
-6.37488e+10
-4.44994e+10
-4.42857e+10
1.67785e+11
8.23945e+10
6.81602e+10
9.03956e+10
5.70216e+10
9.82965e+10
7.73046e+10
1.18957e+11
1.02755e+11
1.28921e+11
1.57758e+11
)
;
    }
}


// ************************************************************************* //
