/*--------------------------------*- C++ -*----------------------------------*\
| =========                 |                                                 |
| \\      /  F ield         | OpenFOAM: The Open Source CFD Toolbox           |
|  \\    /   O peration     | Version:  2.4.0                                 |
|   \\  /    A nd           | Web:      www.OpenFOAM.org                      |
|    \\/     M anipulation  |                                                 |
\*---------------------------------------------------------------------------*/
FoamFile
{
    version     2.0;
    format      ascii;
    class       volVectorField;
    location    "0.17";
    object      Ub;
}
// * * * * * * * * * * * * * * * * * * * * * * * * * * * * * * * * * * * * * //

dimensions      [0 1 -1 0 0 0 0];

internalField   nonuniform List<vector> 
200
(
(-4.65687e+16 -2.53788e+15 -2.66688e+16)
(-4.74312e+16 3.23361e+16 -2.72696e+14)
(-6.78411e+16 -2.36816e+16 -5.49817e+16)
(-4.56039e+16 3.25116e+16 -1.78224e+16)
(-8.36929e+16 1.30947e+16 -2.72056e+16)
(-7.10836e+16 4.13406e+16 -3.19663e+16)
(-8.91119e+16 -1.65911e+16 -5.28822e+16)
(-5.30804e+16 1.53765e+16 -4.0752e+16)
(-4.59456e+16 3.25536e+16 -2.51872e+16)
(-6.13829e+16 2.67021e+16 -3.28996e+16)
(-5.72818e+16 5.14618e+16 6.19776e+15)
(-6.33044e+16 1.60157e+16 -2.03123e+16)
(-6.84165e+16 5.47987e+16 5.74252e+15)
(-8.76454e+16 1.79433e+16 -2.07118e+16)
(-6.41693e+16 5.70331e+16 -7.16013e+14)
(-8.7022e+16 5.22075e+15 -1.31998e+16)
(-3.58906e+16 4.80071e+16 -2.85109e+16)
(-6.77163e+16 -2.55502e+16 -2.37997e+16)
(-2.82833e+16 2.74706e+16 -6.70575e+16)
(4.81862e+15 6.30082e+16 -2.75536e+16)
(-5.20681e+16 3.25808e+16 7.28585e+15)
(-5.30171e+16 4.10157e+16 1.5921e+16)
(-5.12202e+16 3.04506e+16 2.8394e+15)
(-4.05472e+16 2.74952e+16 2.50036e+16)
(-4.06455e+16 7.37638e+15 1.58279e+16)
(-1.67192e+16 1.49069e+16 3.49686e+16)
(-2.00669e+16 -2.53914e+16 2.3539e+16)
(2.11487e+16 2.27099e+16 5.26498e+15)
(2.71709e+16 -7.2231e+15 2.43286e+14)
(4.26294e+16 4.77574e+16 2.97289e+15)
(-5.12491e+16 2.15245e+16 1.66804e+16)
(-4.4861e+16 8.88148e+15 1.71059e+16)
(-6.61726e+16 -1.24137e+16 2.62357e+16)
(-4.28887e+16 -7.35848e+15 3.8934e+16)
(-5.98644e+16 -2.43186e+16 3.20031e+16)
(-5.81963e+16 -4.82438e+16 -6.70543e+15)
(-5.74417e+16 -3.00892e+16 5.72136e+16)
(-2.05086e+17 -2.01244e+17 1.49507e+17)
(1.19426e+17 6.42111e+15 9.02465e+16)
(1.65173e+17 -1.87177e+15 2.94537e+16)
(-7.20431e+16 1.45008e+16 6.7511e+14)
(-8.17954e+16 2.48608e+16 -6.57102e+15)
(-1.02653e+17 3.09998e+16 -1.75334e+16)
(-1.55239e+17 1.10485e+16 -3.51217e+16)
(-1.3287e+17 5.49414e+16 -4.05778e+16)
(-1.91763e+17 -9.80181e+16 -8.9239e+16)
(-1.04498e+17 6.16443e+16 -7.24694e+16)
(-1.30121e+17 -1.45914e+17 -1.16767e+17)
(-5.58431e+16 3.55493e+16 -1.05605e+17)
(-2.84813e+16 7.8741e+15 -9.97686e+16)
(-4.65621e+16 4.08005e+16 6.12522e+15)
(-6.10029e+16 5.09263e+16 1.76733e+16)
(-8.62467e+16 5.11189e+16 1.31795e+16)
(-7.55368e+16 9.16202e+16 1.76442e+16)
(-1.6128e+17 -4.53035e+16 -1.54945e+16)
(-2.60758e+16 1.02281e+17 1.2543e+15)
(-1.40358e+17 -1.90392e+17 -6.10834e+16)
(1.67274e+16 9.4246e+16 1.49262e+16)
(-1.07823e+17 -1.91852e+17 -7.0294e+16)
(-9.00486e+15 5.57638e+16 -4.88942e+16)
(-2.39521e+16 3.92617e+16 2.83192e+16)
(-1.61913e+16 6.32158e+16 3.40848e+16)
(-8.20826e+15 6.44197e+16 5.02402e+16)
(-3.07378e+16 3.31961e+16 5.49069e+16)
(3.11938e+16 9.16788e+16 6.5616e+16)
(-3.96081e+16 -1.3738e+17 1.88051e+16)
(4.98808e+16 5.92156e+16 4.39756e+16)
(-2.97916e+16 -1.52669e+17 2.5298e+16)
(6.45055e+16 1.76928e+16 5.88339e+16)
(-6.47609e+16 -2.22689e+17 3.23992e+15)
(1.74033e+15 5.31646e+16 3.41929e+16)
(-8.24207e+15 2.61012e+16 4.22069e+16)
(1.51225e+16 4.25051e+16 5.4435e+16)
(1.11838e+16 2.82975e+16 6.03679e+16)
(3.20376e+16 1.27593e+16 5.8072e+16)
(3.16727e+16 1.81956e+16 7.14412e+16)
(4.09457e+16 -2.07363e+16 8.39898e+16)
(7.56081e+16 1.55045e+16 9.59164e+16)
(8.0577e+16 -6.17793e+16 6.00489e+16)
(1.20479e+17 1.16422e+16 5.77495e+16)
(-9.01339e+16 1.77914e+16 -2.83825e+15)
(-1.01747e+17 2.46143e+16 -2.34561e+16)
(-1.45051e+17 -2.56296e+16 -3.92125e+16)
(-1.12298e+17 2.74924e+16 -4.82017e+16)
(-1.59689e+17 -1.05752e+17 -5.72235e+16)
(-6.01176e+16 4.33266e+16 -5.82549e+16)
(-1.17648e+17 -2.49083e+17 -1.0131e+17)
(1.19769e+16 7.92776e+16 -5.34176e+16)
(-4.97697e+16 -1.93108e+17 -1.34187e+17)
(-2.94116e+16 8.88887e+16 -7.20399e+16)
(-6.15365e+16 4.21557e+16 3.58868e+15)
(-1.0843e+17 1.71894e+16 1.18437e+15)
(-3.84351e+16 6.64701e+16 9.6201e+15)
(-1.30992e+17 -8.4533e+16 -1.64052e+15)
(8.87802e+14 6.6365e+16 4.65242e+15)
(-1.20356e+17 -2.91895e+17 -6.42702e+16)
(2.47865e+16 5.58255e+16 3.14561e+15)
(-1.06424e+17 -3.1388e+17 -7.09042e+16)
(-4.19487e+15 7.67948e+16 -1.41947e+16)
(-7.32431e+16 -1.6866e+17 -8.95032e+16)
(-4.02679e+16 5.76311e+16 2.64722e+16)
(-6.28486e+15 6.64977e+16 2.39007e+16)
(-6.89895e+16 -3.49557e+16 2.19724e+16)
(3.08294e+16 6.42806e+16 5.44166e+16)
(-4.61787e+16 -1.81625e+17 3.13813e+15)
(4.72409e+16 3.13931e+16 3.97988e+16)
(-4.74911e+16 -2.02687e+17 -9.78395e+15)
(7.87623e+15 1.99007e+16 3.85516e+15)
(-5.15055e+16 -8.21407e+16 1.25297e+16)
(1.40846e+16 1.20839e+17 -2.67388e+16)
(-8.37721e+14 4.39345e+16 3.08893e+16)
(5.05122e+15 5.68549e+16 3.78728e+16)
(1.71056e+16 4.27719e+16 3.75628e+16)
(4.28122e+16 1.06919e+16 4.97724e+16)
(4.33344e+16 8.9217e+15 4.96513e+16)
(3.76075e+16 -6.97703e+16 2.84853e+16)
(4.53937e+16 -1.2541e+16 2.62775e+16)
(1.95364e+16 -1.0804e+17 3.69255e+16)
(5.25376e+16 -4.41381e+16 3.11586e+16)
(6.15008e+16 -6.3562e+16 3.3713e+16)
(-6.82686e+16 2.43834e+16 9.37985e+15)
(-1.03316e+17 -2.97706e+16 2.59335e+16)
(-7.28896e+16 4.35662e+16 1.40754e+16)
(-1.40308e+17 -8.22462e+16 1.53201e+16)
(-6.72932e+16 6.53872e+16 7.8459e+15)
(-1.32577e+17 -1.72734e+17 -4.06579e+15)
(-4.45203e+16 8.28322e+16 -1.1044e+16)
(-1.01905e+17 -7.196e+16 -1.64625e+15)
(-8.44534e+16 9.41787e+16 -1.41572e+16)
(-1.11253e+17 -3.25802e+16 -8.00242e+16)
(-7.01466e+16 -6.18914e+15 2.00815e+16)
(-1.90191e+16 6.69663e+16 2.30942e+16)
(-1.05707e+17 -7.66992e+16 3.00476e+15)
(-2.14918e+15 8.43023e+16 1.58003e+16)
(-1.11915e+17 -1.99278e+17 -3.2792e+16)
(-5.00261e+15 7.23047e+16 -6.08472e+15)
(-1.17041e+17 -1.82154e+17 -4.12423e+16)
(-2.34552e+16 9.27036e+16 -1.12805e+16)
(-1.02739e+17 6.95674e+15 -3.27741e+16)
(-7.84802e+16 1.21253e+17 -3.83055e+16)
(2.33619e+16 7.20305e+16 2.38317e+16)
(-3.02521e+16 -1.71048e+16 2.22364e+15)
(3.98706e+16 6.47755e+16 1.13083e+16)
(-9.86323e+15 -8.2027e+16 -1.59024e+16)
(3.44545e+16 4.37216e+16 -3.25235e+15)
(-3.48856e+16 -1.27193e+17 -2.0585e+16)
(1.56757e+16 4.14045e+16 -4.46396e+15)
(-4.56467e+16 -7.2042e+16 -4.14899e+15)
(3.06211e+16 1.49343e+17 -5.86708e+15)
(8.32037e+15 8.62416e+16 5.35967e+15)
(1.19299e+16 3.34051e+16 1.57004e+16)
(2.7236e+16 3.57217e+16 7.15624e+15)
(2.98394e+16 1.66907e+16 8.46254e+15)
(5.29094e+16 3.19196e+16 1.70793e+16)
(4.99726e+16 -2.15194e+16 1.33473e+16)
(6.151e+16 9.24782e+15 1.01261e+16)
(4.21582e+16 -7.29254e+16 2.19961e+16)
(8.11471e+16 4.36091e+15 1.62502e+16)
(8.31426e+16 -3.22282e+16 4.20422e+16)
(1.61808e+17 3.35796e+16 4.78277e+16)
(-7.68209e+16 1.08458e+16 3.22339e+16)
(-8.51881e+16 2.53391e+16 1.14002e+16)
(-1.03731e+17 5.7837e+15 3.45455e+16)
(-1.05432e+17 3.91732e+16 1.57958e+16)
(-1.38869e+17 -1.31597e+16 3.9475e+16)
(-1.34413e+17 4.70834e+16 4.92048e+15)
(-1.23117e+17 3.42995e+16 8.21001e+15)
(-2.22823e+17 -3.08617e+15 -4.63804e+16)
(-2.44666e+17 -1.86458e+17 -3.59781e+17)
(-2.45768e+17 8.69017e+16 9.24605e+16)
(-5.68933e+16 4.83121e+16 9.15189e+14)
(-7.42252e+16 3.35993e+16 2.36367e+16)
(-6.31738e+16 7.35545e+16 2.67864e+15)
(-9.9576e+16 2.44285e+16 3.16411e+16)
(-7.37322e+16 9.45935e+16 8.66644e+15)
(-1.27806e+17 -1.86088e+16 2.22175e+16)
(-1.01395e+17 1.13847e+17 -8.09427e+15)
(-1.35221e+17 9.34667e+16 1.58222e+16)
(-1.8163e+17 7.85451e+16 -2.81374e+16)
(-2.72625e+17 2.78624e+16 -1.22945e+17)
(-5.41219e+16 3.44162e+16 1.09884e+16)
(-3.75528e+16 8.76611e+16 -2.10543e+15)
(-6.74163e+16 2.54853e+16 3.99018e+15)
(-4.19305e+16 1.0103e+17 -2.38149e+15)
(-8.58885e+16 1.63543e+16 1.26802e+16)
(-5.86058e+16 1.26784e+17 4.32559e+15)
(-1.12631e+17 3.97834e+16 1.60806e+16)
(-6.77797e+16 1.47558e+17 -1.66404e+16)
(-1.0097e+17 1.22482e+17 1.41131e+16)
(-9.57078e+16 1.25261e+17 -2.70508e+16)
(-1.53017e+16 6.81312e+16 -6.08965e+15)
(-3.28169e+16 5.35215e+16 -6.45579e+14)
(-1.08919e+16 8.445e+16 -6.79258e+15)
(-4.43459e+16 3.00989e+16 1.5381e+14)
(-3.17829e+15 1.0128e+17 3.91734e+15)
(-4.19965e+16 3.97148e+16 6.23458e+15)
(8.50281e+15 1.35987e+17 4.74369e+15)
(-3.82245e+16 4.64117e+16 1.70739e+15)
(2.34225e+16 1.51316e+17 -9.53308e+15)
(-4.62228e+14 1.23354e+17 8.1981e+15)
)
;

boundaryField
{
    inlet
    {
        type            fixedValue;
        value           nonuniform 0();
    }
    outlet
    {
        type            zeroGradient;
    }
    bottom
    {
        type            fixedValue;
        value           uniform (0 0 0);
    }
    top
    {
        type            symmetryPlane;
    }
    side1
    {
        type            symmetryPlane;
    }
    side2
    {
        type            symmetryPlane;
    }
    procBoundary5to4
    {
        type            processor;
        value           nonuniform List<vector> 
20
(
(-2.6925e+16 3.01956e+16 8.69683e+15)
(-5.08578e+16 -2.44732e+15 -3.41703e+16)
(-5.07902e+16 5.38423e+16 1.60586e+16)
(-4.13156e+16 3.4739e+16 1.93542e+16)
(-5.20906e+16 9.32085e+15 -5.11346e+15)
(-4.00511e+16 4.14145e+16 2.04721e+16)
(-1.55901e+16 5.46608e+16 2.76205e+16)
(-1.33977e+16 3.07614e+16 2.10561e+16)
(-7.95429e+16 7.54479e+15 -1.05396e+15)
(-4.91626e+16 4.79758e+16 1.28088e+16)
(-2.70687e+16 4.50163e+16 2.40113e+16)
(1.23504e+15 6.98648e+16 3.1691e+16)
(-6.71211e+16 1.01998e+16 2.31123e+16)
(-3.21408e+16 4.20372e+16 1.61517e+16)
(-2.52589e+16 2.94957e+16 1.78741e+16)
(6.85667e+15 3.81637e+16 1.08331e+16)
(-7.17307e+16 8.20418e+14 2.44189e+15)
(-5.20342e+16 4.07182e+16 2.26268e+16)
(-2.9017e+16 5.13294e+16 -1.4129e+15)
(-1.66009e+16 6.62777e+16 5.14491e+15)
)
;
    }
    procBoundary5to6
    {
        type            processor;
        value           nonuniform List<vector> 
20
(
(-6.41667e+16 6.59067e+15 -1.09712e+17)
(-1.48399e+16 5.2887e+16 -7.64284e+15)
(8.30143e+16 7.23772e+16 3.76819e+14)
(1.15472e+17 2.72504e+16 1.50418e+16)
(-4.37026e+16 8.76442e+16 -4.06671e+16)
(1.09496e+16 4.38228e+16 -5.3793e+16)
(4.80079e+16 8.59328e+16 1.20649e+15)
(4.56564e+16 -6.90256e+16 4.62508e+16)
(-4.75341e+16 1.25368e+16 -1.22078e+17)
(-1.26545e+16 1.22342e+17 -5.39854e+16)
(-1.50867e+16 1.00955e+17 -6.27829e+15)
(1.00629e+17 6.91662e+16 2.04087e+16)
(-2.06327e+17 5.88596e+16 -8.9876e+15)
(-1.37849e+17 3.2394e+16 -8.86625e+16)
(1.8802e+16 1.98302e+17 -3.51983e+16)
(6.72995e+16 2.05668e+17 4.07534e+16)
(-2.47324e+17 1.08636e+17 -3.38305e+16)
(-2.82539e+17 -8.2711e+15 5.72187e+16)
(-1.94803e+17 1.23591e+17 -8.15786e+16)
(3.36589e+15 1.67463e+17 -1.9004e+16)
)
;
    }
    procBoundary5to13
    {
        type            processor;
        value           nonuniform List<vector> 
50
(
(-5.78328e+16 1.71055e+16 2.67476e+16)
(-8.66032e+16 -1.77964e+15 2.37296e+16)
(-7.3856e+16 -2.48671e+15 5.30381e+16)
(-1.45469e+17 -7.62534e+16 9.47137e+16)
(-1.08586e+17 -4.21964e+16 7.44526e+16)
(-1.41717e+17 -1.68321e+16 4.27726e+16)
(-1.482e+17 -8.98545e+16 5.25856e+16)
(4.84859e+16 -1.09186e+17 5.23438e+16)
(-3.07831e+17 -1.3461e+18 2.30967e+17)
(2.19074e+17 2.23902e+17 1.61971e+17)
(-1.77912e+16 3.17765e+16 3.04957e+16)
(-7.47592e+14 4.59636e+16 4.67871e+16)
(-1.51582e+16 1.59093e+16 5.2007e+16)
(6.58817e+15 1.78793e+16 6.27585e+16)
(9.40401e+15 2.59087e+15 6.30211e+16)
(2.22346e+16 -3.04291e+16 4.8419e+16)
(2.05147e+16 -3.82455e+16 4.73944e+16)
(3.57729e+16 -5.01762e+16 7.62062e+16)
(9.58617e+16 -2.49347e+16 3.84359e+16)
(1.29452e+17 -6.18621e+16 -1.68573e+16)
(3.55179e+16 6.52914e+16 3.09108e+16)
(1.76841e+16 1.94643e+16 2.64755e+16)
(4.72177e+16 3.98421e+16 4.02969e+16)
(3.05603e+16 -9.23542e+15 3.22886e+16)
(5.03129e+16 -1.52335e+16 3.62217e+16)
(4.64678e+16 -3.23885e+16 2.79764e+16)
(5.31554e+16 -7.24161e+16 3.02746e+16)
(8.34215e+16 -5.38573e+16 2.99674e+16)
(8.12871e+16 -1.61364e+17 5.72284e+16)
(1.55238e+17 -8.40122e+16 6.28522e+16)
(2.37176e+16 2.34284e+16 6.23556e+14)
(5.00499e+16 4.13622e+16 1.66561e+16)
(3.39081e+16 2.04938e+15 9.84093e+15)
(6.14144e+16 1.75242e+15 2.0429e+16)
(5.54363e+16 -3.95086e+15 1.86656e+16)
(7.03985e+16 -3.02552e+16 2.88647e+16)
(9.4602e+16 -2.99808e+16 1.65826e+16)
(6.54486e+16 -8.34929e+16 2.55399e+16)
(1.65748e+17 -5.07587e+16 3.73815e+16)
(6.4119e+16 2.00696e+17 1.31799e+17)
(3.46987e+16 6.25628e+16 4.68866e+15)
(2.65519e+16 5.34157e+16 -3.93964e+15)
(4.25688e+16 6.28116e+16 7.06062e+15)
(3.78342e+16 6.31513e+16 2.86292e+15)
(3.71032e+16 6.1988e+16 8.3602e+15)
(5.48167e+16 8.01194e+16 8.63437e+15)
(5.38016e+16 5.86625e+16 1.32583e+16)
(8.60596e+16 1.12257e+17 1.54582e+16)
(7.58732e+16 4.96718e+16 1.2906e+16)
(1.20253e+17 1.20981e+17 1.67157e+16)
)
;
    }
}


// ************************************************************************* //
