/*--------------------------------*- C++ -*----------------------------------*\
| =========                 |                                                 |
| \\      /  F ield         | OpenFOAM: The Open Source CFD Toolbox           |
|  \\    /   O peration     | Version:  2.4.0                                 |
|   \\  /    A nd           | Web:      www.OpenFOAM.org                      |
|    \\/     M anipulation  |                                                 |
\*---------------------------------------------------------------------------*/
FoamFile
{
    version     2.0;
    format      ascii;
    class       volVectorField;
    location    "0.05";
    object      Ua;
}
// * * * * * * * * * * * * * * * * * * * * * * * * * * * * * * * * * * * * * //

dimensions      [0 1 -1 0 0 0 0];

internalField   nonuniform List<vector> 
200
(
(-21.0905 -4.32878 -4.51312)
(-20.9138 -4.29251 -4.47538)
(-20.7022 -4.24909 -4.4301)
(-20.4439 -4.19607 -4.37482)
(-20.7006 -4.24934 -4.42862)
(-15.4582 -4.93816 0.134343)
(3.78747 -7.19252 16.3609)
(3.80375 -7.19007 16.3763)
(3.80375 -7.19006 16.3758)
(3.80351 -7.18961 16.3746)
(-19.4488 -3.99183 -4.16174)
(-19.1499 -3.93048 -4.09787)
(-18.7972 -3.85808 -4.0224)
(-18.3745 -3.77133 -3.93195)
(-18.8074 -3.86054 -4.02095)
(-16.1387 -4.37924 -1.37778)
(3.77963 -7.21094 16.3435)
(3.80698 -7.19618 16.3764)
(3.8038 -7.19017 16.3758)
(3.8035 -7.18959 16.3743)
(-18.146 -3.7244 -3.85438)
(-17.7217 -3.63733 -3.77424)
(-17.2417 -3.53882 -3.68033)
(-16.6913 -3.42586 -3.56883)
(-17.2409 -3.53893 -3.6798)
(-15.8034 -3.96869 -1.97417)
(3.77467 -7.24666 16.3182)
(3.81444 -7.21045 16.3765)
(3.80385 -7.19026 16.3757)
(3.80349 -7.18957 16.374)
(-17.0329 -3.49591 -3.58502)
(-16.5073 -3.38806 -3.49469)
(-15.9306 -3.26971 -3.3896)
(-15.2906 -3.13835 -3.26574)
(-15.9177 -3.26138 -3.38053)
(-17.7265 2.11507 7.85212)
(-17.5897 10.0883 27.1053)
(-11.6272 5.28278 24.1367)
(3.75071 -7.14738 16.4023)
(3.8034 -7.18949 16.3738)
(-20.9137 -4.2925 -4.47531)
(-20.7018 -4.24901 -4.43002)
(-20.4432 -4.19592 -4.37466)
(-20.1201 -4.12961 -4.30553)
(-20.4432 -4.19593 -4.37467)
(-20.7015 -4.24895 -4.43001)
(-20.662 -4.32627 -4.25231)
(3.32526 -7.14096 15.9728)
(3.80363 -7.19007 16.3756)
(3.80348 -7.18956 16.3743)
(-19.1496 -3.93041 -4.09775)
(-18.7964 -3.85793 -4.02224)
(-18.3731 -3.77104 -3.93166)
(-17.8562 -3.66496 -3.82107)
(-18.3726 -3.77094 -3.93169)
(-18.8034 -3.85938 -4.02189)
(-19.0425 -3.95498 -3.97814)
(2.85945 -7.07924 15.5353)
(3.80354 -7.19019 16.3755)
(3.80349 -7.18957 16.374)
(-17.7211 -3.63721 -3.77407)
(-17.2406 -3.53859 -3.68011)
(-16.6892 -3.42543 -3.56841)
(-16.0449 -3.29317 -3.43357)
(-16.682 -3.42394 -3.56899)
(-17.2221 -3.53482 -3.68141)
(-17.6098 -3.64452 -3.70103)
(2.26061 -6.97871 14.9335)
(3.80331 -7.19026 16.3751)
(3.80349 -7.18957 16.3737)
(-16.5065 -3.38789 -3.49448)
(-15.9291 -3.26941 -3.38932)
(-15.2878 -3.13778 -3.26521)
(-14.563 -2.98902 -3.11658)
(-15.2728 -3.1347 -3.26665)
(-15.882 -3.25965 -3.39302)
(-16.4246 -3.214 -3.14633)
(-11.4862 4.46389 22.422)
(3.74868 -7.14368 16.4024)
(3.80339 -7.18948 16.3735)
(-20.7019 -4.24903 -4.43)
(-20.443 -4.19589 -4.37463)
(-20.1197 -4.12952 -4.30543)
(-19.7042 -4.04424 -4.21651)
(-20.1196 -4.12952 -4.30543)
(-20.4431 -4.1959 -4.37464)
(-20.7019 -4.24903 -4.43002)
(-20.9061 -4.29341 -4.4689)
(-7.46712 -5.89462 6.91819)
(3.79469 -7.18853 16.3667)
(-18.7964 -3.85793 -4.02221)
(-18.3728 -3.77097 -3.9316)
(-17.8553 -3.66477 -3.82087)
(-17.2091 -3.53213 -3.68259)
(-17.8553 -3.66476 -3.82087)
(-18.3727 -3.77096 -3.93159)
(-18.7962 -3.85788 -4.02221)
(-19.1453 -3.93088 -4.09432)
(-11.1201 -5.13726 3.19395)
(3.78254 -7.18676 16.3554)
(-17.2405 -3.53857 -3.68005)
(-16.6888 -3.42533 -3.56831)
(-16.0435 -3.29289 -3.43328)
(-15.2687 -3.13386 -3.26736)
(-16.0438 -3.29296 -3.43323)
(-16.6788 -3.42328 -3.5691)
(-17.2081 -3.53192 -3.68236)
(-17.6537 -3.62425 -3.77604)
(-12.8581 -4.52999 0.939868)
(3.76239 -7.18325 16.3358)
(-15.929 -3.26938 -3.38925)
(-15.2871 -3.13765 -3.26509)
(-14.5611 -2.98864 -3.1162)
(-13.7165 -2.81528 -2.9352)
(-14.5618 -2.98878 -3.11609)
(-15.2672 -3.13356 -3.26704)
(-15.8643 -3.25611 -3.3948)
(-16.339 -3.35699 -3.49231)
(10.1731 -1.79765 3.63076)
(4.31835 -7.05755 16.2176)
(-20.4431 -4.1959 -4.37461)
(-20.1195 -4.12949 -4.30539)
(-19.7037 -4.04415 -4.21641)
(-19.1496 -3.93041 -4.09782)
(-19.7037 -4.04415 -4.21641)
(-20.1195 -4.12949 -4.30539)
(-20.4429 -4.19587 -4.37461)
(-20.7017 -4.24898 -4.42999)
(-20.9132 -4.29247 -4.4751)
(-20.5285 -4.39321 -4.04192)
(-18.3727 -3.77096 -3.93156)
(-17.855 -3.6647 -3.82081)
(-17.2082 -3.53194 -3.68239)
(-16.3772 -3.36139 -3.50456)
(-17.2082 -3.53195 -3.68239)
(-17.855 -3.66469 -3.8208)
(-18.3725 -3.77091 -3.93155)
(-18.7959 -3.85782 -4.02217)
(-19.1487 -3.93027 -4.09757)
(-19.2023 -4.02527 -3.94506)
(-16.6886 -3.42531 -3.56826)
(-16.043 -3.29279 -3.43319)
(-15.2673 -3.13358 -3.26707)
(-14.2981 -2.93466 -3.05965)
(-15.2673 -3.13359 -3.26707)
(-16.0434 -3.29287 -3.43314)
(-16.6785 -3.42322 -3.56905)
(-17.2078 -3.53186 -3.68231)
(-17.6556 -3.6238 -3.77809)
(-17.9106 -3.72318 -3.74084)
(-15.287 -3.13761 -3.26502)
(-14.5605 -2.98852 -3.11608)
(-13.7147 -2.81491 -2.93482)
(-12.6812 -2.60279 -2.71365)
(-13.7147 -2.81492 -2.93482)
(-14.5612 -2.98866 -3.11597)
(-15.2668 -3.13348 -3.26697)
(-15.8639 -3.25604 -3.39475)
(-16.374 -3.36097 -3.50388)
(-16.7332 -3.4651 -3.52353)
(-20.7026 -4.24917 -4.40988)
(-20.4436 -4.19601 -4.35654)
(-20.1202 -4.12964 -4.28936)
(-19.7049 -4.04438 -4.20249)
(-20.1203 -4.12964 -4.28936)
(-20.4435 -4.196 -4.35653)
(-20.7022 -4.24909 -4.40987)
(-20.9139 -4.29253 -4.45314)
(-21.0902 -4.32875 -4.48882)
(-21.1072 -4.37437 -4.40848)
(-18.8085 -3.8604 -4.00166)
(-18.3732 -3.77107 -3.91364)
(-17.8563 -3.66498 -3.80493)
(-17.2103 -3.53238 -3.6687)
(-17.8563 -3.66497 -3.80493)
(-18.3736 -3.77114 -3.9136)
(-18.7969 -3.85802 -4.00216)
(-19.1496 -3.93043 -4.07564)
(-19.4481 -3.9917 -4.13747)
(-19.6462 -4.05198 -4.13968)
(-17.2416 -3.5388 -3.6603)
(-16.6828 -3.42412 -3.55102)
(-16.0453 -3.29326 -3.4174)
(-15.2703 -3.1342 -3.25358)
(-16.0452 -3.29325 -3.4174)
(-16.68 -3.42353 -3.55121)
(-17.2091 -3.53213 -3.66242)
(-17.6568 -3.62403 -3.75621)
(-18.0406 -3.70281 -3.83631)
(-18.3427 -3.77581 -3.87754)
(-15.9158 -3.26668 -3.37098)
(-15.2737 -3.1349 -3.24875)
(-14.5635 -2.98914 -3.10035)
(-13.7184 -2.81568 -2.92152)
(-14.5635 -2.98913 -3.10035)
(-15.2687 -3.13387 -3.24924)
(-15.8656 -3.25638 -3.37495)
(-16.3773 -3.3614 -3.48243)
(-16.8199 -3.45237 -3.57513)
(-17.1856 -3.53484 -3.63804)
)
;

boundaryField
{
    inlet
    {
        type            calculated;
        value           nonuniform 0();
    }
    outlet
    {
        type            calculated;
        value           nonuniform 0();
    }
    bottom
    {
        type            calculated;
        value           uniform (0 0 0);
    }
    top
    {
        type            symmetryPlane;
    }
    side1
    {
        type            symmetryPlane;
    }
    side2
    {
        type            symmetryPlane;
    }
    procBoundary13to5
    {
        type            processor;
        value           nonuniform List<vector> 
50
(
(-23.0311 -4.72708 -4.92842)
(-23.0311 -4.72709 -4.92843)
(-23.0311 -4.72709 -4.92843)
(-23.0311 -4.7271 -4.92844)
(-23.0266 -4.7275 -4.92488)
(-11.2619 -5.8074 4.41547)
(3.79769 -7.18971 16.3716)
(3.80382 -7.1902 16.3763)
(3.80374 -7.19006 16.3759)
(3.8035 -7.1896 16.3749)
(-23.0311 -4.72709 -4.92843)
(-23.0311 -4.72709 -4.92843)
(-23.0311 -4.7271 -4.92844)
(-23.0312 -4.7271 -4.92844)
(-23.0311 -4.72709 -4.92844)
(-23.0309 -4.7271 -4.92832)
(-22.2553 -4.79829 -4.31252)
(3.64303 -7.17541 16.2485)
(3.80368 -7.18999 16.3758)
(3.80344 -7.18948 16.3746)
(-23.0311 -4.72709 -4.92843)
(-23.0311 -4.7271 -4.92844)
(-23.0312 -4.7271 -4.92844)
(-23.0312 -4.72711 -4.92845)
(-23.0312 -4.7271 -4.92844)
(-23.0311 -4.72709 -4.92844)
(-23.0311 -4.72709 -4.92843)
(-23.0082 -4.72917 -4.91031)
(-1.61254 -6.69284 12.0757)
(3.80095 -7.18912 16.3724)
(-23.0311 -4.7271 -4.92844)
(-23.0312 -4.7271 -4.92844)
(-23.0312 -4.72711 -4.92845)
(-23.0312 -4.72711 -4.92846)
(-23.0312 -4.72711 -4.92845)
(-23.0312 -4.7271 -4.92844)
(-23.0311 -4.7271 -4.92844)
(-23.0311 -4.72709 -4.92843)
(-23.0304 -4.72715 -4.92785)
(-21.1475 -4.8999 -3.43317)
(-23.0311 -4.72709 -4.90817)
(-23.0311 -4.72709 -4.9102)
(-23.0312 -4.7271 -4.91223)
(-23.0312 -4.72711 -4.91426)
(-23.0312 -4.7271 -4.91223)
(-23.0311 -4.7271 -4.9102)
(-23.0311 -4.72709 -4.90817)
(-23.0311 -4.72709 -4.90614)
(-23.0309 -4.7271 -4.90396)
(-22.5754 -4.76888 -4.54136)
)
;
    }
    procBoundary13to12
    {
        type            processor;
        value           nonuniform List<vector> 
20
(
(-21.2415 -4.35978 -4.5452)
(-20.0166 -4.10829 -4.20538)
(-18.8664 -3.87217 -3.90924)
(-17.917 -3.67725 -3.6484)
(-21.0918 -4.32904 -4.5132)
(-19.6843 -4.0401 -4.15247)
(-18.4048 -3.77746 -3.84198)
(-17.3321 -3.55726 -3.57175)
(-20.9151 -4.29277 -4.47542)
(-19.3098 -3.96326 -4.09088)
(-17.9008 -3.67404 -3.76439)
(-16.7122 -3.43005 -3.48388)
(-20.703 -4.24926 -4.43009)
(-18.8844 -3.87596 -4.01803)
(-17.346 -3.5602 -3.67353)
(-16.0517 -3.29453 -3.3817)
(-21.0531 -4.32107 -4.4503)
(-19.3645 -3.97447 -4.0673)
(-17.9179 -3.67755 -3.7431)
(-16.6881 -3.42513 -3.46524)
)
;
    }
    procBoundary13to14
    {
        type            processor;
        value           nonuniform List<vector> 
20
(
(3.37666 -6.38276 14.5366)
(3.41946 -6.46366 14.7205)
(3.45447 -6.52985 14.871)
(3.48362 -6.58498 14.9964)
(3.41935 -6.46346 14.7201)
(3.4544 -6.52971 14.8707)
(3.4836 -6.5849 14.9961)
(3.50827 -6.63157 15.1022)
(3.45276 -6.52946 14.8693)
(3.47984 -6.58446 14.9929)
(3.50105 -6.63068 15.0959)
(3.83591 -6.61165 15.1451)
(-18.0354 -4.6481 -2.01178)
(-18.2023 -4.21162 -2.96655)
(-17.5557 -3.87917 -3.21817)
(-16.6829 -3.60425 -3.22754)
(-20.5393 -4.46091 -3.89006)
(-19.5548 -4.13083 -3.92835)
(-18.4654 -3.85675 -3.7934)
(-17.4152 -3.61885 -3.61684)
)
;
    }
    procBoundary13to21
    {
        type            processor;
        value           nonuniform List<vector> 
50
(
(-16.3315 -3.31618 -3.27683)
(-15.6896 -3.14718 -3.11782)
(-15.0389 -2.8968 -2.81009)
(-14.5731 -2.19488 -1.66128)
(-23.2281 14.4389 29.3428)
(-23.4101 14.8225 30.0548)
(-23.4102 14.8228 30.0552)
(-23.4102 14.8227 30.0552)
(-23.3581 14.7805 30.0292)
(-8.02313 2.36753 22.2945)
(-15.66 -3.21408 -3.24136)
(-14.9552 -3.06946 -3.13075)
(-14.1958 -2.91361 -3.00158)
(-13.3684 -2.74382 -2.84864)
(-14.1541 -2.89458 -2.98817)
(-18.8074 5.23389 12.2401)
(-23.4009 14.8097 30.0306)
(-23.4032 14.8219 30.0534)
(-21.033 14.3952 29.3282)
(-6.80843 2.74521 22.1089)
(-14.9553 -3.06948 -3.13066)
(-14.1949 -2.91343 -3.00143)
(-13.366 -2.74332 -2.8482)
(-12.446 -2.55452 -2.66364)
(-13.3334 -2.73664 -2.85087)
(-14.0863 -2.89118 -3.00905)
(-12.1624 -2.6127 -2.20152)
(38.1788 3.19792 12.0573)
(46.9054 1.71125 9.82591)
(46.912 1.70613 9.82434)
(-14.1949 -2.91344 -3.00135)
(-13.3652 -2.74316 -2.84805)
(-12.4437 -2.55404 -2.66317)
(-11.3878 -2.33732 -2.43689)
(-12.4444 -2.55418 -2.663)
(-13.326 -2.73514 -2.85167)
(-14.0722 -2.8883 -3.01134)
(-14.4985 -3.00039 -3.09799)
(35.9968 0.856642 7.52057)
(44.8654 1.52532 9.30028)
(-14.9255 -3.06337 -3.11532)
(-14.1502 -2.90428 -2.98806)
(-13.3354 -2.73706 -2.83522)
(-12.4488 -2.55509 -2.64987)
(-13.3288 -2.7357 -2.83616)
(-14.0745 -2.88876 -2.99373)
(-14.7139 -3.02001 -3.12854)
(-15.1604 -3.12472 -3.22146)
(26.538 0.0870004 5.4493)
(42.5404 1.30862 8.6336)
)
;
    }
}


// ************************************************************************* //
