/*--------------------------------*- C++ -*----------------------------------*\
| =========                 |                                                 |
| \\      /  F ield         | OpenFOAM: The Open Source CFD Toolbox           |
|  \\    /   O peration     | Version:  2.4.0                                 |
|   \\  /    A nd           | Web:      www.OpenFOAM.org                      |
|    \\/     M anipulation  |                                                 |
\*---------------------------------------------------------------------------*/
FoamFile
{
    version     2.0;
    format      ascii;
    class       volVectorField;
    location    "0.05";
    object      Uc;
}
// * * * * * * * * * * * * * * * * * * * * * * * * * * * * * * * * * * * * * //

dimensions      [0 1 -1 0 0 0 0];

internalField   nonuniform List<vector> 
200
(
(-1.99318e-17 -4.09096e-18 -4.26517e-18)
(-1.17143e-15 -2.40433e-16 -2.50676e-16)
(-4.99885e-14 -1.026e-14 -1.06971e-14)
(-1.17107e-12 -2.4036e-13 -2.50599e-13)
(-4.99879e-14 -1.02613e-14 -1.06942e-14)
(-1.11088e-15 -3.54875e-16 9.6544e-18)
(4.76258e-15 -9.04426e-15 2.05731e-14)
(3.09109e-13 -5.84296e-13 1.33081e-12)
(1.46525e-11 -2.7697e-11 6.30817e-11)
(3.86014e-10 -7.29666e-10 1.66184e-09)
(-1.2601e-19 -2.58633e-20 -2.69642e-20)
(-6.78824e-18 -1.39327e-18 -1.45261e-18)
(-2.63327e-16 -5.40474e-17 -5.63493e-17)
(-5.5523e-15 -1.1396e-15 -1.18814e-15)
(-2.63325e-16 -5.4052e-17 -5.62979e-17)
(-6.58067e-18 -1.78567e-18 -5.61802e-19)
(1.5012e-17 -2.86404e-17 6.49132e-17)
(8.96901e-16 -1.69538e-15 3.85819e-15)
(3.86522e-14 -7.30626e-14 1.66402e-13)
(9.16589e-13 -1.73259e-12 3.94598e-12)
(-5.75364e-22 -1.18091e-22 -1.22213e-22)
(-2.86092e-20 -5.87196e-21 -6.09298e-21)
(-1.01727e-18 -2.08791e-19 -2.1714e-19)
(-1.95007e-17 -4.00247e-18 -4.1695e-18)
(-1.01726e-18 -2.08807e-19 -2.17119e-19)
(-2.79953e-20 -7.03045e-21 -3.4972e-21)
(4.09446e-20 -7.86061e-20 1.77007e-19)
(2.27116e-18 -4.29318e-18 9.75076e-18)
(8.97279e-17 -1.69609e-16 3.86283e-16)
(1.93468e-15 -3.65705e-15 8.32881e-15)
(-2.12047e-24 -4.35215e-25 -4.46308e-25)
(-9.7937e-23 -2.01012e-23 -2.07338e-23)
(-3.21511e-21 -6.5989e-22 -6.84086e-22)
(-5.65069e-20 -1.15979e-20 -1.20687e-20)
(-3.21674e-21 -6.59079e-22 -6.83157e-22)
(-1.63783e-22 1.95419e-23 7.2549e-23)
(-2.18398e-21 1.25259e-21 3.36546e-21)
(-3.64999e-20 1.65836e-20 7.57696e-20)
(1.8708e-19 -3.565e-19 8.18119e-19)
(3.74338e-18 -7.07603e-18 1.61154e-17)
(-1.19777e-14 -2.4584e-15 -2.56309e-15)
(-7.66642e-13 -1.57352e-13 -1.64055e-13)
(-3.59019e-11 -7.3688e-12 -7.68271e-12)
(-9.31321e-10 -1.91152e-10 -1.99294e-10)
(-3.59019e-11 -7.3688e-12 -7.6827e-12)
(-7.66642e-13 -1.57352e-13 -1.64058e-13)
(-1.19541e-14 -2.50299e-15 -2.4602e-15)
(1.24511e-15 -2.67387e-15 5.98087e-15)
(6.02559e-14 -1.13903e-13 2.59418e-13)
(1.42923e-12 -2.70161e-12 6.15294e-12)
(-6.9398e-17 -1.42438e-17 -1.48502e-17)
(-4.0377e-15 -8.28729e-16 -8.64026e-16)
(-1.70161e-13 -3.49253e-14 -3.64129e-14)
(-3.92359e-12 -8.05309e-13 -8.39611e-13)
(-1.70161e-13 -3.49253e-14 -3.64141e-14)
(-4.0377e-15 -8.28731e-16 -8.63627e-16)
(-6.93172e-17 -1.43967e-17 -1.4481e-17)
(3.458e-18 -8.56109e-18 1.87871e-17)
(1.74806e-16 -3.30453e-16 7.52597e-16)
(3.77012e-15 -7.12651e-15 1.62304e-14)
(-2.92433e-19 -6.0021e-20 -6.22795e-20)
(-1.5595e-17 -3.20083e-18 -3.32884e-18)
(-5.97422e-16 -1.22619e-16 -1.27738e-16)
(-1.23979e-14 -2.54465e-15 -2.65314e-15)
(-5.97422e-16 -1.2262e-16 -1.27814e-16)
(-1.5595e-17 -3.20084e-18 -3.33359e-18)
(-2.92195e-19 -6.04727e-20 -6.14102e-20)
(7.72327e-21 -2.38425e-20 5.10196e-20)
(4.42577e-19 -8.36704e-19 1.90552e-18)
(8.75203e-18 -1.65436e-17 3.76768e-17)
(-1.00091e-21 -2.05433e-22 -2.11896e-22)
(-4.92783e-20 -1.01142e-20 -1.04852e-20)
(-1.73048e-18 -3.55177e-19 -3.69601e-19)
(-3.26478e-17 -6.7009e-18 -6.98685e-18)
(-1.73047e-18 -3.55176e-19 -3.70127e-19)
(-4.9283e-20 -1.01149e-20 -1.05287e-20)
(-1.01374e-21 -1.98371e-22 -1.94195e-22)
(-2.09168e-22 8.12888e-23 4.08311e-22)
(9.9927e-22 -1.90426e-21 4.37233e-21)
(1.84704e-20 -3.49142e-20 7.95144e-20)
(-5.23258e-12 -1.07398e-12 -1.11972e-12)
(-3.67514e-10 -7.54316e-11 -7.86449e-11)
(-1.90578e-08 -3.91158e-09 -4.0782e-09)
(-5.53351e-07 -1.13574e-07 -1.18412e-07)
(-1.90578e-08 -3.91158e-09 -4.0782e-09)
(-3.67514e-10 -7.54316e-11 -7.86448e-11)
(-5.23259e-12 -1.07398e-12 -1.11972e-12)
(-6.1314e-14 -1.25918e-14 -1.31065e-14)
(-4.89525e-16 -3.86436e-16 4.53539e-16)
(2.93744e-15 -5.56459e-15 1.26693e-14)
(-2.75575e-14 -5.65613e-15 -5.89697e-15)
(-1.74175e-12 -3.5749e-13 -3.72717e-13)
(-8.02727e-11 -1.64758e-11 -1.71776e-11)
(-2.0392e-09 -4.18542e-10 -4.36371e-10)
(-8.02727e-11 -1.64758e-11 -1.71776e-11)
(-1.74175e-12 -3.5749e-13 -3.72718e-13)
(-2.75575e-14 -5.65613e-15 -5.89705e-15)
(-3.55249e-16 -7.29389e-17 -7.59716e-17)
(-3.52505e-18 -1.62851e-18 1.01248e-18)
(8.50043e-18 -1.61507e-17 3.67551e-17)
(-1.06432e-16 -2.18449e-17 -2.27183e-17)
(-6.11463e-15 -1.25501e-15 -1.3074e-15)
(-2.53591e-13 -5.20491e-14 -5.42683e-14)
(-5.72587e-12 -1.17522e-12 -1.22528e-12)
(-2.53591e-13 -5.20491e-14 -5.42663e-14)
(-6.11463e-15 -1.25502e-15 -1.30847e-15)
(-1.06432e-16 -2.1845e-17 -2.27755e-17)
(-1.49694e-18 -3.07318e-19 -3.20189e-19)
(-1.68798e-20 -5.94684e-21 1.23383e-21)
(2.14321e-20 -4.09188e-20 9.30555e-20)
(-3.36297e-19 -6.90239e-20 -7.15547e-20)
(-1.771e-17 -3.63493e-18 -3.78256e-18)
(-6.67621e-16 -1.37028e-16 -1.42876e-16)
(-1.35661e-14 -2.78442e-15 -2.90303e-15)
(-6.67621e-16 -1.37028e-16 -1.42865e-16)
(-1.77099e-17 -3.63492e-18 -3.78975e-18)
(-3.36326e-19 -6.90303e-20 -7.19706e-20)
(-5.11734e-21 -1.0514e-21 -1.09378e-21)
(7.9049e-23 -1.39685e-23 2.82126e-23)
(5.70942e-23 -9.331e-23 2.14418e-22)
(-1.25425e-09 -2.57433e-10 -2.68397e-10)
(-9.75499e-08 -2.00219e-08 -2.08748e-08)
(-5.66259e-06 -1.16223e-06 -1.21174e-06)
(-0.000186446 -3.82677e-05 -3.98977e-05)
(-5.66259e-06 -1.16223e-06 -1.21174e-06)
(-9.75499e-08 -2.00219e-08 -2.08748e-08)
(-1.25425e-09 -2.57433e-10 -2.68399e-10)
(-1.3394e-11 -2.74908e-12 -2.8662e-12)
(-1.25568e-13 -2.5773e-14 -2.68695e-14)
(-1.06384e-15 -2.27668e-16 -2.09463e-16)
(-5.94402e-12 -1.22e-12 -1.27195e-12)
(-4.10859e-10 -8.4328e-11 -8.79201e-11)
(-2.08638e-08 -4.28225e-09 -4.46466e-09)
(-5.88691e-07 -1.20828e-07 -1.25974e-07)
(-2.08638e-08 -4.28225e-09 -4.46465e-09)
(-4.10859e-10 -8.43279e-11 -8.79202e-11)
(-5.94402e-12 -1.22e-12 -1.27197e-12)
(-7.05381e-14 -1.44778e-14 -1.50946e-14)
(-7.27504e-16 -1.4932e-16 -1.55677e-16)
(-6.73859e-18 -1.41257e-18 -1.38443e-18)
(-2.08664e-14 -4.28279e-15 -4.46153e-15)
(-1.29786e-12 -2.66383e-13 -2.77741e-13)
(-5.85709e-11 -1.20216e-11 -1.25336e-11)
(-1.44576e-09 -2.9674e-10 -3.09379e-10)
(-5.85709e-11 -1.20216e-11 -1.25336e-11)
(-1.29786e-12 -2.66383e-13 -2.7773e-13)
(-2.08664e-14 -4.2828e-15 -4.46524e-15)
(-2.72425e-16 -5.59146e-17 -5.82966e-17)
(-3.06546e-18 -6.29185e-19 -6.55975e-19)
(-3.0789e-20 -6.40028e-21 -6.43063e-21)
(-6.04335e-17 -1.24038e-17 -1.29075e-17)
(-3.41655e-15 -7.01239e-16 -7.31171e-16)
(-1.38738e-13 -2.84756e-14 -2.96886e-14)
(-3.04355e-12 -6.24683e-13 -6.5129e-13)
(-1.38738e-13 -2.84756e-14 -2.96886e-14)
(-3.41654e-15 -7.01239e-16 -7.3111e-16)
(-6.04332e-17 -1.24038e-17 -1.29322e-17)
(-8.60841e-19 -1.76686e-19 -1.84213e-19)
(-1.04942e-20 -2.15407e-21 -2.24566e-21)
(-1.13525e-22 -2.35088e-23 -2.39051e-23)
(-5.24456e-12 -1.07644e-12 -1.11715e-12)
(-3.68281e-10 -7.55889e-11 -7.84808e-11)
(-1.90937e-08 -3.91894e-09 -4.07052e-09)
(-5.54282e-07 -1.13765e-07 -1.18213e-07)
(-1.90937e-08 -3.91894e-09 -4.07052e-09)
(-3.68281e-10 -7.55889e-11 -7.84809e-11)
(-5.24456e-12 -1.07644e-12 -1.11717e-12)
(-6.14702e-14 -1.26166e-14 -1.30887e-14)
(-6.27677e-16 -1.2883e-16 -1.33594e-16)
(-5.77291e-18 -1.19641e-18 -1.20574e-18)
(-2.76269e-14 -5.67037e-15 -5.87785e-15)
(-1.74579e-12 -3.58319e-13 -3.71866e-13)
(-8.04428e-11 -1.65107e-11 -1.71412e-11)
(-2.04313e-09 -4.19348e-10 -4.35531e-10)
(-8.04428e-11 -1.65107e-11 -1.71412e-11)
(-1.74578e-12 -3.58319e-13 -3.71855e-13)
(-2.76269e-14 -5.67037e-15 -5.88223e-15)
(-3.56227e-16 -7.31148e-17 -7.58161e-17)
(-3.96848e-18 -8.14526e-19 -8.44271e-19)
(-3.95625e-20 -8.15967e-21 -8.33626e-21)
(-1.06725e-16 -2.1905e-17 -2.26571e-17)
(-6.13023e-15 -1.25822e-15 -1.30485e-15)
(-2.54189e-13 -5.21717e-14 -5.41384e-14)
(-5.73827e-12 -1.17777e-12 -1.22263e-12)
(-2.54189e-13 -5.21717e-14 -5.41385e-14)
(-6.13022e-15 -1.25822e-15 -1.30514e-15)
(-1.06725e-16 -2.1905e-17 -2.2713e-17)
(-1.50139e-18 -3.08157e-19 -3.19397e-19)
(-1.81214e-20 -3.71939e-21 -3.85349e-21)
(-1.94604e-22 -4.00588e-23 -4.1138e-23)
(-3.37322e-19 -6.92344e-20 -7.14449e-20)
(-1.77592e-17 -3.64503e-18 -3.77741e-18)
(-6.69351e-16 -1.37383e-16 -1.42494e-16)
(-1.35988e-14 -2.79112e-15 -2.89604e-15)
(-6.69351e-16 -1.37383e-16 -1.42495e-16)
(-1.77592e-17 -3.64503e-18 -3.77922e-18)
(-3.37328e-19 -6.92358e-20 -7.17568e-20)
(-5.14147e-21 -1.05528e-21 -1.09327e-21)
(-6.68332e-23 -1.37178e-23 -1.42056e-23)
(-7.68968e-25 -1.58166e-25 -1.62784e-25)
)
;

boundaryField
{
    inlet
    {
        type            calculated;
        value           nonuniform 0();
    }
    outlet
    {
        type            calculated;
        value           nonuniform 0();
    }
    bottom
    {
        type            calculated;
        value           uniform (0 0 0);
    }
    top
    {
        type            symmetryPlane;
    }
    side1
    {
        type            symmetryPlane;
    }
    side2
    {
        type            symmetryPlane;
    }
    procBoundary13to5
    {
        type            processor;
        value           nonuniform List<vector> 
50
(
(-1.71977e-15 -3.52978e-16 -3.68013e-16)
(-1.11188e-13 -2.28211e-14 -2.37931e-14)
(-5.27223e-12 -1.08211e-12 -1.12821e-12)
(-1.38946e-10 -2.85183e-11 -2.9733e-11)
(-5.27208e-12 -1.08239e-12 -1.12758e-12)
(-9.6842e-14 -4.99385e-14 3.79691e-14)
(1.23451e-12 -2.33715e-12 5.32188e-12)
(8.78897e-11 -1.66134e-10 3.78385e-10)
(4.62887e-09 -8.74977e-09 1.99283e-08)
(1.37171e-07 -2.59288e-07 5.90549e-07)
(-1.13705e-12 -2.33378e-13 -2.43319e-13)
(-8.08719e-11 -1.65988e-11 -1.73058e-11)
(-4.26105e-09 -8.74572e-10 -9.11823e-10)
(-1.26329e-07 -2.59288e-08 -2.70332e-08)
(-4.26105e-09 -8.74572e-10 -9.11824e-10)
(-8.08718e-11 -1.65989e-11 -1.73055e-11)
(-1.13146e-12 -2.43946e-13 -2.1925e-13)
(3.48231e-13 -6.85885e-13 1.55317e-12)
(1.71355e-11 -3.23909e-11 7.37726e-11)
(4.51525e-10 -8.53499e-10 1.94391e-09)
(-5.51997e-10 -1.13296e-10 -1.18122e-10)
(-4.36216e-08 -8.95325e-09 -9.3346e-09)
(-2.58557e-06 -5.30683e-07 -5.53287e-07)
(-8.75956e-05 -1.79788e-05 -1.87446e-05)
(-2.58557e-06 -5.30683e-07 -5.53287e-07)
(-4.36216e-08 -8.95325e-09 -9.33461e-09)
(-5.51997e-10 -1.13296e-10 -1.18122e-10)
(-5.82024e-12 -1.19631e-12 -1.24213e-12)
(-1.87393e-14 -7.77775e-14 1.40332e-13)
(8.36414e-13 -1.58199e-12 3.60281e-12)
(-1.48876e-07 -3.05566e-08 -3.18581e-08)
(-1.32354e-05 -2.71654e-06 -2.83224e-06)
(-0.000896537 -0.000184012 -0.00019185)
(-0.0354319 -0.00727233 -0.00758209)
(-0.000896537 -0.000184012 -0.00019185)
(-1.32354e-05 -2.71654e-06 -2.83224e-06)
(-1.48876e-07 -3.05566e-08 -3.18581e-08)
(-1.41299e-09 -2.90013e-10 -3.02365e-10)
(-1.19207e-11 -2.44681e-12 -2.55069e-12)
(-9.10404e-14 -2.10941e-14 -1.47798e-14)
(-5.53134e-10 -1.1353e-10 -1.17879e-10)
(-4.37025e-08 -8.96985e-09 -9.3173e-09)
(-2.58983e-06 -5.31558e-07 -5.52375e-07)
(-8.7722e-05 -1.80048e-05 -1.87176e-05)
(-2.58983e-06 -5.31558e-07 -5.52375e-07)
(-4.37025e-08 -8.96985e-09 -9.3173e-09)
(-5.53134e-10 -1.1353e-10 -1.17879e-10)
(-5.83425e-12 -1.19747e-12 -1.24283e-12)
(-5.41537e-14 -1.11151e-14 -1.15309e-14)
(-4.55662e-16 -9.62553e-17 -9.16629e-17)
)
;
    }
    procBoundary13to12
    {
        type            processor;
        value           nonuniform List<vector> 
20
(
(-2.75193e-19 -5.64829e-20 -5.88851e-20)
(-1.88488e-21 -3.8686e-22 -3.96004e-22)
(-9.24874e-24 -1.89823e-24 -1.9164e-24)
(-3.64376e-26 -7.47839e-27 -7.41973e-27)
(-1.52845e-16 -3.13711e-17 -3.27056e-17)
(-9.66157e-19 -1.98299e-19 -2.03814e-19)
(-4.40473e-21 -9.0404e-22 -9.19481e-22)
(-1.62111e-23 -3.32718e-24 -3.34073e-24)
(-6.13172e-14 -1.25852e-14 -1.31207e-14)
(-3.55259e-16 -7.29154e-17 -7.52635e-17)
(-1.49587e-18 -3.07019e-19 -3.14569e-19)
(-5.11612e-21 -1.05005e-21 -1.06653e-21)
(-1.33939e-11 -2.74908e-12 -2.86607e-12)
(-7.05379e-14 -1.44777e-14 -1.50084e-14)
(-2.7235e-16 -5.58987e-17 -5.76781e-17)
(-8.60262e-19 -1.76564e-19 -1.81236e-19)
(-6.147e-14 -1.26165e-14 -1.29938e-14)
(-3.56138e-16 -7.30957e-17 -7.4803e-17)
(-1.50021e-18 -3.07911e-19 -3.13399e-19)
(-5.13426e-21 -1.05377e-21 -1.06611e-21)
)
;
    }
    procBoundary13to14
    {
        type            processor;
        value           nonuniform List<vector> 
20
(
(1.30065e-11 -2.45857e-11 5.59932e-11)
(3.47444e-14 -6.56759e-14 1.49572e-13)
(8.14809e-17 -1.5402e-16 3.50764e-16)
(1.73408e-19 -3.27787e-19 7.46493e-19)
(5.41642e-14 -1.02384e-13 2.33174e-13)
(1.58746e-16 -3.00072e-16 6.8338e-16)
(4.05333e-19 -7.66184e-19 1.74487e-18)
(9.33083e-22 -1.76378e-21 4.01668e-21)
(1.2387e-16 -2.34248e-16 5.33444e-16)
(3.95118e-19 -7.47631e-19 1.70237e-18)
(1.09051e-21 -2.06533e-21 4.70207e-21)
(2.96213e-24 -5.10559e-24 1.16952e-23)
(-8.22223e-18 -2.11903e-18 -9.17157e-19)
(-5.70074e-20 -1.31903e-20 -9.29086e-21)
(-2.81677e-22 -6.22402e-23 -5.16346e-23)
(-1.11394e-24 -2.4066e-25 -2.15507e-25)
(-4.87752e-20 -1.05934e-20 -9.2378e-21)
(-3.60844e-22 -7.6226e-23 -7.24897e-23)
(-1.90365e-24 -3.97603e-25 -3.91072e-25)
(-8.02378e-27 -1.66733e-27 -1.6664e-27)
)
;
    }
    procBoundary13to21
    {
        type            processor;
        value           nonuniform List<vector> 
50
(
(-6.69115e-27 -1.35866e-27 -1.34254e-27)
(-2.89738e-25 -5.81187e-26 -5.75766e-26)
(-8.92911e-24 -1.71993e-24 -1.66844e-24)
(-1.52793e-22 -2.30125e-23 -1.74179e-23)
(-6.38019e-22 3.966e-22 8.05976e-22)
(-3.19574e-20 2.02344e-20 4.10282e-20)
(-1.1655e-18 7.37965e-19 1.49633e-18)
(-2.30424e-17 1.45899e-17 2.95831e-17)
(-1.16513e-18 7.37265e-19 1.49789e-18)
(-2.51839e-20 7.43145e-21 6.99803e-20)
(-2.94417e-24 -6.04266e-25 -6.09395e-25)
(-1.34768e-22 -2.76603e-23 -2.82125e-23)
(-4.3725e-21 -8.97436e-22 -9.2453e-22)
(-7.56605e-20 -1.5529e-20 -1.61222e-20)
(-4.37797e-21 -8.95312e-22 -9.24261e-22)
(-3.18757e-22 8.87067e-23 2.07451e-22)
(-6.22962e-21 3.94253e-21 7.99453e-21)
(-1.13671e-19 7.19912e-20 1.45972e-19)
(-5.77908e-21 3.95526e-21 8.05829e-21)
(-1.21264e-22 4.88948e-23 3.9378e-22)
(-9.19665e-22 -1.88755e-22 -1.92517e-22)
(-4.47446e-20 -9.18362e-21 -9.46101e-21)
(-1.54677e-18 -3.1747e-19 -3.29607e-19)
(-2.85719e-17 -5.86432e-18 -6.11483e-18)
(-1.54674e-18 -3.17465e-19 -3.30716e-19)
(-4.47635e-20 -9.18762e-21 -9.56219e-21)
(-8.04398e-22 -1.72799e-22 -1.45605e-22)
(4.24207e-21 3.55323e-22 1.3397e-21)
(8.32691e-20 3.0379e-21 1.74435e-20)
(4.56105e-21 1.6588e-22 9.55179e-22)
(-1.52678e-19 -3.13366e-20 -3.22821e-20)
(-7.9149e-18 -1.62451e-18 -1.68663e-18)
(-2.92122e-16 -5.99574e-17 -6.25195e-17)
(-5.76669e-15 -1.1836e-15 -1.23402e-15)
(-2.92122e-16 -5.99574e-17 -6.25117e-17)
(-7.91472e-18 -1.62448e-18 -1.69369e-18)
(-1.52751e-19 -3.1352e-20 -3.26875e-20)
(-2.33179e-21 -4.82551e-22 -4.98249e-22)
(4.15294e-22 9.88307e-24 8.67647e-23)
(2.59559e-23 8.82439e-25 5.38047e-24)
(-9.23121e-22 -1.89465e-22 -1.92678e-22)
(-4.48957e-20 -9.21469e-21 -9.48053e-21)
(-1.55111e-18 -3.18363e-19 -3.29782e-19)
(-2.86475e-17 -5.87984e-18 -6.09794e-18)
(-1.55111e-18 -3.18363e-19 -3.30054e-19)
(-4.49008e-20 -9.21579e-21 -9.55065e-21)
(-9.24049e-22 -1.8966e-22 -1.96475e-22)
(-1.50885e-23 -3.1099e-24 -3.20618e-24)
(1.07902e-24 3.5374e-27 2.21566e-25)
(7.88584e-26 2.42583e-27 1.60044e-26)
)
;
    }
}


// ************************************************************************* //
