/*--------------------------------*- C++ -*----------------------------------*\
| =========                 |                                                 |
| \\      /  F ield         | OpenFOAM: The Open Source CFD Toolbox           |
|  \\    /   O peration     | Version:  2.4.0                                 |
|   \\  /    A nd           | Web:      www.OpenFOAM.org                      |
|    \\/     M anipulation  |                                                 |
\*---------------------------------------------------------------------------*/
FoamFile
{
    version     2.0;
    format      ascii;
    class       volVectorField;
    location    "0.05";
    object      Ur;
}
// * * * * * * * * * * * * * * * * * * * * * * * * * * * * * * * * * * * * * //

dimensions      [0 1 -1 0 0 0 0];

internalField   nonuniform List<vector> 
200
(
(-135.517 168.296 -38.66)
(-53.4815 60.1985 -54.806)
(-75.0928 203.703 19.3345)
(-62.2079 57.2435 -18.8074)
(-37.2119 283.509 144.349)
(-81.3765 49.8798 19.0422)
(-55.4422 349.779 189.509)
(-97.2218 109.589 -10.835)
(-145.927 209.584 10.0462)
(-64.0949 140.957 -14.3041)
(-23.8931 67.8245 -38.9472)
(-53.1488 183.22 16.6079)
(-10.13 82.5122 -42.1597)
(-19.4005 207.292 70.6027)
(-20.6969 62.0844 -0.474466)
(-21.3723 241.39 150.405)
(-39.9971 82.4446 43.8095)
(-31.7434 293.912 166.359)
(-79.6756 99.7167 -17.1887)
(-104.504 163.613 36.9952)
(-6.3817 163.882 35.8081)
(21.8866 93.0925 -28.9371)
(18.6708 178.043 74.1837)
(33.2118 97.2694 -17.0693)
(16.9437 173.882 117.973)
(1.55793 85.6364 38.8142)
(11.2542 166.086 205.492)
(-36.5356 93.6069 56.5624)
(-40.2139 188.461 128.526)
(-79.1913 85.2853 -1.15148)
(51.9004 78.2224 -19.2714)
(43.9647 143.213 95.995)
(58.2019 89.8459 -16.7365)
(47.1659 131.281 139.659)
(50.7864 74.2311 39.3985)
(35.0924 104.228 189.908)
(-26.2794 66.809 139.372)
(-22.405 96.3098 251.53)
(-77.1573 52.0561 55.0229)
(-76.3718 84.4362 105.113)
(-158.007 83.8796 -67.5159)
(-201.82 184.845 -77.9934)
(-167.264 69.658 -83.1991)
(-140.923 185.257 -24.4351)
(-186.893 117.389 78.2612)
(-67.0637 279.939 219.921)
(-154.609 47.6684 98.9721)
(-71.7032 423.895 263.81)
(-157.638 81.2711 86.2356)
(-247.974 211.58 -34.3798)
(-172.093 166.635 -58.5762)
(-110.318 75.8532 -82.3565)
(-168.869 169.302 -82.1019)
(-90.6542 48.4949 -34.7631)
(-81.5633 204.633 83.4884)
(-88.5026 31.9224 75.8914)
(-75.4344 233.308 224.74)
(-89.7779 89.5177 135.826)
(-27.7786 430.18 279.132)
(-143.494 49.5994 5.74365)
(-64.0152 63.7219 -53.9769)
(-90.1987 164.78 -0.361461)
(-42.2455 86.7332 -82.4831)
(-61.0643 166.107 61.5263)
(21.1769 54.223 38.7513)
(-34.4105 149.664 139.817)
(-58.297 56.6859 176.921)
(2.60039 152.494 334.115)
(-73.9026 90.5436 165.703)
(12.5976 286.661 271.059)
(-18.8327 126.007 81.6616)
(12.72 76.6688 -17.9356)
(16.1369 131.584 152.748)
(45.9958 76.6959 39.7415)
(24.4763 116.531 185.012)
(66.4851 67.801 245.789)
(32.734 85.8823 268.215)
(-40.8758 102.422 295.463)
(12.1395 72.7306 324.039)
(-117.331 102.908 243.945)
(-271.806 152.302 9.32639)
(-265.114 91.0711 -77.4192)
(-272.239 126.24 -93.9984)
(-308.773 75.9076 23.175)
(-121.715 106.198 -91.9082)
(-371.084 218.574 308.727)
(-68.8341 156.418 263.705)
(-216.16 24.9841 226.297)
(-91.2178 290.18 240.779)
(-177.445 38.3442 374.803)
(-237.547 53.9128 -62.5263)
(-261.963 190.618 36.1824)
(-233.218 30.8761 -143.126)
(-262.243 41.9695 -276.121)
(-172.929 64.1565 154.903)
(-73.9531 155.726 209.357)
(-147.744 -24.6778 255.523)
(-118.479 86.4206 258.843)
(-129.837 94.5635 225.899)
(-17.3177 436.174 383.445)
(-189.422 148.682 -26.3716)
(-153.973 63.6688 -116.802)
(-174.684 169.548 -18.171)
(-152.567 23.2195 -369.009)
(-162.407 135.167 167.638)
(37.5561 13.7268 257.074)
(-94.2562 78.0636 157.314)
(-108.039 49.2505 431.962)
(-100.13 94.6643 357.203)
(-234.836 90.4067 191.013)
(-64.4902 53.512 -57.6352)
(-72.7768 149.66 63.1766)
(-31.4115 87.7191 -42.7539)
(-35.9832 151.439 154.644)
(24.5249 87.5291 39.3843)
(-2.80733 160.565 281.268)
(78.4159 131.772 528.744)
(-24.4409 88.7987 236.819)
(-31.4133 306.798 368.277)
(-276.287 -9.64471 337.125)
(-267.774 -52.3464 -33.692)
(-291.372 7.8916 -83.6972)
(-405.042 46.0284 113.96)
(-276.223 -27.3329 -268.194)
(-485.381 183.985 324.695)
(-111.232 -42.1541 -257.314)
(-630.089 315.428 499.828)
(-82.5301 5.75801 219.84)
(-286.881 -7.85855 196.631)
(-39.8957 120.059 149.994)
(-295.048 109.146 75.1597)
(-309.756 10.0592 8.332)
(-326.691 28.1473 -239.258)
(-364.56 -35.0479 6.78194)
(-271.429 -52.3541 -511.871)
(-510.43 388.01 513.015)
(-48.4154 24.7087 297.818)
(-306.584 -164.4 285.714)
(-230.497 -155.681 89.8337)
(-188.317 108.813 253.349)
(-216.665 48.5736 -101.013)
(-230.793 164.006 65.712)
(-244.643 24.2296 -285.014)
(-256.982 163.047 111.083)
(-318.893 4.67935 -1057.25)
(-238.066 153.312 283.891)
(-20.2422 11.7838 450.226)
(-188.861 6.03533 13.9537)
(-238.617 86.3116 712.158)
(-391.398 -61.151 255.73)
(-110.457 153.165 88.5274)
(-96.7369 77.0664 -98.8294)
(-90.6137 168.871 180.213)
(-60.3861 97.9479 -130.706)
(-51.7669 196.385 258.962)
(-14.5432 57.5681 -490.237)
(-112.952 134.866 232.461)
(128.186 359.575 794.244)
(-372.963 44.102 441.863)
(-75.5778 403.655 370.137)
(-213.166 -95.8926 -87.4306)
(-303.227 1.03127 214.359)
(-227.831 -108.81 -403.437)
(-454.327 102.205 339.993)
(-206.406 -147.596 -682.159)
(-647.452 265.875 535.621)
(-161.119 -172.184 -426.506)
(-637.099 156.384 423.572)
(-143.6 -281.923 -189.536)
(-353.144 0.602788 -12.5807)
(-216.694 13.1807 80.5907)
(-201.813 -19.2709 -292.38)
(-320.622 55.2624 174.599)
(-252.709 -70.8988 -632.099)
(-545.149 155.944 97.0847)
(-289.822 -50.039 -566.647)
(-723.404 495.483 645.533)
(-117.382 -165.51 50.8415)
(-369.855 -152.374 82.2817)
(-307.202 -238.74 49.4436)
(-106.757 76.321 78.4719)
(-185.73 -0.877508 -298.496)
(-131.292 64.1214 71.9446)
(-299.961 -20.0027 -905.519)
(-198.399 78.9199 382.492)
(-528.714 50.0563 -1475.32)
(-391.371 136.763 244.327)
(-265.687 17.7532 371.515)
(-362.907 -97.1772 81.0723)
(-263.921 140.262 523.034)
(-99.7547 -0.405201 -178.847)
(-63.5078 48.309 141.659)
(-101.073 -23.3866 -416.102)
(-62.8596 36.9365 268.413)
(-110.306 -68.7064 -788.414)
(-109.773 -17.3387 454.303)
(-62.6097 100.201 -585.293)
(-290.784 118.306 470.864)
(93.3384 529.52 570.379)
(-189.948 -1.4068 -557.977)
)
;

boundaryField
{
    inlet
    {
        type            calculated;
        value           nonuniform 0();
    }
    outlet
    {
        type            calculated;
        value           nonuniform 0();
    }
    bottom
    {
        type            calculated;
        value           uniform (0 0 0);
    }
    top
    {
        type            symmetryPlane;
    }
    side1
    {
        type            symmetryPlane;
    }
    side2
    {
        type            symmetryPlane;
    }
    procBoundary13to5
    {
        type            processor;
        value           nonuniform List<vector> 
50
(
(-91.5901 54.7727 -47.3315)
(-123.118 180.576 -27.6906)
(-83.82 43.454 -51.2748)
(-52.0424 277.563 104.527)
(-136.501 72.854 29.474)
(-82.8313 359.905 176.597)
(-126.932 122.47 3.86883)
(-202.745 263.984 -8.37392)
(-93.5084 166.74 -36.0768)
(-67.6699 329.164 35.6963)
(-214.435 182.539 -78.0661)
(-209.874 90.3792 -100.701)
(-182.499 169.642 -53.0622)
(-243.952 119.421 23.6228)
(-53.7712 254.877 145.035)
(-309.692 132.654 175.296)
(-82.2364 392.197 288.814)
(-223.363 117.345 94.8741)
(-267.292 315.638 -24.894)
(-133.218 238.792 -37.2916)
(-265.543 88.9355 -87.46)
(-276.46 136.258 -44.1042)
(-298.769 70.8719 -112.386)
(-182.567 64.1338 -128.976)
(-440.574 205.968 233.064)
(-39.7244 93.5903 89.7703)
(-489.944 179.096 346.791)
(-65.8408 244.732 305.259)
(-313.155 28.1526 231.858)
(-253.859 242.065 -22.0008)
(-327.686 230.694 77.1768)
(-224.787 -154.036 -183.107)
(-257.168 -113.427 -108.475)
(-481.66 53.2872 224.018)
(-182.634 -101.901 -314.689)
(-663.662 273.177 469.459)
(-72.9587 -69.2352 -111.513)
(-675.728 227.894 468.983)
(-76.5987 89.4132 309.277)
(-334.399 79.5131 196.232)
(-180.615 -122.587 18.8836)
(-168.339 -190.589 -176.504)
(-347.475 -22.123 298.015)
(-136.438 -184.448 -452.928)
(-504.503 86.2011 436.699)
(-102.978 -224.439 -653.662)
(-613.036 190.614 534.462)
(-98.4763 -202.869 -488.591)
(-387.145 13.3445 222.249)
(-108.619 -271.741 -349.625)
)
;
    }
    procBoundary13to12
    {
        type            processor;
        value           nonuniform List<vector> 
20
(
(-72.7588 66.5762 -24.7119)
(-103.466 157.394 -31.421)
(14.4161 58.8968 -32.545)
(32.3327 140.115 49.3835)
(-203.686 174.941 -53.0383)
(-122.071 59.6457 -50.6594)
(-120.375 142.321 -35.9072)
(-14.2665 46.392 -29.9646)
(-271.018 51.391 -52.1821)
(-241.831 122.79 8.80033)
(-165.105 40.3799 -76.5909)
(-99.0923 123.15 0.932318)
(-287.584 50.5457 84.4973)
(-240.983 32.5756 -49.7651)
(-198.702 134.604 65.7029)
(-97.295 45.4303 -61.2093)
(-197.749 -140.425 -168.311)
(-176.137 38.5371 153.914)
(-153.229 7.43376 -116.736)
(-83.8477 65.5062 93.5877)
)
;
    }
    procBoundary13to14
    {
        type            processor;
        value           nonuniform List<vector> 
20
(
(-57.922 201.968 15.4276)
(-59.7961 92.6923 -6.84844)
(-92.0771 132.949 51.9951)
(-102.991 33.6022 -8.67567)
(-158.772 111.107 -24.0711)
(-225.12 134.372 -36.9523)
(-129.826 29.7422 -7.09234)
(-52.0677 38.7885 188.607)
(-292.285 159 52.7853)
(-200.908 -120.154 88.8467)
(130.171 912.607 1155.76)
(-143.424 117.696 181.832)
(-114.345 137.569 155.965)
(-108.039 273.814 276.074)
(-272.834 208.611 198.631)
(-333.195 -110.752 109.094)
(-220.528 -199.781 86.7625)
(-230.063 169.547 -21.8869)
(-362.488 -158.874 8.94617)
(7.93765 410.736 362.613)
)
;
    }
    procBoundary13to21
    {
        type            processor;
        value           nonuniform List<vector> 
50
(
(60.4669 101.347 125.132)
(69.9947 51.5637 -5.8377)
(59.9693 75.7367 167.643)
(62.1525 34.2156 35.076)
(51.2993 50.9948 228.171)
(15.9945 30.8226 129.816)
(39.3521 27.0643 293.334)
(-54.2773 80.4483 219.268)
(-41.6776 44.4078 209.376)
(-118.273 23.8112 28.9121)
(40.4135 43.8802 1.43521)
(45.8836 90.9546 196.271)
(62.777 50.8669 61.3448)
(77.6471 75.0282 235.609)
(62.8069 38.9361 144.025)
(101.708 54.0127 316.192)
(44.8459 139.435 312.662)
(34.8272 85.6613 264.095)
(67.0473 415.81 424.843)
(-203.01 35.2862 320.387)
(38.9513 101.095 208.457)
(70.5711 64.9543 66.1095)
(82.9337 104.415 264.609)
(100.666 78.6647 140.318)
(125.822 89.4431 339.614)
(129.915 215.738 292.048)
(75.8402 109.043 239.876)
(214.955 444.764 408.218)
(-464.938 51.4835 541.672)
(220.283 651.795 220.334)
(45.4914 48.5418 -32.1502)
(96.3663 122.084 268.441)
(97.6105 71.2434 -25.0235)
(161.567 117.839 332.165)
(197.082 155.92 131.657)
(143.072 123.196 240.106)
(366.184 545.993 434.118)
(-484.922 66.3106 892.859)
(414.711 904.639 551.09)
(-170.614 -108.803 -583.604)
(20.0459 50.2594 145.846)
(51.1729 -29.4916 -202.915)
(110.573 -9.90598 261.43)
(145.269 -42.9394 -321.844)
(142.32 -105.386 263.285)
(386.549 244.538 89.5107)
(-201.62 136.266 971.972)
(644.213 973.131 594.608)
(95.8899 -17.624 -1277.1)
(433.107 581.565 509.104)
)
;
    }
}


// ************************************************************************* //
