/*--------------------------------*- C++ -*----------------------------------*\
| =========                 |                                                 |
| \\      /  F ield         | OpenFOAM: The Open Source CFD Toolbox           |
|  \\    /   O peration     | Version:  2.4.0                                 |
|   \\  /    A nd           | Web:      www.OpenFOAM.org                      |
|    \\/     M anipulation  |                                                 |
\*---------------------------------------------------------------------------*/
FoamFile
{
    version     2.0;
    format      ascii;
    class       volScalarField;
    location    "0.03";
    object      nut;
}
// * * * * * * * * * * * * * * * * * * * * * * * * * * * * * * * * * * * * * //

dimensions      [0 2 -1 0 0 0 0];

internalField   nonuniform List<scalar> 
200
(
0.000191582
0.000268046
0.000439635
0.000265831
0.000401639
0.000229781
0.000166893
0.00028672
0.0003911
0.000331564
0.000148647
0.000385234
0.000408787
0.00078054
0.000241862
9.19815e-05
0.000216433
6.12006e-05
0.000416715
0.000262842
0.00044986
0.000489518
0.000860369
0.000356662
0.000104692
0.000146193
0.000105667
0.000282574
0.000128882
0.000387911
0.000233152
0.000474234
0.000389927
0.000126134
0.000111247
8.688e-05
0.000198868
0.000164551
0.00032819
0.000277845
0.000130923
0.000158457
0.000146259
0.000136088
0.00025855
0.000344339
9.86458e-05
0.000187946
0.000333677
0.000390844
0.000192953
0.000142303
0.000212117
9.56506e-05
0.000208694
6.31978e-05
0.000140506
0.000225782
4.53962e-05
0.000192731
0.000228778
0.000303148
0.000205924
9.45354e-05
0.00015773
0.000157499
0.000125857
0.000201741
0.000309561
0.00022239
0.000374778
0.000181188
0.00027966
0.000176507
0.000178372
0.000188755
0.000285833
0.000219449
0.000414429
0.000140921
0.000210424
0.000294656
0.000224188
0.000135689
0.000244087
0.000240181
0.000158854
0.000189082
0.000205758
0.000495855
0.000215014
0.000124655
0.00016795
0.0002428
0.000252957
0.000786913
0.000123406
0.000243369
0.000436883
0.000293317
0.000146235
0.000139405
0.000210959
0.000168525
0.000141307
0.000298776
0.000144969
0.000142059
0.000106616
0.00020695
0.000187258
0.00015448
0.000161068
0.000162157
0.000265664
0.000157719
0.000359514
0.000249599
0.000348555
0.000643636
0.000419051
0.00026328
0.000114196
0.00019537
0.000174996
0.000957781
0.000161574
0.000276372
0.000218368
0.00033554
0.000259446
0.000147917
0.000155048
0.000198696
0.00118009
0.000334868
0.0011416
0.000280461
0.000255558
0.0002464
0.000312692
0.000255418
0.000118354
0.000254707
0.000202792
0.000664992
0.000373955
0.000180866
0.000189199
0.000330929
0.000128797
0.000254588
0.000357014
0.000108568
0.000698648
0.000174508
0.000163157
0.000217412
0.000288873
0.000317231
0.00273759
0.000212589
0.000210653
0.000184873
0.000290181
0.000205035
0.000207769
7.56597e-05
8.44773e-05
0.000130966
0.000262313
0.00017761
0.000103165
0.000351692
0.000212864
0.000628118
0.000191409
5.01298e-05
0.000122183
0.000127065
0.00023786
0.000129827
0.000379419
1.06536e-05
0.000505756
0.000133093
0.000264688
0.000236997
8.6701e-05
0.000289194
0.000112479
0.000345727
0.000289896
0.000661399
0.000184903
0.000518038
0.00031226
0.000126584
0.000356354
0.000422414
)
;

boundaryField
{
    inlet
    {
        type            calculated;
        value           nonuniform 0();
    }
    outlet
    {
        type            calculated;
        value           nonuniform 0();
    }
    bottom
    {
        type            calculated;
        value           nonuniform List<scalar> 
40
(
6.20416e-29
5.95216e-28
2.56589e-28
5.63525e-28
7.31815e-28
1.95636e-28
1.53365e-27
6.34452e-28
2.82858e-28
1.50475e-27
8.70951e-28
3.28172e-28
6.49327e-28
7.05618e-28
3.44424e-28
1.15516e-28
3.3485e-28
3.28495e-28
1.19869e-28
1.75074e-28
3.52152e-28
9.73207e-29
2.89983e-28
8.7423e-29
1.55094e-28
4.8622e-28
5.91182e-29
3.44768e-28
4.28228e-28
9.33214e-29
6.7893e-28
5.81559e-29
2.8527e-28
9.0224e-28
4.90792e-29
9.80594e-28
2.80078e-28
2.83155e-28
1.18053e-27
1.45169e-29
)
;
    }
    top
    {
        type            symmetryPlane;
    }
    side1
    {
        type            symmetryPlane;
    }
    side2
    {
        type            symmetryPlane;
    }
    procBoundary1to0
    {
        type            processor;
        value           nonuniform List<scalar> 
20
(
0.000103283
9.61076e-05
0.000231509
9.86182e-05
0.000100252
9.84892e-05
0.000128036
0.000922894
0.000265333
0.000202766
0.000237444
0.000291406
0.000836233
0.00105305
7.10573e-05
0.000111472
0.00218993
0.00150299
0.000194459
0.000130833
)
;
    }
    procBoundary1to2
    {
        type            processor;
        value           nonuniform List<scalar> 
20
(
0.000458822
0.000133807
0.000452195
0.000424286
0.000280739
0.000326816
0.00041496
0.00126497
0.000556543
0.000331513
0.000437827
0.000359692
0.000334182
0.000381559
0.000219185
0.000378912
0.000209379
0.000220496
0.000364213
0.000651448
)
;
    }
    procBoundary1to9
    {
        type            processor;
        value           nonuniform List<scalar> 
50
(
0.000211304
0.000206138
0.000174033
0.000164616
8.47323e-05
0.00014695
3.06522e-05
0.000241062
0.000225217
0.000303505
6.59775e-05
0.000110205
7.94881e-05
5.04271e-05
0.000189163
1.78622e-05
0.000177082
0.000188838
0.000198945
0.000630014
0.000186815
0.000292769
7.36034e-05
0.000152814
0.000426431
0.000209889
0.000149936
0.000519696
0.000519547
0.000224673
0.0003292
0.000217807
0.0005225
0.000818148
0.000159851
0.000662751
0.000273019
0.000197659
0.000169652
0.000316411
0.000108577
0.000411731
0.000303893
0.000231498
0.000387731
0.000274916
0.000182786
0.000322014
0.000412079
0.000584896
)
;
    }
}


// ************************************************************************* //
