/*--------------------------------*- C++ -*----------------------------------*\
| =========                 |                                                 |
| \\      /  F ield         | OpenFOAM: The Open Source CFD Toolbox           |
|  \\    /   O peration     | Version:  2.4.0                                 |
|   \\  /    A nd           | Web:      www.OpenFOAM.org                      |
|    \\/     M anipulation  |                                                 |
\*---------------------------------------------------------------------------*/
FoamFile
{
    version     2.0;
    format      ascii;
    class       volScalarField;
    location    "0.01";
    object      alpha;
}
// * * * * * * * * * * * * * * * * * * * * * * * * * * * * * * * * * * * * * //

dimensions      [0 0 0 0 0 0 0];

internalField   nonuniform List<scalar> 
200
(
1.29747e-78
6.73673e-81
3.48327e-83
1.79334e-85
9.19295e-88
4.69206e-90
2.38454e-92
1.20672e-94
6.08146e-97
3.06773e-99
1.37334e-80
7.24979e-83
3.80624e-85
1.98816e-87
1.03353e-89
5.34832e-92
2.75565e-94
1.41391e-96
7.22566e-99
3.69698e-101
1.20997e-82
6.52089e-85
3.49123e-87
1.85776e-89
9.82933e-92
5.17295e-94
2.70878e-96
1.41174e-98
7.32474e-101
3.80375e-103
9.14187e-85
5.03611e-87
2.7538e-89
1.49539e-91
8.06782e-94
4.32626e-96
2.30666e-98
1.22326e-100
6.45424e-103
3.40684e-105
2.1711e-80
1.15455e-82
6.1107e-85
3.21864e-87
1.68712e-89
8.8008e-92
4.56905e-94
2.36099e-96
1.21443e-98
6.25055e-101
2.35341e-82
1.27165e-84
6.83008e-87
3.64795e-89
1.9381e-91
1.02452e-93
5.38996e-96
2.82262e-98
1.47163e-100
7.6794e-103
2.12242e-84
1.17015e-86
6.40578e-89
3.48362e-91
1.88281e-93
1.01174e-95
5.4071e-98
2.87493e-100
1.52115e-102
8.05339e-105
1.64062e-86
9.24104e-89
5.16414e-91
2.86456e-93
1.57798e-95
8.63599e-98
4.69742e-100
2.54036e-102
1.36635e-104
7.35001e-107
1.87115e-82
1.01868e-84
5.51666e-87
2.97165e-89
1.5922e-91
8.48584e-94
4.49907e-96
2.37316e-98
1.24554e-100
6.53925e-103
2.07624e-84
1.14787e-86
6.30485e-89
3.44199e-91
1.86829e-93
1.00857e-95
5.41622e-98
2.89409e-100
1.53897e-102
8.18864e-105
1.91589e-86
1.08018e-88
6.04408e-91
3.35805e-93
1.8534e-95
1.0166e-97
5.5435e-100
3.00617e-102
1.62167e-104
8.75087e-107
1.5146e-88
8.71984e-91
4.97829e-93
2.81994e-95
1.58561e-97
8.85401e-100
4.91188e-102
2.7082e-104
1.4845e-106
8.13643e-109
1.10228e-84
6.14035e-87
3.40082e-89
1.87259e-91
1.02513e-93
5.57974e-96
3.0199e-98
1.62542e-100
8.70145e-103
4.65835e-105
1.25138e-86
7.07521e-89
3.97234e-91
2.21566e-93
1.22819e-95
6.76808e-98
3.70867e-100
2.02125e-102
1.09588e-104
5.94359e-107
1.18096e-88
6.80575e-91
3.89063e-93
2.20747e-95
1.24368e-97
6.9605e-100
3.87129e-102
2.14042e-104
1.1768e-106
6.4705e-109
9.54352e-91
5.61342e-93
3.27274e-95
1.89233e-97
1.08568e-99
6.18329e-102
3.49733e-104
1.96525e-106
1.09753e-108
6.12717e-111
5.00481e-87
2.85154e-89
1.61454e-91
9.08412e-94
5.07922e-96
2.82243e-98
1.55888e-100
8.55896e-103
4.67215e-105
2.54981e-107
5.81078e-89
3.35851e-91
1.9267e-93
1.09758e-95
6.21124e-98
3.49284e-100
1.95236e-102
1.08499e-104
5.99611e-107
3.31396e-109
5.60603e-91
3.30103e-93
1.92731e-95
1.11634e-97
6.41802e-100
3.66398e-102
2.07789e-104
1.17101e-106
6.56005e-109
3.67434e-111
4.62928e-93
2.7809e-95
1.65514e-97
9.76581e-100
5.71512e-102
3.3189e-104
1.91338e-106
1.09552e-108
6.2317e-111
3.54274e-113
)
;

boundaryField
{
    inlet
    {
        type            zeroGradient;
    }
    outlet
    {
        type            zeroGradient;
    }
    bottom
    {
        type            fixedValue;
        value           uniform 0;
    }
    top
    {
        type            symmetryPlane;
    }
    side1
    {
        type            symmetryPlane;
    }
    side2
    {
        type            symmetryPlane;
    }
    procBoundary15to7
    {
        type            processor;
        value           nonuniform List<scalar> 
50
(
1.12496e-76
5.72814e-79
2.90024e-81
1.46058e-83
7.31822e-86
3.64913e-88
1.81126e-90
8.95114e-93
4.40531e-95
2.17008e-97
1.83903e-78
9.59595e-81
4.97591e-83
2.56497e-85
1.31476e-87
6.70334e-90
3.40039e-92
1.7166e-94
8.62605e-97
4.33723e-99
1.54906e-80
8.27924e-83
4.39494e-85
2.31796e-87
1.21504e-89
6.332e-92
3.28155e-94
1.6917e-96
8.67729e-99
4.45209e-101
8.92297e-83
4.88232e-85
2.65184e-87
1.43033e-89
7.66374e-92
4.08043e-94
2.15956e-96
1.13642e-98
5.94773e-101
3.1128e-103
3.96317e-85
2.21901e-87
1.2327e-89
6.79684e-92
3.72108e-94
2.02347e-96
1.09327e-98
5.87077e-101
3.13419e-103
1.67271e-105
)
;
    }
    procBoundary15to14
    {
        type            processor;
        value           nonuniform List<scalar> 
20
(
2.79333e-76
2.79732e-78
2.34582e-80
1.70248e-82
4.56443e-78
4.68292e-80
4.02145e-82
2.98727e-84
3.84311e-80
4.03766e-82
3.54915e-84
2.69741e-86
2.21284e-82
2.37951e-84
2.1399e-86
1.66317e-88
9.8246e-85
1.08082e-86
9.94004e-89
7.89732e-91
)
;
    }
    procBoundary15to23
    {
        type            processor;
        value           nonuniform List<scalar> 
50
(
4.93751e-87
2.79005e-89
1.56706e-91
8.74522e-94
4.84852e-96
2.67064e-98
1.46167e-100
7.95061e-103
4.29904e-105
2.32376e-107
9.05153e-89
5.22746e-91
2.99935e-93
1.70914e-95
9.67153e-98
5.43498e-100
3.03358e-102
1.68213e-104
9.26881e-107
5.10415e-109
8.53319e-91
5.03498e-93
2.95024e-95
1.71611e-97
9.9087e-100
5.67938e-102
3.232e-104
1.82654e-106
1.02539e-108
5.75149e-111
5.48841e-93
3.30725e-95
1.97823e-97
1.17417e-99
6.91512e-102
4.04122e-104
2.34396e-106
1.34965e-108
7.71691e-111
4.40752e-113
2.71665e-95
1.67125e-97
1.02014e-99
6.17663e-102
3.70927e-104
2.20958e-106
1.30587e-108
7.65901e-111
4.45919e-113
2.59281e-115
)
;
    }
}


// ************************************************************************* //
