/*--------------------------------*- C++ -*----------------------------------*\
| =========                 |                                                 |
| \\      /  F ield         | OpenFOAM: The Open Source CFD Toolbox           |
|  \\    /   O peration     | Version:  2.4.0                                 |
|   \\  /    A nd           | Web:      www.OpenFOAM.org                      |
|    \\/     M anipulation  |                                                 |
\*---------------------------------------------------------------------------*/
FoamFile
{
    version     2.0;
    format      ascii;
    class       volSymmTensorField;
    location    "0.1";
    object      B;
}
// * * * * * * * * * * * * * * * * * * * * * * * * * * * * * * * * * * * * * //

dimensions      [0 2 -2 0 0 0 0];

internalField   nonuniform List<symmTensor> 
200
(
(1.42988e+13 4.69715e+12 1.08567e+12 1.0473e+13 1.99118e+12 1.30388e+13)
(1.70329e+12 1.11745e+11 -1.54185e+11 1.77876e+12 5.74436e+11 1.75431e+12)
(1.48794e+12 1.1537e+10 2.27677e+11 4.01435e+11 8.62338e+11 1.28563e+12)
(1.49762e+12 -1.90901e+11 2.41332e+11 1.52933e+12 5.951e+11 1.59076e+12)
(1.68455e+12 9.93049e+10 1.00921e+11 1.28348e+12 3.87075e+11 1.60149e+12)
(1.26793e+12 -1.34371e+11 2.22265e+11 1.12659e+12 5.93356e+11 1.2706e+12)
(1.49825e+12 1.81124e+11 -3.6201e+11 1.82788e+12 5.98327e+11 1.73855e+12)
(1.44322e+12 1.88787e+11 1.721e+11 8.42885e+11 -7.28343e+09 1.42864e+12)
(1.92722e+12 -3.61063e+11 -2.42157e+11 1.31304e+12 2.98526e+11 1.66649e+12)
(6.44857e+12 9.47956e+11 1.255e+11 5.49514e+12 8.55385e+10 4.66049e+12)
(1.01937e+13 4.0423e+12 6.10882e+11 9.54972e+12 1.31796e+12 9.93151e+12)
(2.34405e+12 -9.9115e+09 4.19925e+11 3.91201e+11 7.6784e+11 2.06993e+12)
(1.25733e+12 -1.19634e+11 9.73332e+10 8.83555e+11 4.86051e+11 1.2534e+12)
(2.02868e+12 1.29681e+11 1.19757e+11 1.28178e+12 3.89202e+11 1.88312e+12)
(1.01587e+12 -1.64016e+11 2.2319e+11 6.72465e+11 4.30204e+11 1.09751e+12)
(3.03193e+12 4.84086e+11 -4.34204e+11 3.58015e+12 6.87222e+11 3.36058e+12)
(4.61984e+12 -1.2932e+11 3.59326e+11 3.25283e+12 -1.45585e+11 4.61467e+12)
(1.93975e+12 -5.41138e+11 -2.99868e+11 1.1886e+12 2.86326e+11 1.71304e+12)
(8.4489e+12 1.15309e+12 -1.17628e+11 7.91026e+12 -1.6972e+11 7.28703e+12)
(8.84052e+12 -4.41432e+11 1.03381e+12 6.96187e+12 8.4576e+11 7.11704e+12)
(6.50111e+12 1.96429e+12 1.10294e+12 3.65129e+12 7.21241e+11 6.26057e+12)
(7.84974e+11 -5.85424e+10 -8.72263e+09 5.01135e+11 2.44696e+11 8.84809e+11)
(2.34392e+12 1.90986e+11 1.79139e+11 1.04302e+12 4.09391e+11 2.13775e+12)
(1.12468e+12 -1.90971e+11 1.93804e+11 6.66822e+11 2.40406e+11 1.21201e+12)
(6.3284e+12 9.99163e+11 -4.65008e+11 6.97518e+12 6.76891e+11 6.68037e+12)
(1.01331e+13 -5.48791e+11 5.76362e+11 8.06243e+12 -1.59043e+11 9.90804e+12)
(1.44612e+12 -9.1503e+11 -3.58771e+11 1.72359e+11 2.95197e+11 1.31362e+12)
(1.55824e+13 2.36849e+12 -5.73806e+11 1.55798e+13 -5.87255e+11 1.45535e+13)
(1.04056e+13 -6.34746e+11 1.14966e+12 7.83174e+12 9.70006e+11 8.25866e+12)
(6.92952e+12 1.51507e+12 1.41489e+12 4.40068e+12 -8.8086e+10 3.81472e+12)
(3.40693e+12 6.78416e+11 9.28572e+11 2.02207e+12 4.63651e+11 3.47251e+12)
(1.37906e+12 9.91759e+10 9.49393e+10 3.33558e+11 -2.16387e+09 1.46485e+12)
(1.92325e+12 -2.09405e+11 1.8638e+11 1.13671e+12 2.30689e+11 1.96617e+12)
(5.35022e+12 1.00594e+12 -2.25028e+11 4.5669e+12 3.60206e+11 5.34067e+12)
(1.44809e+13 -1.15696e+12 7.87075e+11 1.15938e+13 -2.62573e+11 1.38793e+13)
(5.15945e+11 -3.93227e+11 -2.57485e+11 3.07172e+10 6.79266e+11 1.18174e+12)
(1.21973e+13 3.20779e+12 -1.48395e+12 1.05475e+13 -1.40545e+12 1.10492e+13)
(1.16291e+13 -7.96662e+11 9.74152e+11 8.82528e+12 5.26618e+11 9.46517e+12)
(7.22795e+12 1.10156e+12 1.85227e+12 3.17059e+12 7.1542e+11 3.46164e+12)
(9.10292e+12 -2.378e+11 4.3156e+12 5.42293e+12 -3.90726e+11 6.1913e+12)
(1.31718e+13 5.27448e+12 -3.00085e+11 1.34537e+13 -3.02051e+10 1.23388e+13)
(2.10513e+12 -1.18677e+11 2.41724e+11 5.61617e+11 1.75777e+11 1.29943e+12)
(6.4403e+11 -1.69543e+11 2.2336e+10 3.76959e+11 5.12661e+10 3.57604e+11)
(8.74989e+11 2.38367e+11 -6.4244e+10 4.70303e+11 2.52548e+10 6.84775e+11)
(-3.6407e+10 -6.68553e+10 -4.37638e+09 1.02905e+10 2.85291e+10 -2.30974e+10)
(8.42814e+12 5.88877e+11 -3.64219e+11 9.95922e+12 4.02797e+11 9.34023e+12)
(2.39845e+13 -3.03727e+11 2.52798e+11 2.31028e+13 -8.99354e+10 2.39233e+13)
(2.97516e+12 -9.34839e+11 -2.05202e+11 2.34386e+12 3.38573e+11 3.68142e+12)
(5.59508e+12 3.30443e+12 -1.86888e+12 8.82416e+12 -1.78782e+12 9.49016e+12)
(7.93494e+12 -1.04406e+12 -1.11507e+12 6.51055e+12 -1.95607e+11 8.23422e+12)
(9.45224e+12 3.10159e+12 7.76376e+11 5.70915e+12 2.7839e+11 8.11423e+12)
(4.63667e+11 -2.18298e+11 -7.42441e+10 1.70997e+11 6.10359e+10 2.50855e+11)
(1.50345e+12 3.3872e+11 -2.11379e+10 5.84404e+11 8.92536e+10 1.09234e+12)
(5.80173e+10 -1.00721e+11 3.8522e+10 -7.77017e+10 2.55219e+10 6.9206e+10)
(1.23307e+13 1.11301e+12 -4.16049e+11 1.40397e+13 4.00967e+11 1.33168e+13)
(4.4385e+13 -2.81796e+11 2.01935e+11 4.37592e+13 -4.95614e+10 4.42789e+13)
(3.63963e+12 -1.66963e+12 -3.06684e+11 1.91936e+12 1.97552e+11 4.07761e+12)
(7.99741e+12 5.66192e+12 -3.28699e+12 1.35621e+13 -2.61721e+12 1.47375e+13)
(6.93811e+12 -1.07849e+12 -1.03177e+12 5.70035e+12 -1.76918e+11 7.44226e+12)
(1.36375e+13 4.24472e+12 -1.95566e+12 1.45244e+13 -9.74154e+11 1.23744e+13)
(4.55032e+12 1.28646e+12 9.23686e+11 3.00997e+12 1.41999e+11 3.54763e+12)
(1.89125e+12 3.25967e+11 -2.2399e+10 8.36656e+11 1.34282e+11 1.44733e+12)
(6.94453e+11 -2.13762e+11 4.94218e+10 9.59152e+10 4.54225e+10 5.2092e+11)
(1.292e+13 1.64788e+12 -4.26201e+11 1.41486e+13 4.23913e+11 1.36487e+13)
(5.09596e+13 -1.03363e+12 6.55959e+11 4.90955e+13 -1.5177e+11 5.0435e+13)
(1.84904e+12 -1.1341e+12 -7.82758e+11 -1.62404e+12 2.57646e+11 2.11333e+12)
(8.18548e+12 5.73909e+12 -4.00928e+12 1.7958e+13 -3.36882e+12 1.68973e+13)
(4.16002e+12 -9.04177e+11 -7.12852e+11 3.50726e+12 -7.87062e+10 4.74798e+12)
(1.52617e+13 4.732e+12 -2.65905e+12 1.79529e+13 -1.57002e+12 1.50308e+13)
(7.31638e+12 -1.22045e+12 9.75405e+11 3.33962e+12 8.66317e+11 3.02184e+12)
(4.24995e+12 7.83613e+11 1.13677e+12 2.23523e+12 -1.55122e+11 3.39412e+12)
(1.42949e+12 -1.72167e+11 4.09491e+10 9.18235e+11 8.06019e+10 1.25493e+12)
(7.52461e+12 1.05043e+12 -1.64459e+11 6.86462e+12 1.4216e+11 7.3233e+12)
(3.28642e+13 -1.96902e+12 9.72061e+11 2.95075e+13 -3.84657e+11 3.16662e+13)
(7.4686e+11 1.20101e+12 -6.08267e+11 3.84685e+11 8.85519e+11 1.58342e+12)
(4.69008e+12 -2.03118e+11 -1.93365e+12 1.48019e+13 -3.95551e+12 1.11057e+13)
(1.40605e+12 -1.52359e+11 -5.897e+11 1.68533e+12 4.35494e+11 2.12745e+12)
(1.48021e+13 3.3241e+12 -3.08833e+12 1.50047e+13 -2.17579e+12 1.54257e+13)
(7.95654e+12 -1.37071e+12 3.49799e+11 4.70907e+12 5.38438e+11 4.7913e+12)
(5.41873e+12 1.15131e+12 -1.59438e+10 2.82248e+12 1.13277e+12 2.6008e+12)
(1.26142e+13 4.7467e+12 -1.22959e+11 8.41707e+12 7.87515e+11 1.05146e+13)
(2.18662e+11 -1.07307e+11 -4.57142e+10 2.91659e+11 1.16803e+10 2.95762e+11)
(7.8264e+11 1.10917e+11 1.4721e+11 3.31774e+11 2.64101e+11 6.1157e+11)
(8.03444e+09 -2.18547e+10 3.21736e+10 7.36107e+10 7.1152e+10 1.70941e+11)
(1.83924e+13 1.16037e+12 7.68543e+10 2.07383e+13 3.71169e+11 2.00148e+13)
(6.78514e+13 -9.84081e+11 7.25903e+11 6.57328e+13 3.41183e+10 6.728e+13)
(9.22767e+12 -1.95575e+12 1.5476e+11 1.81794e+12 -6.4596e+11 7.8476e+12)
(5.58545e+12 1.23837e+13 -6.59418e+12 1.74146e+13 1.48123e+12 1.35505e+13)
(6.37663e+12 -1.15998e+12 -7.74214e+11 3.21041e+12 -7.75656e+11 6.55977e+12)
(1.07269e+13 5.39805e+12 -4.38525e+12 1.50644e+13 -8.65976e+10 9.80324e+12)
(7.1433e+12 2.8406e+12 6.59109e+11 5.65398e+12 7.99949e+10 6.01215e+12)
(1.35428e+12 3.28694e+11 5.73597e+10 5.33132e+11 3.62293e+11 9.43183e+11)
(3.01202e+11 -1.04557e+11 3.94646e+10 4.4579e+10 5.94392e+10 2.99321e+11)
(1.22996e+13 1.39883e+12 1.34749e+10 1.43307e+13 4.10995e+11 1.37546e+13)
(6.8593e+13 -1.00607e+12 6.74337e+11 6.66953e+13 -1.1273e+10 6.79552e+13)
(6.06898e+12 -1.18345e+12 1.06642e+11 -5.10452e+11 -1.46695e+12 5.17068e+12)
(8.44883e+11 8.15163e+12 -5.24632e+12 1.57892e+13 1.71737e+12 7.48375e+12)
(4.00585e+12 -4.92475e+11 -1.56856e+11 1.77177e+12 -5.98575e+11 4.34061e+12)
(2.39493e+13 7.74455e+12 -6.22784e+12 2.94156e+13 8.47673e+11 2.11556e+13)
(1.63295e+13 -1.53483e+12 -2.20088e+12 1.36706e+13 -1.80059e+12 1.56975e+13)
(7.9007e+12 2.13553e+12 1.01627e+12 5.86973e+12 6.37322e+11 6.54244e+12)
(6.96234e+11 -1.89187e+11 2.49714e+10 4.71788e+10 3.5166e+10 5.44149e+11)
(7.59009e+12 1.64553e+12 -5.22701e+10 8.63223e+12 4.81828e+11 8.48566e+12)
(4.71337e+13 -1.36236e+12 8.4023e+11 4.48394e+13 -1.559e+11 4.63288e+13)
(2.76669e+12 1.59753e+11 -3.8732e+11 -2.11087e+12 -1.09591e+12 2.3962e+12)
(1.07592e+12 1.82282e+11 -1.3724e+12 1.27473e+13 6.62886e+10 4.97332e+12)
(2.11488e+12 -2.25857e+11 -6.11324e+10 1.23428e+12 -4.47158e+11 2.44421e+12)
(2.36832e+13 5.42314e+12 -5.00941e+12 2.62592e+13 1.63803e+12 2.00891e+13)
(1.71191e+13 -1.41309e+12 -1.67523e+12 1.54586e+13 -1.30796e+12 1.69983e+13)
(6.37152e+12 2.84702e+12 7.96009e+11 9.86411e+12 3.13558e+11 7.27283e+12)
(6.43415e+12 4.30839e+11 1.37921e+12 3.82298e+12 1.19329e+11 5.16952e+12)
(3.80722e+12 5.5667e+11 -3.91973e+09 3.34694e+12 1.17724e+11 3.6854e+12)
(2.31866e+13 -2.09174e+12 9.66524e+11 1.96982e+13 -4.6211e+11 2.20763e+13)
(1.03043e+12 1.18471e+12 -5.57258e+11 1.39725e+11 5.86579e+10 1.18943e+12)
(5.7412e+12 -3.01848e+12 -3.02443e+11 1.32801e+13 -1.33685e+12 8.50875e+12)
(1.0862e+12 3.00215e+11 -2.50041e+11 1.42909e+12 1.54807e+11 1.55928e+12)
(7.10474e+12 1.56848e+12 -2.43949e+12 8.21183e+12 1.33575e+12 3.57482e+12)
(6.11046e+12 -4.26053e+11 -6.95019e+11 5.23737e+12 -6.20355e+11 6.26376e+12)
(1.0164e+13 3.4198e+12 -9.66378e+11 8.0333e+12 -1.60485e+11 9.85909e+12)
(9.99879e+12 -7.20952e+11 2.63618e+12 5.21588e+12 9.50751e+11 8.33552e+12)
(1.15785e+13 5.61527e+12 -3.23965e+11 1.1039e+13 -1.07923e+11 1.05598e+13)
(1.64673e+12 1.73721e+11 3.12219e+11 8.46076e+11 4.31529e+11 9.88107e+11)
(2.80569e+10 -8.66409e+10 4.3749e+10 -3.50216e+09 -1.09277e+10 1.6263e+11)
(6.0439e+12 8.51902e+11 4.73303e+11 7.50556e+12 4.79277e+11 7.08745e+12)
(4.09342e+13 -5.32216e+11 3.57238e+11 3.98508e+13 -3.13452e+10 4.05724e+13)
(6.23952e+12 1.2396e+11 9.76551e+11 2.61095e+12 -1.14694e+12 5.11785e+12)
(1.20416e+13 9.71975e+12 -2.82333e+12 1.94495e+13 4.64719e+12 1.18088e+13)
(4.57309e+12 -4.9045e+11 1.29947e+12 2.47774e+12 -2.93652e+11 4.90613e+12)
(3.47526e+13 5.88927e+12 -4.84816e+12 4.27366e+13 -1.03234e+11 3.18549e+13)
(1.82331e+13 -1.209e+12 -1.39995e+12 1.47564e+13 -1.53817e+12 1.593e+13)
(1.30171e+13 4.4781e+12 5.28761e+11 1.06121e+13 1.07006e+12 1.08701e+13)
(1.64724e+11 -8.29916e+10 1.98666e+10 5.60567e+10 7.48987e+09 1.4738e+11)
(6.24903e+12 8.68818e+11 4.90786e+11 7.14697e+12 5.72532e+11 7.09614e+12)
(3.18664e+13 -3.24404e+11 2.24005e+11 3.11612e+13 -4.2332e+10 3.16434e+13)
(5.29235e+12 -1.44139e+11 5.69527e+11 1.58447e+12 -1.28284e+12 3.33265e+12)
(6.44941e+12 5.54831e+12 -9.39637e+11 1.25503e+13 5.05453e+12 4.44028e+12)
(2.99832e+12 -2.09968e+11 1.07555e+12 1.24955e+12 -2.5228e+11 3.35205e+12)
(7.04085e+13 8.58829e+12 -7.24036e+12 7.96587e+13 1.27125e+12 6.45036e+13)
(1.94949e+13 -1.79929e+12 -1.16291e+12 1.518e+13 -1.81554e+12 1.77294e+13)
(1.71142e+13 -6.84886e+12 7.45939e+12 1.12281e+13 1.76797e+12 1.77815e+13)
(6.8292e+12 1.95218e+12 7.8481e+11 4.84368e+12 5.15388e+10 5.69928e+12)
(3.56148e+12 8.78043e+11 3.32912e+11 3.75754e+12 4.80498e+11 3.84168e+12)
(3.00894e+13 -1.07475e+12 7.02598e+11 2.78915e+13 -1.87511e+11 2.94235e+13)
(2.5098e+12 -1.12084e+11 8.35678e+10 -3.04285e+11 -7.41833e+11 1.29219e+12)
(1.70215e+12 5.21504e+11 1.23653e+12 4.56854e+12 2.22442e+12 8.42652e+11)
(1.2062e+12 -3.46652e+11 4.87766e+11 6.22108e+11 -1.92656e+11 1.45185e+12)
(1.04664e+14 7.13529e+12 -5.23445e+12 1.10362e+14 1.35993e+12 1.01398e+14)
(2.7233e+13 -1.00211e+12 4.93581e+10 2.3487e+13 -1.60919e+12 2.57427e+13)
(2.64177e+13 -9.49432e+12 1.15687e+13 1.01114e+13 7.09809e+12 2.15183e+13)
(1.60424e+11 1.14165e+12 -7.27787e+11 2.38754e+12 -3.27517e+11 6.12549e+11)
(1.20336e+13 1.90172e+12 1.26098e+12 9.32396e+12 4.63621e+11 1.05125e+13)
(1.92741e+13 -1.80211e+12 7.78635e+11 1.68356e+13 -2.40628e+11 1.84185e+13)
(7.00023e+11 8.9706e+11 -9.79983e+10 8.55296e+11 1.71381e+11 5.07577e+11)
(-4.04715e+11 -4.84225e+11 4.80986e+11 4.235e+12 -3.53836e+11 1.71353e+12)
(5.00701e+11 5.61439e+10 1.45567e+11 5.2362e+11 1.19258e+11 5.8031e+11)
(4.70439e+13 4.41276e+12 -2.64265e+12 4.58679e+13 1.98699e+12 4.26363e+13)
(5.6198e+13 -6.72771e+11 3.78525e+11 5.34034e+13 -1.20627e+12 5.52084e+13)
(2.40514e+13 -4.72702e+12 6.13153e+12 1.15626e+13 7.36307e+12 1.86392e+13)
(8.06111e+12 4.67183e+12 3.6032e+12 8.09161e+12 -2.55662e+12 1.34347e+13)
(1.25683e+13 -8.53993e+11 4.44659e+12 1.11879e+13 -5.71446e+10 1.67067e+13)
(1.63222e+13 4.65919e+12 -8.89904e+11 1.43173e+13 9.29351e+11 1.5971e+13)
(3.34421e+11 -7.95775e+10 4.67052e+10 7.18087e+11 -1.03915e+11 7.41414e+11)
(8.28561e+12 2.74804e+11 5.81458e+11 8.43493e+12 4.86696e+11 8.06188e+12)
(1.59836e+13 -3.58306e+11 2.08146e+11 1.47153e+13 1.02173e+11 1.5213e+13)
(2.07762e+13 7.2475e+11 1.7205e+12 1.61852e+13 -1.40201e+12 1.43002e+13)
(2.06548e+13 4.82944e+12 -5.72823e+11 2.0769e+13 1.8222e+12 1.64992e+13)
(5.30313e+12 4.68044e+11 2.24364e+12 3.13677e+12 3.70893e+11 5.40956e+11)
(6.16674e+13 4.89787e+12 -5.06852e+12 7.29178e+13 -4.05024e+12 5.94691e+13)
(3.36336e+13 -3.457e+12 -4.08657e+12 2.57273e+13 4.05578e+11 3.12008e+13)
(4.56964e+13 -9.9765e+12 1.03043e+13 3.84122e+13 -3.54433e+12 4.8319e+13)
(7.19e+12 4.69656e+12 -8.07142e+11 6.64104e+12 -7.57695e+11 7.50831e+12)
(9.14075e+12 6.40029e+11 7.78109e+11 9.01785e+12 5.63194e+11 8.90187e+12)
(2.73595e+13 -5.72379e+11 3.21559e+11 2.5494e+13 1.90384e+11 2.61179e+13)
(1.32977e+13 -1.43286e+11 3.63614e+10 8.43196e+12 -2.06843e+12 6.81711e+12)
(1.86242e+13 6.5359e+12 -7.52648e+11 2.1428e+13 1.96238e+12 1.57996e+13)
(3.20157e+12 6.28534e+11 3.04216e+12 1.61494e+12 -6.19404e+11 -2.446e+11)
(1.24378e+14 1.16706e+13 -1.11306e+13 1.38122e+14 -3.39126e+12 1.22641e+14)
(4.51042e+13 -2.7245e+12 -1.05795e+12 3.48674e+13 1.13396e+12 4.34696e+13)
(8.35244e+13 -2.03428e+13 2.29314e+13 7.11807e+13 -6.16735e+12 8.26885e+13)
(1.58509e+13 -9.53661e+11 -1.28751e+13 1.5125e+13 9.03969e+11 1.91317e+13)
(1.45702e+13 4.79743e+12 1.53531e+12 1.40262e+13 1.48465e+12 1.36587e+13)
(3.75279e+13 -7.97426e+11 3.92189e+11 3.55737e+13 1.12662e+11 3.61232e+13)
(1.19379e+13 4.52148e+11 6.68606e+11 5.95635e+12 -2.5453e+12 5.30133e+12)
(9.8896e+12 4.14712e+12 -8.56255e+11 1.15376e+13 1.80372e+12 6.1295e+12)
(1.7901e+12 2.21e+11 1.32916e+12 5.66442e+11 -4.59541e+11 -4.25929e+11)
(1.53332e+14 1.13261e+13 -7.35473e+12 1.63335e+14 -2.01077e+12 1.52406e+14)
(9.90376e+13 -2.99521e+12 1.90368e+11 9.0147e+13 1.06168e+12 9.62554e+13)
(4.73475e+13 -1.76145e+13 2.17054e+13 1.81925e+13 -7.60701e+12 4.51334e+13)
(2.1737e+13 1.33391e+13 -1.65702e+13 2.6821e+13 5.7893e+12 2.95078e+13)
(1.7976e+13 -4.16746e+12 8.33449e+12 1.84771e+13 -2.4678e+12 2.71625e+13)
(1.8157e+13 -2.1915e+11 1.46374e+12 1.28398e+13 6.05206e+10 1.43717e+13)
(5.04287e+12 9.90023e+11 2.88616e+11 2.78145e+12 -5.19849e+11 1.85254e+12)
(5.82782e+12 -4.89955e+11 1.27294e+11 6.62811e+12 3.66183e+11 1.99811e+12)
(3.16145e+12 3.14423e+11 5.60895e+11 1.52808e+12 -7.34516e+10 1.15014e+12)
(8.785e+13 5.03192e+12 -3.04195e+12 8.51991e+13 2.38295e+11 8.48815e+13)
(1.58198e+14 -5.21299e+12 1.24903e+12 1.4648e+14 -1.87445e+11 1.53663e+14)
(2.55622e+13 -6.88887e+12 1.52692e+13 2.28815e+13 -3.94973e+12 2.53129e+13)
(1.61404e+13 2.02674e+13 -4.40913e+12 3.90836e+13 5.03211e+12 2.72808e+13)
(1.66534e+13 -2.55191e+12 6.94782e+12 1.41345e+13 -2.22302e+12 1.49592e+13)
(2.93089e+13 -1.22323e+12 -7.86865e+12 3.40715e+13 6.81081e+12 2.75361e+13)
)
;

boundaryField
{
    inlet
    {
        type            calculated;
        value           nonuniform List<symmTensor> 
20
(
(36737.1 443910 94274.8 -84396.2 71828.7 8159.05)
(74113.7 102516 34566.9 -2800.27 45582.5 10404.4)
(21607.3 431513 63302.3 -86418 32904.6 32623)
(99957.6 -237313 152228 -46921.9 25424.6 32614)
(56067 196393 -36013.3 25110.7 -973.876 -10836.6)
(39529.7 536660 37638.4 -98251.2 12145 6672.61)
(120508 -194354 152922 -26732.4 6985.66 -282.333)
(47577.7 421145 62383.6 -57711.4 -8554.34 6196.87)
(98649.9 539529 18783 -82403.5 27869 -8176.48)
(104268 -46029.5 75526.1 -13940.9 3019.52 -421.29)
(69873.3 477948 54474.8 -41359.9 31545.7 -8062.79)
(103002 -207600 193301 -67089.2 6625.01 7669.26)
(-8248.17 159056 -86402.1 7830.5 -3046.89 -5696.88)
(108486 521541 28869.5 -34354.2 40205.1 -24657.9)
(82897.1 35335.5 99125.1 -53407.7 2853.87 -6030.73)
(231296 311489 111486 -82468.4 29538.7 -6742.84)
(210244 474017 -6629.86 -54226.7 39776.8 16550.9)
(-21039.3 156812 -90037.8 -18623 -23261.3 8002.17)
(61949.1 398397 16529 -4179.23 56834.5 -18247.2)
(106536 152150 138097 -134947 3761.48 -39737.3)
)
;
    }
    outlet
    {
        type            calculated;
        value           nonuniform 0();
    }
    bottom
    {
        type            calculated;
        value           nonuniform List<symmTensor> 
40
(
(53613 169442 41278.7 -84396.2 159731 56656.1)
(19471.5 139805 28268.7 -2800.27 28219.5 18829.8)
(43597 89615.2 48143.4 -86418 148885 36094.3)
(29018.2 37201.4 60774 -46921.9 -64601.4 91540.5)
(1528.1 10876.4 5505.81 8873.31 70533.9 32190.6)
(36181.4 -568.509 15909.2 -75830.8 152333 22891.5)
(10971.6 -6806.31 13933.8 -22028.3 -24651.6 75824.1)
(26517.5 9476.44 4476.04 -73382.5 105176 21348.9)
(20837.7 695.024 6742.37 -44616.5 153859 1000.86)
(14464.3 -10901.3 30335.8 -19594.4 35618.8 57129.4)
(42373.7 16408 10651.3 -69389.8 132732 11249.1)
(29118.9 -23024.2 36372.5 -57362.2 -36130.7 96435.8)
(-1293.58 -17315.3 48525.9 1582.86 77828.6 32308.6)
(35076.6 16706.7 7513.72 -61145.9 137123 13247.2)
(13165.6 -22809.1 54146.5 -41519.3 878.601 76869)
(24371 106788 -19936.1 -58783.8 67298.2 31800.9)
(21167.6 15304.7 3773.05 -40644.3 132270 20336.8)
(7231.69 -15492.6 58911.3 -25205.5 49748.5 51840)
(-23494.9 92485.7 -31168.4 36372.8 79408.1 20726.8)
(107818 -102819 72075.4 -148762 89951.6 -5197.57)
(6213.89 -11061.9 55822.9 -5421.2 85911 27024.6)
(-30661 48503.3 -32071.4 24268.1 87711.4 20234.2)
(89015.8 -59475.9 52314 -135400 131761 -47206.5)
(-12481 -22579.4 42141.1 -40343.2 -38565.1 93430.4)
(-25447.4 19031.6 -32361.6 9187.7 88605.1 24841)
(55993.3 -14546.9 36366.9 -97777.9 126973 -63711.7)
(15305.8 -56269.1 28704.5 -63022.9 -31784.6 62333.8)
(49156.7 126984 -47786.2 -16151.8 4208.7 -120103)
(28406.3 19524.4 24018.5 -33680.4 114258 -78305.1)
(24492.3 -58398.8 1898.75 -56570.8 35734.5 18768.1)
(45815.3 147158 -20549.5 45650.9 16678.2 -160687)
(142422 -75637 179668 -123780 116393 -125092)
(29099.7 -51372.6 -16701 -58287.2 85905.5 -10404.4)
(67501.5 101226 14658 20215.8 24570.1 -181828)
(118583 -55594.4 173350 -106848 171366 -102133)
(84215.9 31108.4 129393 -30364.9 -63817.9 32000.6)
(81014.4 68024.4 41782.8 12597.6 31622 -188868)
(101435 -43627.5 165044 -84236 182086 -75239.5)
(75291.6 47952 116329 -4746.21 -71822.6 15859.3)
(62666.3 -7822.07 249782 -58381.6 107395 -123201)
)
;
    }
    top
    {
        type            symmetryPlane;
    }
    side1
    {
        type            symmetryPlane;
    }
    side2
    {
        type            symmetryPlane;
    }
    procBoundary24to16
    {
        type            processor;
        value           nonuniform List<symmTensor> 
50
(
(5.20886e+10 7.25462e+12 -7.71516e+11 5.29773e+11 2.14227e+12 -2.19631e+11)
(5.33871e+11 -3.38563e+11 5.26907e+11 -5.79069e+11 8.0174e+11 -1.0676e+11)
(3.96346e+10 -6.18116e+08 -1.82063e+10 1.89052e+11 5.87399e+11 -1.37803e+09)
(9.36796e+10 8.45458e+10 -1.4561e+09 -2.83616e+11 6.2287e+11 -1.10908e+10)
(3.09214e+10 -1.11153e+11 2.97808e+11 9.26066e+10 6.47432e+11 5.03309e+09)
(4.76057e+10 8.5737e+10 1.15294e+11 -1.30957e+11 4.91017e+11 3.50896e+09)
(6.51271e+10 -5.22176e+10 2.11195e+11 1.10434e+11 7.39633e+11 -1.82053e+10)
(-2.18761e+11 7.55222e+10 -3.3307e+11 -2.06708e+10 5.7915e+11 -1.38015e+10)
(1.27717e+11 4.71433e+11 5.73701e+10 1.75071e+11 6.70322e+10 1.06897e+11)
(2.03296e+11 -2.78862e+11 -2.23253e+11 -4.34606e+11 3.42705e+11 -1.09915e+11)
(1.28507e+12 5.07943e+12 -4.30898e+10 -1.72453e+12 2.13605e+11 -1.08645e+11)
(-6.10098e+10 2.23137e+10 -1.79043e+11 1.47246e+11 -1.75741e+10 -2.6172e+10)
(4.00013e+11 -1.12314e+11 1.9605e+11 -4.11479e+11 1.05278e+11 -1.53707e+11)
(1.00708e+11 -8.63324e+10 1.05734e+11 2.39751e+09 5.73502e+10 -4.75181e+10)
(6.78626e+10 1.83452e+11 -6.83266e+10 -6.1793e+10 -4.38738e+09 2.3101e+08)
(-5.17029e+10 -1.35091e+10 -4.19666e+10 7.25852e+10 2.55408e+10 -8.21168e+10)
(-4.91249e+11 2.78005e+11 -2.54394e+11 4.65863e+11 3.69121e+11 2.03728e+11)
(3.17619e+11 -3.65145e+11 3.10687e+11 -6.51375e+11 -1.40596e+11 2.82995e+11)
(-1.66681e+11 -4.42472e+11 -2.65675e+11 -3.5564e+11 3.51931e+11 8.28645e+11)
(-1.17642e+12 2.11586e+12 -1.00748e+12 3.92919e+11 -8.25263e+11 5.88354e+11)
(5.6535e+11 6.5561e+12 -1.3051e+12 9.25298e+11 9.32566e+10 -4.80721e+11)
(4.35416e+11 -1.60991e+11 1.75604e+11 -5.54019e+11 1.90249e+11 -6.3754e+10)
(-3.77441e+10 -4.6103e+10 -1.00634e+11 7.48607e+10 -4.90671e+09 1.32702e+11)
(6.09243e+10 3.76952e+10 7.01889e+10 -1.36565e+11 1.42733e+11 5.64492e+10)
(-1.28755e+11 -2.93124e+10 5.95602e+09 2.12578e+10 7.79908e+10 6.14001e+10)
(-1.35256e+12 1.03668e+12 1.42066e+11 1.23155e+12 4.17143e+11 3.40923e+11)
(6.32632e+11 -6.87431e+11 5.40612e+11 -1.10084e+12 1.00966e+11 2.67342e+11)
(2.85608e+12 -2.13186e+12 3.70407e+11 -2.77424e+12 1.09144e+10 2.1675e+12)
(-4.75826e+12 8.60198e+12 -4.34753e+12 1.67931e+12 1.01459e+12 3.04666e+11)
(1.3473e+12 -1.62586e+12 -1.70569e+12 -2.00654e+12 -8.75977e+11 1.6238e+12)
(1.50138e+12 5.54208e+12 -1.15105e+12 -1.93101e+12 7.42667e+11 -1.98104e+11)
(-1.43473e+11 -1.82563e+10 3.00579e+10 1.11975e+11 -2.75823e+10 2.91359e+10)
(1.55152e+11 2.11065e+09 2.53637e+11 -1.66638e+11 2.42151e+11 -7.00278e+10)
(-2.33026e+11 3.98355e+09 2.16806e+10 -8.33647e+09 8.28703e+09 1.39895e+11)
(-7.66016e+11 7.31242e+11 3.01954e+11 6.80485e+11 3.47735e+11 1.23128e+11)
(4.67683e+11 -4.29649e+11 3.36547e+11 -7.43275e+11 9.87709e+10 1.14633e+11)
(1.89768e+12 -1.45123e+10 1.54876e+12 -1.70712e+12 -1.21021e+12 5.3045e+11)
(-2.48102e+12 6.61262e+12 -2.63352e+12 3.21909e+12 3.07279e+12 -2.07704e+12)
(4.22098e+11 -8.50022e+11 8.38255e+11 -1.30916e+12 -3.43559e+11 6.11033e+11)
(2.09338e+11 2.30532e+12 -1.58068e+12 3.4745e+12 -3.09953e+10 -1.48897e+12)
(-1.08806e+12 5.64216e+12 -1.61143e+12 6.09083e+11 -4.27149e+11 8.74657e+11)
(5.29853e+10 -1.00838e+11 1.46431e+11 -1.82971e+11 8.89407e+10 1.4125e+11)
(-1.40512e+11 2.22261e+10 1.15122e+09 1.73177e+10 -8.88084e+10 1.03875e+11)
(1.63487e+11 1.12193e+11 2.79419e+11 1.55744e+11 3.18246e+11 -1.10673e+11)
(9.37148e+11 -1.53197e+11 3.2802e+11 -1.41234e+12 1.86662e+11 -2.22016e+11)
(3.68728e+12 1.33711e+12 1.81144e+12 2.79012e+11 4.6738e+11 -1.76533e+12)
(1.14424e+12 2.33635e+12 -1.3633e+11 7.90409e+11 1.16393e+12 -2.29497e+12)
(1.01201e+12 1.3016e+12 1.61329e+12 -2.37447e+11 4.72141e+11 -2.37062e+12)
(9.92652e+11 1.8762e+12 -1.63557e+12 3.11424e+12 -1.27773e+12 -2.07589e+12)
(1.49933e+12 -2.1258e+12 -3.48529e+12 -2.50849e+12 -5.92242e+11 -2.29336e+11)
)
;
    }
    procBoundary24to25
    {
        type            processor;
        value           nonuniform List<symmTensor> 
20
(
(7.8473e+11 -2.8951e+11 8.83413e+11 -7.08493e+11 7.72788e+11 -6.45002e+11)
(1.82132e+12 9.42663e+11 1.0497e+12 1.06881e+10 2.32484e+11 -7.03479e+11)
(1.72933e+12 -2.06807e+11 3.75042e+12 -1.94489e+12 1.91094e+12 -8.72273e+11)
(2.19902e+11 6.91997e+10 1.66024e+12 -3.03369e+11 1.06348e+12 6.21944e+11)
(6.35765e+11 2.39624e+12 -8.71056e+11 1.00489e+12 -8.55533e+11 -3.58055e+11)
(1.9991e+12 -7.90066e+11 1.01228e+12 -1.34076e+12 8.40927e+11 -1.74658e+12)
(1.8447e+12 1.1609e+12 -7.35149e+10 -6.22651e+11 2.43218e+11 -2.45812e+11)
(1.04216e+12 2.33519e+11 8.50619e+11 -6.0622e+11 -5.59769e+09 -1.386e+12)
(1.31708e+12 -1.18298e+12 -2.05972e+12 -2.17211e+12 -2.11392e+12 -5.54279e+10)
(-8.73023e+10 1.42573e+12 8.61905e+11 2.02143e+12 -3.02624e+11 5.08944e+11)
(1.33365e+12 -6.6055e+10 3.28221e+12 -7.16183e+11 1.53838e+12 -1.39536e+12)
(7.33616e+11 -2.05799e+12 3.8026e+12 -1.85834e+12 5.26778e+11 2.13557e+12)
(5.67378e+11 -3.31488e+12 2.90469e+12 -1.11741e+12 -8.36027e+10 1.76516e+12)
(-1.84686e+11 7.4189e+11 -7.78602e+11 3.49492e+11 -1.35525e+12 -1.19575e+12)
(-1.06983e+12 -4.46519e+11 2.30598e+12 -6.97891e+11 1.23622e+12 2.93958e+12)
(2.18603e+12 -1.30535e+12 -2.42477e+12 -3.25334e+11 1.28916e+12 -2.82751e+12)
(-8.96852e+12 1.02039e+12 -7.71717e+12 -8.63379e+11 4.11236e+12 2.3117e+12)
(-3.2629e+12 -5.62329e+12 5.35662e+12 -6.34994e+10 -4.84082e+12 1.06371e+13)
(-5.07352e+12 1.96964e+12 -2.20167e+12 3.39487e+11 1.69948e+12 4.15203e+11)
(-4.99395e+12 1.27755e+12 1.75998e+12 4.23768e+12 -7.99075e+12 2.67266e+12)
)
;
    }
}


// ************************************************************************* //
