/*--------------------------------*- C++ -*----------------------------------*\
| =========                 |                                                 |
| \\      /  F ield         | OpenFOAM: The Open Source CFD Toolbox           |
|  \\    /   O peration     | Version:  2.4.0                                 |
|   \\  /    A nd           | Web:      www.OpenFOAM.org                      |
|    \\/     M anipulation  |                                                 |
\*---------------------------------------------------------------------------*/
FoamFile
{
    version     2.0;
    format      ascii;
    class       volScalarField;
    location    "0.1";
    object      p;
}
// * * * * * * * * * * * * * * * * * * * * * * * * * * * * * * * * * * * * * //

dimensions      [1 -1 -2 0 0 0 0];

internalField   nonuniform List<scalar> 
200
(
9.68398e+16
9.68404e+16
9.68383e+16
9.68366e+16
9.68339e+16
9.68325e+16
9.68301e+16
9.68292e+16
9.68252e+16
9.68243e+16
9.68615e+16
9.68583e+16
9.68568e+16
9.68545e+16
9.68528e+16
9.68506e+16
9.68477e+16
9.6843e+16
9.68416e+16
9.6832e+16
9.68743e+16
9.68739e+16
9.68724e+16
9.68715e+16
9.68713e+16
9.6867e+16
9.68606e+16
9.68594e+16
9.68471e+16
9.68436e+16
9.68812e+16
9.68799e+16
9.68789e+16
9.68776e+16
9.68764e+16
9.68728e+16
9.68694e+16
9.68579e+16
9.68533e+16
9.68429e+16
9.68423e+16
9.68384e+16
9.68381e+16
9.68357e+16
9.6833e+16
9.68314e+16
9.68252e+16
9.68247e+16
9.68215e+16
9.68206e+16
9.68585e+16
9.68583e+16
9.68564e+16
9.68534e+16
9.68506e+16
9.6844e+16
9.68384e+16
9.68309e+16
9.68293e+16
9.68259e+16
9.68763e+16
9.68742e+16
9.68721e+16
9.68713e+16
9.68675e+16
9.68562e+16
9.685e+16
9.68413e+16
9.6836e+16
9.68225e+16
9.68817e+16
9.68804e+16
9.68793e+16
9.688e+16
9.68768e+16
9.68739e+16
9.68559e+16
9.68458e+16
9.6832e+16
9.68273e+16
9.68394e+16
9.68389e+16
9.68359e+16
9.6832e+16
9.68279e+16
9.68218e+16
9.68159e+16
9.68056e+16
9.68065e+16
9.67999e+16
9.68645e+16
9.68598e+16
9.68558e+16
9.68515e+16
9.68452e+16
9.68345e+16
9.6824e+16
9.68156e+16
9.68043e+16
9.68025e+16
9.68793e+16
9.6876e+16
9.6873e+16
9.68691e+16
9.68566e+16
9.68502e+16
9.68294e+16
9.68098e+16
9.68103e+16
9.68139e+16
9.68857e+16
9.68834e+16
9.68829e+16
9.68782e+16
9.68749e+16
9.68527e+16
9.68266e+16
9.68163e+16
9.68123e+16
9.68109e+16
9.68413e+16
9.68365e+16
9.68336e+16
9.6831e+16
9.68262e+16
9.68195e+16
9.68088e+16
9.68056e+16
9.67941e+16
9.67712e+16
9.68628e+16
9.68589e+16
9.68567e+16
9.68498e+16
9.68423e+16
9.68322e+16
9.68196e+16
9.68024e+16
9.67838e+16
9.67773e+16
9.68825e+16
9.68801e+16
9.68746e+16
9.6865e+16
9.68561e+16
9.68408e+16
9.6825e+16
9.68034e+16
9.67873e+16
9.67855e+16
9.68924e+16
9.68908e+16
9.6886e+16
9.68785e+16
9.68646e+16
9.68383e+16
9.68197e+16
9.6804e+16
9.68074e+16
9.68057e+16
9.68388e+16
9.68375e+16
9.6836e+16
9.68297e+16
9.68264e+16
9.68191e+16
9.68168e+16
9.68183e+16
9.67925e+16
9.67886e+16
9.68626e+16
9.68596e+16
9.68534e+16
9.68478e+16
9.68384e+16
9.68279e+16
9.68257e+16
9.67947e+16
9.67863e+16
9.67746e+16
9.68894e+16
9.68855e+16
9.68764e+16
9.68697e+16
9.6865e+16
9.68766e+16
9.68359e+16
9.67903e+16
9.67685e+16
9.67872e+16
9.69017e+16
9.69008e+16
9.69001e+16
9.68933e+16
9.68961e+16
9.68982e+16
9.68837e+16
9.68583e+16
9.68302e+16
9.68225e+16
)
;

boundaryField
{
    inlet
    {
        type            zeroGradient;
    }
    outlet
    {
        type            fixedValue;
        value           nonuniform 0();
    }
    bottom
    {
        type            zeroGradient;
    }
    top
    {
        type            symmetryPlane;
    }
    side1
    {
        type            symmetryPlane;
    }
    side2
    {
        type            symmetryPlane;
    }
    procBoundary24to16
    {
        type            processor;
        value           nonuniform List<scalar> 
50
(
9.6824e+16
9.68225e+16
9.68222e+16
9.68193e+16
9.68184e+16
9.68172e+16
9.68168e+16
9.68152e+16
9.68153e+16
9.6811e+16
9.68209e+16
9.68213e+16
9.68194e+16
9.6819e+16
9.68175e+16
9.68161e+16
9.68159e+16
9.68137e+16
9.68133e+16
9.681e+16
9.68237e+16
9.68202e+16
9.68195e+16
9.68163e+16
9.68128e+16
9.68096e+16
9.68043e+16
9.68045e+16
9.67978e+16
9.67992e+16
9.6818e+16
9.68177e+16
9.68152e+16
9.6812e+16
9.68077e+16
9.68019e+16
9.68002e+16
9.67951e+16
9.67911e+16
9.67831e+16
9.68246e+16
9.68223e+16
9.68197e+16
9.68168e+16
9.68111e+16
9.68131e+16
9.68071e+16
9.68011e+16
9.68022e+16
9.67828e+16
)
;
    }
    procBoundary24to25
    {
        type            processor;
        value           nonuniform List<scalar> 
20
(
9.68164e+16
9.68302e+16
9.68326e+16
9.68402e+16
9.68188e+16
9.68169e+16
9.68206e+16
9.68186e+16
9.67962e+16
9.68061e+16
9.68097e+16
9.68137e+16
9.67686e+16
9.67746e+16
9.67827e+16
9.67939e+16
9.67855e+16
9.67991e+16
9.67754e+16
9.68319e+16
)
;
    }
}


// ************************************************************************* //
