/*--------------------------------*- C++ -*----------------------------------*\
| =========                 |                                                 |
| \\      /  F ield         | OpenFOAM: The Open Source CFD Toolbox           |
|  \\    /   O peration     | Version:  2.4.0                                 |
|   \\  /    A nd           | Web:      www.OpenFOAM.org                      |
|    \\/     M anipulation  |                                                 |
\*---------------------------------------------------------------------------*/
FoamFile
{
    version     2.0;
    format      ascii;
    class       volSymmTensorField;
    location    "0.15";
    object      B;
}
// * * * * * * * * * * * * * * * * * * * * * * * * * * * * * * * * * * * * * //

dimensions      [0 2 -2 0 0 0 0];

internalField   nonuniform List<symmTensor> 
200
(
(8.07029e+28 -4.62385e+27 2.01132e+26 1.57586e+29 8.1979e+28 6.03663e+28)
(4.21165e+28 1.30931e+28 -7.29144e+27 5.20707e+28 -2.57968e+28 5.35593e+28)
(5.01685e+29 -2.86092e+28 -2.4316e+28 8.13376e+29 2.12981e+29 4.88845e+29)
(5.48403e+28 1.20376e+29 4.79837e+28 1.95767e+29 -6.43162e+28 1.60098e+29)
(1.84916e+30 -4.98636e+28 -2.32861e+29 2.27344e+30 1.65642e+29 1.85328e+30)
(4.52563e+29 -8.12975e+28 5.5343e+28 3.93727e+29 -1.35625e+28 3.4505e+29)
(6.97275e+29 -1.9479e+28 1.19046e+28 5.31814e+29 -1.17087e+29 5.65054e+29)
(8.56354e+28 -5.09221e+28 -3.55108e+28 4.22967e+28 1.2626e+29 3.97359e+28)
(6.00865e+29 -5.63997e+28 -4.68341e+28 3.71351e+29 -1.23023e+29 4.52905e+29)
(1.63344e+30 -1.69429e+28 2.26922e+29 1.50058e+30 4.98088e+28 1.52956e+30)
(4.36486e+28 -5.35456e+27 -1.42431e+28 4.0535e+28 4.8262e+27 6.54355e+28)
(1.02467e+29 4.61595e+28 8.34051e+28 1.71156e+29 4.08657e+28 7.03185e+28)
(7.17341e+28 9.18091e+27 -2.59388e+28 4.73902e+28 1.03429e+28 1.10438e+29)
(3.35416e+29 3.96242e+27 -5.48455e+28 6.58368e+29 2.00992e+29 4.12784e+29)
(2.45504e+28 -2.19718e+28 -1.27792e+28 -5.915e+28 -1.86839e+28 4.37178e+28)
(3.48124e+30 -1.65157e+29 -2.91974e+29 3.66374e+30 2.01726e+29 3.30698e+30)
(7.95188e+29 -3.60301e+28 1.79886e+29 7.99133e+29 -1.16547e+29 6.4158e+29)
(2.42017e+29 -6.46505e+28 1.066e+28 1.94446e+29 -1.82618e+28 2.07998e+29)
(-3.44323e+28 -7.80381e+28 -7.92312e+28 3.22309e+28 -1.8885e+28 -2.02027e+28)
(5.93646e+29 -8.70443e+28 -3.33577e+28 5.52614e+29 -2.13209e+27 5.54978e+29)
(4.08513e+28 1.78632e+28 3.23445e+28 3.92189e+28 -1.48784e+28 3.69643e+28)
(9.82292e+28 5.70621e+26 -3.5246e+28 1.14936e+29 1.9219e+28 1.56506e+29)
(1.35409e+29 6.01028e+28 9.42017e+28 1.1062e+29 -8.01242e+27 1.50686e+29)
(2.50915e+29 1.56853e+28 -5.24307e+28 2.55466e+29 3.62504e+28 3.34157e+29)
(6.91792e+28 2.00155e+29 1.2366e+29 3.52158e+29 3.10875e+29 3.93502e+29)
(1.6913e+29 -5.08656e+27 -4.71226e+28 2.73382e+29 7.05057e+28 3.50665e+29)
(5.38586e+30 -3.69617e+29 -6.44287e+29 5.77758e+30 3.50609e+29 5.23247e+30)
(1.24022e+30 -7.49452e+28 1.31123e+29 1.25737e+30 -1.17163e+29 1.0949e+30)
(4.56976e+29 -8.94611e+28 -8.45336e+27 4.62731e+29 -3.81703e+28 4.1204e+29)
(-3.53774e+28 -3.99348e+28 -6.50832e+28 3.69457e+28 -6.89725e+28 -2.30765e+28)
(4.8196e+28 1.63746e+26 -2.14051e+28 7.04483e+28 1.17263e+28 8.37283e+28)
(2.92069e+28 2.47045e+28 3.56255e+28 3.18653e+28 -1.96782e+28 5.3847e+28)
(1.49722e+29 8.9617e+27 -6.71208e+28 2.00096e+29 4.39584e+28 2.63364e+29)
(1.47988e+29 8.01782e+28 1.30424e+29 7.01059e+28 -5.00767e+28 1.74085e+29)
(3.54757e+29 3.36829e+28 -1.15772e+29 3.99437e+29 1.16401e+29 6.07878e+29)
(-1.09707e+29 3.21805e+29 2.26136e+29 -1.33942e+29 1.73167e+29 4.90468e+29)
(5.47427e+29 7.83228e+28 -1.21747e+29 5.76236e+29 1.22328e+29 7.63939e+29)
(6.10024e+30 -2.82731e+29 -8.05462e+29 6.61396e+30 4.48504e+29 5.96293e+30)
(7.79366e+29 -9.12379e+28 8.14453e+28 7.97107e+29 -6.18202e+28 6.85352e+29)
(3.37001e+29 -8.85606e+28 1.91831e+28 2.85745e+29 -6.142e+27 2.50577e+29)
(6.33774e+28 -2.71505e+25 -9.81314e+27 5.5175e+28 -4.46998e+27 7.62879e+28)
(-4.21939e+27 -2.37203e+27 -1.02439e+28 8.04476e+27 1.00318e+28 -2.1714e+27)
(9.57977e+28 1.60855e+28 -1.22446e+27 9.04155e+28 -1.04482e+28 1.09357e+29)
(2.76397e+29 -1.1224e+27 -9.76559e+27 3.04682e+29 5.95478e+27 2.8478e+29)
(7.31649e+28 -1.31757e+28 -6.28705e+27 7.6042e+28 -1.15706e+28 8.38364e+28)
(1.40837e+29 -3.00027e+26 -6.73282e+27 1.13387e+29 6.69047e+26 1.40594e+29)
(5.25066e+28 2.14112e+27 4.70609e+27 5.19916e+28 -3.79682e+26 4.92315e+28)
(7.04326e+28 4.34384e+25 -4.26029e+26 7.35058e+28 -3.3317e+28 1.16394e+29)
(-7.02416e+27 7.02921e+27 -1.15622e+28 1.9152e+28 2.51571e+28 6.71392e+27)
(2.06679e+29 1.48656e+28 2.62918e+28 2.28349e+29 -1.07118e+28 2.89739e+29)
(-3.5807e+27 -4.18691e+27 2.10914e+27 3.94029e+27 -2.10037e+27 -1.40339e+28)
(7.98809e+28 -1.16906e+28 -2.18444e+28 6.08903e+28 2.36679e+27 1.03467e+29)
(7.05773e+28 4.52917e+28 4.10508e+28 1.01482e+29 1.89889e+28 -1.23487e+28)
(1.0905e+29 -8.20122e+27 -2.51967e+28 3.27436e+28 -2.11072e+28 1.01399e+29)
(5.99184e+29 -1.05307e+28 -3.08203e+28 6.23182e+29 1.82516e+28 5.79267e+29)
(-3.56957e+27 1.61727e+28 6.68083e+27 8.97893e+28 -2.98912e+28 6.56335e+28)
(4.62364e+28 5.72695e+26 -3.77964e+27 4.88889e+28 4.21649e+27 7.1491e+28)
(1.50925e+29 9.66343e+26 9.63974e+27 1.51549e+29 -5.10871e+27 1.46515e+29)
(6.26796e+28 -8.96872e+26 1.56085e+28 6.35399e+28 9.34939e+26 1.22638e+29)
(-1.59521e+28 4.92311e+27 5.48454e+27 -8.62511e+27 -1.96311e+26 -1.66598e+28)
(3.20164e+28 -9.98871e+27 -7.56396e+27 3.61191e+28 2.5816e+27 5.46822e+28)
(3.28925e+28 1.21499e+28 3.3477e+28 5.48087e+28 -6.47404e+27 2.11903e+28)
(7.02216e+28 -7.47258e+27 -3.26665e+28 7.90442e+28 8.41507e+27 9.38529e+28)
(1.76097e+29 9.4466e+28 1.67289e+29 8.71288e+28 -4.24398e+28 -8.7997e+26)
(1.09955e+29 3.30948e+27 -2.57531e+28 1.13209e+29 5.00392e+27 1.0895e+29)
(1.31567e+30 -5.67573e+28 -1.15265e+29 1.37871e+30 3.7934e+28 1.22894e+30)
(9.6507e+28 -7.14495e+27 5.4965e+28 1.62241e+29 -3.35635e+28 1.588e+29)
(5.45137e+28 -3.16153e+27 5.62695e+27 6.11097e+28 -5.6347e+27 8.16636e+28)
(7.69268e+28 1.7528e+27 1.98241e+28 7.34397e+28 -7.96533e+27 7.02117e+28)
(4.69924e+28 1.31062e+28 1.01355e+28 7.22172e+28 1.05216e+27 1.19569e+29)
(2.50537e+28 4.94538e+27 1.23689e+28 3.75254e+28 -3.29776e+27 2.87663e+28)
(4.18346e+28 -2.48542e+27 -1.13256e+28 6.89954e+28 6.31232e+27 6.85896e+28)
(1.77808e+28 1.77558e+28 5.15177e+28 3.48923e+28 -5.7333e+28 -3.32694e+28)
(1.16851e+29 -3.29576e+26 -3.34093e+28 1.3675e+29 3.79147e+28 1.04392e+29)
(4.24146e+29 1.71224e+29 3.31397e+29 1.73074e+29 -2.14938e+29 1.12582e+29)
(1.7427e+29 3.02108e+28 -7.036e+28 1.52041e+29 4.57935e+28 1.58278e+29)
(1.45423e+30 -6.79287e+28 -1.67053e+29 1.52419e+30 3.33434e+28 1.35218e+30)
(5.52035e+29 -2.08965e+28 5.60082e+28 5.56683e+29 -1.11462e+28 6.06491e+29)
(1.2101e+29 1.12409e+27 1.05984e+28 1.21361e+29 -1.78278e+27 1.37043e+29)
(6.72336e+28 7.07854e+27 1.47937e+28 8.23926e+28 -2.15253e+27 8.24943e+28)
(5.7364e+27 3.99361e+26 -1.1668e+27 1.02198e+27 7.42813e+26 1.01416e+28)
(5.43464e+28 6.19024e+27 -6.42106e+27 4.58678e+28 -3.51803e+27 6.79063e+28)
(2.17918e+28 -3.91002e+27 -6.47378e+27 2.83155e+28 6.10691e+27 3.55199e+28)
(4.61981e+28 4.33417e+27 -2.07343e+27 3.44504e+28 -1.5824e+28 6.14704e+28)
(5.03637e+28 1.27234e+27 2.22782e+27 4.82402e+28 -2.98351e+27 6.63707e+28)
(1.86811e+28 1.66066e+27 2.54523e+26 2.37223e+28 -3.28655e+27 3.17702e+28)
(9.8948e+28 -1.12249e+27 1.84539e+28 9.90395e+28 -9.90724e+26 1.3977e+29)
(2.83514e+28 5.35048e+27 1.27069e+28 3.10615e+28 -8.05383e+26 2.89655e+28)
(1.7283e+29 -3.2871e+27 5.28365e+28 1.78985e+29 -2.86071e+27 2.37783e+29)
(9.80755e+28 9.04427e+27 4.05044e+28 1.09635e+29 -1.6608e+28 1.15289e+29)
(1.40273e+28 -4.00674e+27 1.88728e+27 8.37423e+27 -2.53653e+27 2.7576e+28)
(1.51216e+27 9.925e+26 9.2916e+27 3.36081e+27 5.91776e+27 3.4661e+27)
(1.48471e+29 -5.21419e+27 -3.44149e+28 1.19404e+29 -6.39057e+27 1.4979e+29)
(1.20044e+29 -4.12064e+27 -1.58044e+28 1.31096e+29 8.89015e+27 1.08162e+29)
(4.72578e+28 1.12681e+28 -1.3833e+28 5.5206e+28 -2.76241e+28 8.62537e+28)
(4.96221e+28 2.44872e+27 7.22315e+27 4.44352e+28 -1.71075e+27 6.67249e+28)
(1.70917e+29 1.01796e+28 3.23835e+28 1.89061e+29 -1.04181e+28 2.12865e+29)
(1.10937e+29 -4.83388e+27 3.4647e+28 1.06982e+29 -9.50935e+27 1.66363e+29)
(6.19562e+28 7.56276e+27 2.39873e+28 2.11869e+28 -1.38139e+28 4.18808e+28)
(2.58535e+29 3.61821e+28 5.0721e+28 2.84613e+29 -7.3512e+27 3.45357e+29)
(1.4294e+28 -3.81481e+27 1.64302e+28 1.66352e+28 3.73825e+27 1.71038e+28)
(3.616e+28 -6.84908e+27 -2.06081e+28 3.78059e+28 1.90252e+27 4.76277e+28)
(6.39598e+28 3.2101e+28 5.83999e+28 6.52986e+28 -1.88975e+27 4.93303e+28)
(1.37796e+29 4.21239e+27 -4.60575e+28 1.50102e+29 4.27149e+27 1.42995e+29)
(3.04722e+29 -1.60532e+28 -3.35122e+28 3.09219e+29 8.11588e+27 2.68608e+29)
(9.8825e+28 4.50098e+27 3.4161e+28 1.05885e+29 -4.03769e+27 1.60855e+29)
(4.02852e+28 1.07505e+27 9.85627e+27 3.503e+28 1.45075e+26 6.76717e+28)
(1.55339e+29 6.69086e+27 5.35922e+28 1.54417e+29 -1.15534e+26 2.26644e+29)
(1.251e+29 2.14764e+28 3.85105e+28 1.61395e+29 -1.71519e+28 2.14047e+29)
(2.58957e+29 7.47393e+27 6.82531e+28 2.35856e+29 4.50245e+26 2.7232e+29)
(6.14776e+27 -1.739e+26 -1.70992e+27 1.79088e+28 -1.51285e+27 2.33863e+28)
(1.00083e+28 2.88194e+27 1.67045e+28 1.53356e+28 -3.97742e+27 1.01659e+28)
(1.34406e+29 4.81023e+27 -3.53257e+28 1.3739e+29 1.36489e+28 1.25432e+29)
(9.14126e+28 2.13926e+28 4.84357e+28 5.04524e+28 -3.31487e+28 4.45384e+28)
(1.14795e+29 6.47702e+26 -1.76102e+28 9.0627e+28 4.04878e+28 9.98564e+28)
(1.89092e+29 -2.55722e+28 -3.6754e+28 1.80998e+29 -3.66201e+27 1.29319e+29)
(3.8519e+29 -9.06235e+27 3.73087e+28 3.82506e+29 1.21922e+28 4.32572e+29)
(8.73682e+28 1.27751e+28 -5.1751e+26 1.07988e+29 -3.45247e+27 1.4017e+29)
(5.46123e+28 1.20868e+28 2.09758e+28 8.22874e+28 4.18758e+27 1.10554e+29)
(4.35309e+28 7.6332e+26 1.51957e+28 3.56266e+28 -1.94949e+28 1.05676e+29)
(1.01721e+29 -1.10064e+28 1.30172e+28 8.96134e+28 5.54139e+26 9.25202e+28)
(7.09829e+27 -4.3179e+26 1.21619e+27 1.29332e+27 5.10641e+26 5.00466e+27)
(3.4059e+28 8.49431e+27 -2.70488e+26 2.68192e+28 -5.43646e+27 3.27212e+28)
(8.32303e+27 -2.67004e+27 5.18349e+26 8.02872e+27 -2.84025e+27 1.34921e+28)
(8.7139e+27 1.72286e+27 -3.60045e+27 7.12369e+27 -5.38976e+27 9.41328e+27)
(3.24808e+28 -6.06752e+27 7.80382e+27 2.61312e+28 -2.10697e+26 3.79324e+28)
(4.47082e+28 3.20502e+27 8.25051e+27 4.09919e+28 -2.51105e+27 4.7122e+28)
(7.60713e+28 -5.26985e+27 2.10153e+28 6.34823e+28 3.20511e+27 7.26748e+28)
(1.88134e+29 -1.83501e+28 5.17087e+28 1.19752e+29 -1.51171e+28 1.41974e+29)
(1.96972e+29 3.69843e+27 2.705e+28 1.76698e+29 1.46778e+28 1.70542e+29)
(2.97295e+27 2.8731e+27 1.60467e+27 3.93332e+27 -6.90843e+26 1.11075e+27)
(3.27622e+28 -6.95659e+26 -1.39072e+28 2.6968e+28 -5.783e+27 2.77675e+28)
(4.74986e+27 -3.29325e+27 -2.43917e+27 1.19939e+27 7.7515e+26 1.59386e+27)
(7.78938e+28 7.15787e+27 -9.13678e+27 6.73256e+28 -1.11304e+28 8.97999e+28)
(2.93316e+28 -4.61003e+26 4.66315e+27 2.33454e+28 -1.9614e+27 3.33991e+28)
(9.83353e+28 4.24275e+27 1.9985e+28 1.03803e+29 -8.20034e+27 1.32354e+29)
(3.74753e+28 -4.54353e+27 9.62337e+27 2.93931e+28 -1.12949e+27 3.992e+28)
(1.05998e+29 -6.10369e+27 4.92244e+28 6.68673e+28 -4.97143e+27 1.00791e+29)
(1.97849e+29 2.07177e+28 5.64243e+28 1.78503e+29 5.54908e+27 1.79829e+29)
(1.67597e+29 -9.47208e+27 3.00463e+28 1.35115e+29 -2.66547e+27 1.45403e+29)
(3.0756e+28 -7.1122e+27 -4.5476e+27 1.78987e+28 4.62494e+27 1.86886e+28)
(1.17856e+28 -1.81344e+27 3.80802e+27 1.06367e+28 7.22013e+26 9.90795e+27)
(7.39667e+28 2.08775e+27 -2.64686e+28 7.3759e+28 1.38486e+27 7.6563e+28)
(2.14629e+28 -2.14435e+27 -3.95741e+27 1.8031e+28 -6.32402e+26 1.19608e+28)
(1.05432e+29 2.88375e+27 1.48502e+28 1.034e+29 2.05385e+27 1.6382e+29)
(1.66128e+28 -1.91529e+27 4.03825e+27 1.32305e+28 1.5843e+27 2.01401e+28)
(2.50001e+29 2.6674e+27 5.17811e+28 2.32064e+29 5.45806e+27 2.82385e+29)
(2.85799e+28 2.17223e+27 1.52198e+28 3.11628e+28 2.58677e+27 3.65559e+28)
(8.34206e+28 -4.3122e+27 1.48162e+28 7.33337e+28 3.89736e+26 8.41936e+28)
(1.25954e+29 1.8147e+28 1.40827e+28 9.74507e+28 -1.13303e+28 1.02729e+29)
(3.70098e+28 -1.21201e+27 3.64925e+27 3.3555e+28 8.04447e+26 3.41789e+28)
(4.33843e+28 9.03228e+26 -1.30831e+28 3.80666e+28 2.57088e+26 3.73025e+28)
(2.79075e+27 -3.74141e+26 4.24835e+26 1.10659e+27 -1.19811e+27 -1.31851e+27)
(7.61369e+28 4.3621e+27 -8.14769e+27 7.26509e+28 1.40028e+28 9.62966e+28)
(1.12689e+28 -1.72147e+27 1.31231e+27 8.99903e+27 -6.16282e+26 2.95872e+27)
(2.08474e+29 -1.06167e+27 2.20885e+28 2.07014e+29 1.06738e+28 2.31915e+29)
(-2.63687e+27 2.45311e+27 2.44811e+27 5.12488e+27 2.82223e+27 3.63712e+27)
(2.93721e+28 -1.57103e+27 8.57751e+27 2.3081e+28 2.55447e+27 3.22568e+28)
(3.68143e+28 1.25314e+28 6.65514e+27 4.29563e+28 -5.21528e+27 4.5803e+28)
(5.01392e+28 7.18735e+27 1.05012e+28 5.19819e+28 -1.555e+27 5.07818e+28)
(4.554e+28 6.59149e+27 1.11461e+27 4.27657e+28 4.21064e+26 3.7179e+28)
(3.68078e+28 -8.22292e+26 -1.53168e+27 3.31193e+28 2.66072e+27 1.95034e+28)
(7.06267e+28 -1.27276e+28 2.91078e+27 5.35721e+28 2.07356e+27 4.87538e+28)
(3.16203e+28 6.18832e+27 -3.1564e+27 2.31205e+28 -5.71506e+27 1.81039e+28)
(2.43798e+28 -4.83755e+27 2.35227e+27 2.05076e+28 6.9698e+27 1.87725e+28)
(4.29466e+28 -5.46816e+27 6.41868e+27 2.68847e+28 -5.92856e+27 3.26474e+28)
(3.66548e+28 -9.40662e+26 1.05776e+28 7.47209e+27 7.65731e+27 1.08096e+28)
(1.97983e+29 -1.88191e+28 1.26177e+28 1.01839e+29 -1.73955e+28 1.19607e+29)
(1.77074e+29 -2.44089e+27 1.96504e+28 1.21177e+29 7.98531e+27 1.20261e+29)
(-1.04116e+27 -1.45736e+28 2.3426e+28 -5.37991e+27 -1.06535e+28 -2.04077e+28)
(5.7031e+28 -3.11978e+27 7.25212e+27 4.77406e+28 6.17828e+25 4.44058e+28)
(4.69843e+28 -4.41424e+27 3.97599e+27 1.67312e+28 1.72e+27 1.85677e+28)
(3.82336e+28 4.99854e+27 -4.61779e+27 2.56849e+28 -2.89767e+27 2.79159e+28)
(1.03468e+28 -1.16573e+27 1.58015e+26 9.04634e+27 5.54889e+26 9.83776e+27)
(3.27114e+28 -2.12113e+27 1.24512e+27 2.20689e+28 -1.26908e+27 3.27804e+28)
(2.83354e+27 -1.69944e+27 1.6653e+27 2.32496e+27 7.33281e+26 1.60477e+27)
(3.18452e+28 -1.42666e+28 5.49484e+27 1.24387e+28 -5.67514e+27 2.33594e+28)
(1.94528e+28 -5.98004e+26 5.56189e+27 1.5429e+28 3.24136e+26 1.11897e+28)
(3.84394e+28 -4.83503e+27 6.95269e+26 3.04646e+28 -1.37129e+27 2.43309e+28)
(5.96916e+28 -8.81123e+27 6.01621e+27 4.41029e+28 -3.31901e+27 2.7838e+28)
(4.83696e+28 3.26484e+26 1.56338e+28 4.23128e+28 1.73929e+26 3.02302e+28)
(7.08011e+28 -2.56044e+27 -7.27856e+27 4.92311e+28 -1.59186e+26 4.96389e+28)
(1.01201e+28 -3.83647e+27 1.04556e+27 4.72338e+27 -4.91657e+26 3.66657e+27)
(3.72531e+28 -7.21681e+26 2.91722e+27 2.07221e+28 -2.38545e+27 4.23228e+28)
(7.7305e+26 -4.87164e+26 3.82972e+25 7.24874e+25 7.70536e+26 7.4494e+26)
(5.20286e+28 -5.005e+27 3.58492e+27 4.04541e+28 -1.99324e+27 5.58816e+28)
(4.4238e+27 4.05126e+26 1.02516e+27 4.07165e+27 3.72385e+26 3.06786e+27)
(1.42899e+28 -9.01843e+26 5.1085e+26 1.21845e+28 -1.30175e+27 8.44293e+27)
(3.54196e+28 2.73172e+27 6.61763e+27 3.11386e+28 -2.332e+26 2.3256e+28)
(3.19402e+28 -1.25357e+27 1.60195e+27 2.98572e+28 1.69376e+27 1.48362e+28)
(9.53714e+28 -3.10284e+27 2.65381e+27 6.91183e+28 4.83916e+26 6.93351e+28)
(3.90641e+28 -3.4948e+27 -2.79289e+26 3.34962e+28 8.76381e+26 3.24311e+28)
(1.29403e+28 1.22848e+27 -2.24815e+27 8.70134e+27 -5.5475e+26 1.32291e+28)
(2.51298e+27 -1.40801e+27 3.6803e+27 -2.66957e+26 -4.98583e+27 -3.21702e+27)
(3.04867e+28 -1.55667e+27 1.87494e+27 2.32934e+28 -9.27005e+26 3.16582e+28)
(1.53578e+27 1.20387e+27 -4.47326e+26 1.13417e+27 1.31422e+27 -2.63275e+27)
(1.34927e+28 2.57452e+26 9.63042e+25 9.03557e+27 -1.47082e+27 7.00163e+27)
(1.3634e+28 1.69416e+27 1.96778e+27 1.23563e+28 4.94045e+26 9.99065e+27)
(1.39274e+28 6.74824e+26 1.24106e+27 1.3035e+28 1.84982e+25 8.13192e+27)
(2.86204e+28 2.13137e+27 5.21405e+27 2.0249e+28 -1.81292e+27 1.24473e+28)
)
;

boundaryField
{
    inlet
    {
        type            calculated;
        value           nonuniform 0();
    }
    outlet
    {
        type            calculated;
        value           nonuniform 0();
    }
    bottom
    {
        type            calculated;
        value           nonuniform List<symmTensor> 
40
(
(-2.32044e+12 -7.28804e+11 3.61325e+12 9.79767e+12 1.67585e+13 -2.27213e+13)
(-3.79751e+12 -3.10353e+12 -7.51023e+12 -5.60216e+12 9.77324e+12 4.45811e+13)
(-5.51103e+11 5.63695e+12 9.76573e+12 -1.06623e+12 -6.45404e+12 -1.86004e+13)
(-4.15034e+12 5.16265e+10 -9.14449e+12 2.86545e+12 1.00395e+13 3.08342e+13)
(-2.68652e+12 5.00658e+12 1.90569e+12 1.11979e+12 -8.5816e+12 2.53308e+13)
(-4.09133e+11 6.04684e+12 1.09274e+13 8.58907e+12 4.89186e+12 -3.31987e+13)
(-4.87786e+12 1.60679e+11 -1.16863e+13 -1.73454e+11 1.73163e+13 5.84129e+13)
(-4.02197e+12 6.67055e+12 8.12003e+12 -3.30417e+12 -7.17883e+12 -1.59201e+13)
(-7.26436e+12 -3.27476e+12 3.21917e+11 2.84134e+13 3.5603e+13 -3.08784e+13)
(-2.85587e+12 3.48802e+12 -9.28693e+12 -1.21046e+13 2.13662e+13 7.91669e+13)
(1.40655e+11 1.05853e+13 1.45538e+13 -4.22524e+12 -3.72284e+12 -3.36614e+13)
(-7.28408e+12 1.64359e+12 -1.56779e+13 1.95466e+12 2.12446e+13 6.82367e+13)
(-1.4767e+13 1.80464e+13 8.83711e+12 6.3603e+12 -1.40863e+13 2.10809e+13)
(-1.24305e+13 4.5123e+11 -7.74703e+12 2.43463e+13 2.55428e+13 -5.29878e+13)
(-6.86762e+12 4.73309e+12 -1.72182e+13 -5.49432e+12 3.54886e+13 1.1268e+14)
(8.26787e+10 1.11892e+13 1.35639e+13 -1.07861e+13 -8.13522e+12 -3.13464e+13)
(-1.23169e+13 -7.50234e+12 -3.57738e+13 5.152e+13 5.51891e+13 -1.03563e+13)
(-1.61606e+12 -6.10306e+12 -9.97864e+12 -2.48653e+13 1.51048e+13 7.15289e+13)
(-1.20702e+13 1.23755e+13 1.48028e+12 5.42627e+12 1.95506e+13 -6.2772e+13)
(-1.04734e+13 4.60039e+12 -1.95693e+13 -4.37099e+12 4.01443e+13 1.3063e+14)
(1.55775e+13 -2.81248e+13 1.66588e+13 -4.77678e+12 -8.63374e+12 -5.03349e+13)
(9.30904e+12 -3.10116e+13 -5.66886e+13 4.35771e+13 4.07788e+13 -5.50835e+13)
(-1.36566e+13 -8.7713e+11 -1.55047e+13 4.32068e+12 4.6478e+13 1.44994e+14)
(-1.18078e+13 1.4523e+13 -6.98436e+11 -1.29016e+13 6.48474e+12 -5.66304e+13)
(2.48778e+13 -3.605e+12 7.18403e+12 -5.74428e+12 -1.80085e+13 4.89651e+13)
(6.94473e+12 -8.03435e+12 4.07103e+13 7.8245e+12 -3.36933e+13 -5.5938e+13)
(-6.12174e+12 -4.93226e+13 -9.83107e+13 4.61497e+13 5.86869e+13 -6.87389e+13)
(-1.07446e+13 1.29099e+13 -3.01196e+13 -5.99608e+12 5.36353e+13 1.73732e+14)
(8.04737e+11 -6.90529e+12 4.72702e+12 -5.0722e+12 9.47383e+12 -3.8696e+13)
(9.81506e+12 -1.20824e+13 4.10358e+12 9.24606e+11 4.97728e+11 5.49979e+13)
(1.25069e+13 -1.98132e+13 2.56382e+13 1.7041e+13 -3.70768e+13 -5.08308e+13)
(-1.72299e+13 -3.68398e+13 -1.20102e+14 4.97079e+13 7.85659e+13 -8.98403e+13)
(2.2973e+13 -8.25664e+12 -8.34359e+11 -1.06268e+13 -1.71116e+13 3.95856e+13)
(-8.0665e+12 -9.7916e+12 -4.14521e+12 2.97877e+11 -1.29179e+13 -4.22755e+13)
(9.51819e+12 -1.73911e+13 -7.39666e+12 1.06369e+13 -4.88878e+12 3.77165e+13)
(7.08027e+12 -2.90057e+13 8.22407e+12 1.27202e+13 -1.77949e+13 -6.48844e+13)
(2.05844e+13 -4.78697e+12 8.6593e+13 -1.69546e+13 -2.28317e+12 -4.83605e+13)
(1.41302e+13 -2.17676e+13 -9.29313e+12 3.86909e+12 1.72417e+11 3.76044e+13)
(-1.10743e+13 -6.32599e+12 -1.42684e+13 3.82197e+11 -2.22145e+13 -3.89127e+13)
(1.32933e+13 -2.08848e+13 -6.34792e+12 1.20585e+12 -6.2763e+10 -2.69353e+11)
)
;
    }
    top
    {
        type            symmetryPlane;
    }
    side1
    {
        type            symmetryPlane;
    }
    side2
    {
        type            symmetryPlane;
    }
    procBoundary3to2
    {
        type            processor;
        value           nonuniform List<symmTensor> 
20
(
(-1.01847e+27 -8.97074e+27 -4.54799e+27 -1.57353e+26 -1.21567e+28 7.7173e+27)
(2.23683e+27 7.34585e+27 2.70549e+28 6.83956e+27 -7.20074e+27 -8.35161e+27)
(-1.38509e+27 -5.69335e+27 -1.44824e+28 -6.44506e+26 4.20355e+27 1.24768e+28)
(-2.19588e+27 8.58398e+27 1.04132e+28 2.10022e+27 -5.90051e+27 -4.63236e+27)
(-1.72751e+26 -1.02386e+27 -5.80325e+26 -6.65466e+26 4.86067e+26 -1.73099e+27)
(-7.7424e+26 -7.2352e+27 -5.55587e+27 -9.02423e+27 1.25137e+27 1.38839e+28)
(-6.73881e+27 -3.17095e+27 4.80087e+27 1.96183e+27 -5.94306e+27 -6.98151e+27)
(-9.68555e+27 -3.41913e+27 9.20736e+26 4.59451e+27 1.24414e+27 1.05953e+28)
(5.63995e+27 -1.69271e+27 5.70981e+27 -6.77143e+27 1.21399e+27 3.80367e+26)
(-1.94151e+27 1.81436e+27 2.36996e+27 1.33331e+27 -9.28711e+26 4.35522e+26)
(2.33304e+26 -5.34041e+27 7.1446e+27 -9.45792e+26 2.44915e+27 5.02677e+27)
(-1.28926e+27 6.16707e+26 1.24516e+28 -3.59183e+26 -5.83013e+26 -1.46671e+27)
(2.88737e+27 5.75026e+27 4.59897e+27 1.23655e+27 2.66641e+27 -1.38031e+27)
(8.25334e+27 -5.2506e+27 8.00297e+27 -7.26201e+27 3.62779e+27 -4.85305e+27)
(-7.86367e+26 6.31985e+27 6.74407e+27 5.22814e+27 -3.77021e+27 -6.21116e+27)
(4.99372e+27 -3.15191e+27 2.93012e+27 -1.44095e+27 7.50812e+26 -3.16672e+27)
(7.15567e+27 -1.94521e+27 1.15049e+28 -6.77638e+27 -1.17023e+28 -3.03712e+26)
(-2.29666e+27 5.65877e+27 1.19721e+27 4.99035e+27 -1.48068e+27 2.88367e+26)
(3.15541e+27 2.36117e+25 8.78567e+27 -4.74719e+27 4.78413e+27 2.12675e+27)
(-2.10238e+27 5.37484e+27 1.75129e+28 -1.66081e+27 5.63712e+27 6.86391e+26)
)
;
    }
    procBoundary3to4
    {
        type            processor;
        value           nonuniform List<symmTensor> 
20
(
(-2.18699e+29 4.94216e+28 1.60536e+29 -8.86425e+28 -3.58416e+29 3.91886e+29)
(2.73396e+28 -1.76539e+28 1.20329e+29 -1.69962e+28 -8.76399e+28 -1.39532e+28)
(6.15263e+28 -7.51032e+28 -4.87436e+28 2.39709e+28 8.98083e+27 5.34833e+27)
(-1.44777e+28 -2.97965e+28 7.005e+27 1.03138e+28 -4.78188e+28 -2.59373e+28)
(2.11885e+28 -6.24908e+27 3.59028e+28 4.11836e+27 4.41701e+27 -6.46858e+28)
(-3.86035e+28 3.45118e+28 2.96385e+28 -8.79237e+27 -5.62813e+27 8.25511e+28)
(-8.75795e+27 3.23694e+27 4.30057e+27 -2.17798e+27 -1.74178e+27 2.30283e+27)
(6.19179e+27 5.7255e+28 3.53542e+28 -3.89283e+28 -3.65546e+28 2.3104e+28)
(-4.00895e+28 3.99059e+28 7.93044e+28 4.55941e+28 -8.31158e+27 3.50097e+28)
(-1.56703e+28 3.87695e+27 3.90947e+28 -4.30914e+27 -1.50814e+27 3.71766e+27)
(-5.5586e+27 2.97979e+28 3.67134e+28 -3.39176e+28 -1.78127e+28 3.22377e+28)
(9.16011e+27 1.9534e+28 3.67249e+28 -1.42094e+28 -8.55546e+27 1.34474e+28)
(4.43526e+28 -6.50349e+27 2.36281e+28 -1.51e+28 -8.59501e+27 -1.38869e+28)
(1.52285e+28 2.45231e+27 1.64416e+28 2.0987e+28 -8.60329e+27 -1.6247e+28)
(-2.39482e+27 1.09452e+28 1.55641e+28 7.86758e+27 -6.21221e+27 -1.65018e+28)
(1.26989e+28 1.05847e+28 -5.57407e+26 3.44594e+27 2.23675e+27 5.12243e+27)
(7.54167e+28 -9.4397e+27 3.38385e+28 -2.24164e+28 6.23757e+26 -3.39414e+28)
(2.65601e+27 -1.64975e+27 7.39989e+27 2.35573e+27 -2.65786e+27 -1.47296e+28)
(1.57991e+28 -5.00409e+27 -4.4336e+26 3.2657e+27 -6.04814e+27 -1.42306e+28)
(2.39988e+27 -2.88085e+26 4.19726e+27 2.33874e+27 -6.69276e+26 -6.64862e+27)
)
;
    }
    procBoundary3to11
    {
        type            processor;
        value           nonuniform List<symmTensor> 
50
(
(-8.61187e+27 1.07297e+28 7.80995e+27 -1.89478e+27 -6.95606e+27 3.42792e+27)
(-2.12394e+28 8.26777e+27 -2.50115e+28 1.14938e+28 2.17651e+28 3.26795e+28)
(-1.39154e+28 3.56771e+28 4.1619e+28 -2.26256e+28 -2.37002e+28 1.65563e+28)
(-5.82093e+28 1.7154e+28 -7.40755e+28 8.11878e+27 6.50635e+28 1.06286e+29)
(2.07406e+28 8.13491e+28 1.47526e+29 -7.68596e+28 -6.74658e+28 2.04977e+28)
(-1.27244e+29 3.92664e+28 -1.03904e+29 -3.76338e+28 1.58001e+29 2.69807e+29)
(-3.45912e+29 6.21018e+29 6.36389e+29 -3.78696e+29 6.67958e+28 4.34865e+29)
(-7.28722e+28 3.78434e+28 -4.99506e+28 -6.33122e+28 1.00332e+29 1.7631e+29)
(-1.07169e+29 -2.05874e+29 -4.91691e+29 2.07058e+29 3.28971e+29 -9.45983e+28)
(4.59464e+27 -9.41443e+28 3.20998e+28 1.68816e+28 -4.42435e+28 -4.61237e+28)
(-8.91949e+27 4.17854e+27 4.33848e+26 7.34233e+27 1.89899e+27 7.77936e+27)
(-1.13383e+28 9.96129e+27 8.24806e+27 3.75243e+27 -9.42153e+27 -2.8579e+27)
(-2.62018e+28 1.39808e+28 -4.18271e+27 2.1234e+28 1.41945e+28 1.68956e+28)
(7.23614e+27 1.09044e+28 2.54452e+28 1.29165e+28 -5.24105e+28 -6.18691e+28)
(1.86635e+28 2.2279e+27 -2.95812e+28 2.50761e+28 2.97806e+28 8.4772e+27)
(1.06479e+29 1.05366e+29 2.61021e+29 -1.58124e+29 -2.50162e+29 -2.61427e+29)
(3.35657e+28 -2.39801e+28 1.64622e+27 -1.70693e+28 4.65908e+28 4.34405e+28)
(-2.91736e+27 -4.95671e+28 -1.15016e+29 4.42162e+28 4.64703e+28 -1.30366e+29)
(-1.93725e+28 7.2665e+27 4.86811e+28 1.19084e+28 -6.10091e+27 3.77411e+28)
(6.45982e+28 6.14432e+28 -3.86264e+28 -6.87281e+28 6.57461e+27 2.78772e+28)
(1.7427e+26 1.85024e+27 1.03074e+28 -1.98024e+27 -1.1966e+27 8.57336e+26)
(-3.25181e+27 6.87835e+27 4.60509e+27 3.93579e+27 1.33761e+26 1.65083e+27)
(-5.06313e+27 5.7534e+27 6.83996e+27 4.7518e+27 -7.22509e+27 -2.62081e+27)
(1.50849e+28 2.52047e+27 -1.65148e+28 3.20767e+27 2.19424e+28 -3.07713e+26)
(1.88778e+28 -8.71914e+27 8.21651e+27 -1.69012e+28 -3.12415e+28 -1.59708e+28)
(5.03682e+27 -1.43621e+28 2.92705e+28 -3.63417e+27 2.80979e+28 2.90829e+28)
(1.11335e+28 -1.34316e+28 -2.88378e+28 1.15087e+28 -1.34557e+28 -5.48482e+28)
(-9.3014e+27 2.69007e+27 4.28452e+27 2.82081e+27 5.03195e+27 1.67376e+28)
(-3.05388e+28 4.64095e+28 1.50717e+27 -4.63603e+27 3.67262e+28 4.34899e+28)
(-3.29121e+27 1.87246e+28 3.45939e+28 -8.78411e+27 1.15146e+27 2.27279e+28)
(2.80369e+27 -6.13417e+26 -8.64558e+26 1.72131e+26 -1.90157e+27 -8.00305e+26)
(2.62236e+26 -2.12239e+26 1.25479e+27 -2.51784e+26 -3.89596e+26 -1.33844e+27)
(6.9347e+27 7.18657e+26 1.16108e+26 -1.24292e+27 2.91322e+27 -1.22661e+27)
(1.53998e+27 -1.36164e+27 -3.30785e+26 7.1089e+26 -4.88565e+26 -5.45379e+27)
(-1.34042e+27 -1.27154e+27 8.21134e+27 1.89882e+27 5.06217e+27 5.88119e+27)
(1.97915e+27 -1.15835e+27 1.69568e+27 5.77034e+27 -2.66242e+27 -1.24345e+28)
(1.73667e+26 -3.22854e+26 3.56432e+27 -1.10233e+27 1.78411e+27 1.48013e+27)
(-2.9819e+27 7.38202e+27 -6.39458e+27 5.72289e+27 -1.27984e+27 2.26729e+27)
(-2.0328e+27 4.94473e+27 8.15613e+27 1.45915e+27 2.12734e+27 1.30738e+27)
(3.93171e+27 1.68916e+28 1.01219e+28 1.36919e+27 2.28284e+27 3.50154e+27)
(8.91687e+27 -1.60931e+27 3.23719e+27 -5.25202e+27 1.1762e+27 -5.20709e+27)
(1.4213e+28 1.69464e+27 5.9465e+26 -2.25058e+27 -2.59272e+27 -5.1847e+27)
(5.97221e+26 -1.98065e+27 -7.50213e+27 5.77744e+26 2.13673e+27 -4.44158e+27)
(-2.35262e+27 -9.47358e+26 1.83554e+27 3.73821e+27 -4.38951e+27 8.62167e+27)
(8.69107e+26 2.35823e+27 1.48133e+28 -1.30226e+26 -9.05957e+27 -1.00797e+28)
(5.62982e+27 3.43443e+26 -5.64915e+26 2.04303e+26 -1.52708e+27 -3.08329e+27)
(1.54659e+27 3.32544e+27 1.53336e+27 1.45104e+26 1.49543e+27 -5.52123e+27)
(2.2516e+27 9.07929e+26 -1.30507e+26 5.42387e+26 -2.46506e+26 -2.47533e+27)
(2.50931e+27 2.7159e+27 2.46432e+27 -8.14029e+26 7.0015e+26 -1.13669e+27)
(1.81683e+27 3.46789e+26 1.6889e+27 1.17845e+26 -2.69394e+26 -2.53101e+27)
)
;
    }
}


// ************************************************************************* //
