/*--------------------------------*- C++ -*----------------------------------*\
| =========                 |                                                 |
| \\      /  F ield         | OpenFOAM: The Open Source CFD Toolbox           |
|  \\    /   O peration     | Version:  2.4.0                                 |
|   \\  /    A nd           | Web:      www.OpenFOAM.org                      |
|    \\/     M anipulation  |                                                 |
\*---------------------------------------------------------------------------*/
FoamFile
{
    version     2.0;
    format      ascii;
    class       volVectorField;
    location    "0.07";
    object      A_Source;
}
// * * * * * * * * * * * * * * * * * * * * * * * * * * * * * * * * * * * * * //

dimensions      [1 -2 -2 0 0 0 0];

internalField   nonuniform List<vector> 
200
(
(1.80862e-38 -9.98517e-38 1.96825e-38)
(2.01798e-40 -1.11393e-39 2.19609e-40)
(2.12321e-42 -1.17186e-41 2.31061e-42)
(2.08696e-44 -1.1517e-43 2.27116e-44)
(1.9399e-46 -1.07039e-45 2.11112e-46)
(1.72507e-48 -9.5172e-48 1.87733e-48)
(1.47946e-50 -8.16095e-50 1.61004e-50)
(1.23017e-52 -6.78479e-52 1.33874e-52)
(9.95258e-55 -5.48834e-54 1.0831e-54)
(7.85432e-57 -4.33057e-56 8.54756e-57)
(4.47741e-41 -2.47239e-40 4.87259e-41)
(4.56094e-43 -2.51812e-42 4.9635e-43)
(4.70365e-45 -2.59652e-44 5.1188e-45)
(4.70759e-47 -2.59833e-46 5.12309e-47)
(4.51644e-49 -2.4925e-48 4.91507e-49)
(4.15622e-51 -2.2934e-50 4.52305e-51)
(3.68403e-53 -2.03257e-52 4.00919e-53)
(3.15919e-55 -1.74277e-54 3.43803e-55)
(2.63065e-57 -1.451e-56 2.86284e-57)
(2.1333e-59 -1.1765e-58 2.32159e-59)
(1.07327e-43 -5.92734e-43 1.168e-43)
(1.05418e-45 -5.82115e-45 1.14722e-45)
(1.057e-47 -5.83589e-47 1.1503e-47)
(1.05439e-49 -5.82063e-49 1.14745e-49)
(1.02669e-51 -5.66694e-51 1.11731e-51)
(9.67876e-54 -5.34161e-53 1.0533e-53)
(8.82038e-56 -4.86726e-55 9.59889e-56)
(7.78189e-58 -4.29365e-57 8.46874e-58)
(6.66307e-60 -3.67587e-59 7.25117e-60)
(5.55058e-62 -3.06172e-61 6.04048e-62)
(2.42996e-46 -1.33643e-45 2.64444e-46)
(2.40347e-48 -1.32155e-47 2.6156e-48)
(2.38284e-50 -1.30999e-49 2.59316e-50)
(2.36044e-52 -1.29749e-51 2.56878e-52)
(2.30902e-54 -1.26904e-53 2.51282e-54)
(2.20871e-56 -1.2137e-55 2.40366e-56)
(2.05524e-58 -1.12915e-57 2.23664e-58)
(1.85741e-60 -1.02024e-59 2.02134e-60)
(1.6311e-62 -8.95738e-62 1.77507e-62)
(1.39378e-64 -7.65231e-64 1.5168e-64)
(2.03352e-40 -1.12252e-39 2.213e-40)
(2.35423e-42 -1.29935e-41 2.56201e-42)
(2.56609e-44 -1.41609e-43 2.79258e-44)
(2.60877e-46 -1.43945e-45 2.83902e-46)
(2.50474e-48 -1.38186e-47 2.72581e-48)
(2.29811e-50 -1.26769e-49 2.50095e-50)
(2.03153e-52 -1.12047e-51 2.21084e-52)
(1.73961e-54 -9.59319e-54 1.89315e-54)
(1.44819e-56 -7.98489e-56 1.57601e-56)
(1.17504e-58 -6.4778e-58 1.27876e-58)
(5.23063e-43 -2.88792e-42 5.69229e-43)
(5.50778e-45 -3.04046e-44 5.99391e-45)
(5.87178e-47 -3.24091e-46 6.39003e-47)
(6.07014e-49 -3.34993e-48 6.6059e-49)
(6.00922e-51 -3.31588e-50 6.53961e-51)
(5.7004e-53 -3.14505e-52 6.20353e-53)
(5.2037e-55 -2.87063e-54 5.66299e-55)
(4.59171e-57 -2.53267e-56 4.99698e-57)
(3.93118e-59 -2.16804e-58 4.27815e-59)
(3.27524e-61 -1.80603e-60 3.56431e-61)
(1.30043e-45 -7.18098e-45 1.41521e-45)
(1.3175e-47 -7.2743e-47 1.43379e-47)
(1.36274e-49 -7.52296e-49 1.48302e-49)
(1.40188e-51 -7.73791e-51 1.52561e-51)
(1.40684e-53 -7.76425e-53 1.53101e-53)
(1.36578e-55 -7.53666e-55 1.48633e-55)
(1.28071e-57 -7.06633e-57 1.39375e-57)
(1.16174e-59 -6.40909e-59 1.26428e-59)
(1.02195e-61 -5.63718e-61 1.11215e-61)
(8.74011e-64 -4.82048e-63 9.51152e-64)
(3.04786e-48 -1.67582e-47 3.31687e-48)
(3.10581e-50 -1.70729e-49 3.37993e-50)
(3.17141e-52 -1.74307e-51 3.45133e-52)
(3.23494e-54 -1.77774e-53 3.52046e-54)
(3.25718e-56 -1.78971e-55 3.54466e-56)
(3.20514e-58 -1.76082e-57 3.48803e-58)
(3.06603e-60 -1.68408e-59 3.33665e-60)
(2.84661e-62 -1.56323e-61 3.09786e-62)
(2.56633e-64 -1.40899e-63 2.79284e-64)
(2.24981e-66 -1.23493e-65 2.44839e-66)
(1.18964e-42 -6.56592e-42 1.29464e-42)
(1.42736e-44 -7.87674e-44 1.55334e-44)
(1.61004e-46 -8.88365e-46 1.75214e-46)
(1.69128e-48 -9.33066e-48 1.84055e-48)
(1.67577e-50 -9.24383e-50 1.82367e-50)
(1.58505e-52 -8.74216e-52 1.72494e-52)
(1.44316e-54 -7.95843e-54 1.57053e-54)
(1.27174e-56 -7.01204e-56 1.38398e-56)
(1.08863e-58 -6.00151e-58 1.18471e-58)
(9.0759e-61 -5.00265e-60 9.87696e-61)
(3.17555e-45 -1.75304e-44 3.45583e-45)
(3.45304e-47 -1.90593e-46 3.75781e-47)
(3.80177e-49 -2.09809e-48 4.13733e-49)
(4.05591e-51 -2.23804e-50 4.41389e-51)
(4.13966e-53 -2.28394e-52 4.50503e-53)
(4.04481e-55 -2.23132e-54 4.40182e-55)
(3.79991e-57 -2.09594e-56 4.13529e-57)
(3.44787e-59 -1.9015e-58 3.75218e-59)
(3.03309e-61 -1.67252e-60 3.30079e-61)
(2.59466e-63 -1.43055e-62 2.82367e-63)
(8.17932e-48 -4.51607e-47 8.90124e-48)
(8.53999e-50 -4.71458e-49 9.29375e-50)
(9.10425e-52 -5.02534e-51 9.90781e-52)
(9.65064e-54 -5.32617e-53 1.05024e-53)
(9.97357e-56 -5.50364e-55 1.08539e-55)
(9.96386e-58 -5.49756e-57 1.08433e-57)
(9.60743e-60 -5.30022e-59 1.04554e-59)
(8.95468e-62 -4.93948e-61 9.74503e-62)
(8.08813e-64 -4.46091e-63 8.80201e-64)
(7.09766e-66 -3.91411e-65 7.72411e-66)
(1.98245e-50 -1.08974e-49 2.15743e-50)
(2.07958e-52 -1.14286e-51 2.26313e-52)
(2.18543e-54 -1.20084e-53 2.37832e-54)
(2.29372e-56 -1.26018e-55 2.49617e-56)
(2.37546e-58 -1.30491e-57 2.58512e-58)
(2.403e-60 -1.31982e-59 2.61509e-60)
(2.36166e-62 -1.29687e-61 2.5701e-62)
(2.25123e-64 -1.23597e-63 2.44992e-64)
(2.08245e-66 -1.14305e-65 2.26625e-66)
(1.87199e-68 -1.02729e-67 2.03721e-68)
(4.80894e-45 -2.65379e-44 5.23339e-45)
(5.97266e-47 -3.29547e-46 6.49981e-47)
(6.96421e-49 -3.84205e-48 7.57888e-49)
(7.55133e-51 -4.16541e-50 8.21782e-51)
(7.7141e-53 -4.25463e-52 8.39496e-53)
(7.51538e-55 -4.14444e-54 8.1787e-55)
(7.04183e-57 -3.88272e-56 7.66335e-57)
(6.38095e-59 -3.51779e-58 6.94414e-59)
(5.61255e-61 -3.09369e-60 6.10792e-61)
(4.80453e-63 -2.64788e-62 5.22859e-63)
(1.33051e-47 -7.34399e-47 1.44794e-47)
(1.4925e-49 -8.23681e-49 1.62423e-49)
(1.69534e-51 -9.35483e-51 1.84497e-51)
(1.86475e-53 -1.02882e-52 2.02934e-53)
(1.96051e-55 -1.08151e-54 2.13355e-55)
(1.97147e-57 -1.08742e-56 2.14548e-57)
(1.90455e-59 -1.05037e-58 2.07265e-59)
(1.77569e-61 -9.79164e-61 1.93242e-61)
(1.60394e-63 -8.84332e-63 1.74551e-63)
(1.40791e-65 -7.76137e-65 1.53217e-65)
(3.54636e-50 -1.95782e-49 3.85937e-50)
(3.81244e-52 -2.10443e-51 4.14893e-52)
(4.18527e-54 -2.30988e-53 4.55467e-54)
(4.56744e-56 -2.52044e-55 4.97057e-56)
(4.85701e-58 -2.67987e-57 5.2857e-58)
(4.9894e-60 -2.75255e-59 5.42977e-60)
(4.94331e-62 -2.72678e-61 5.37961e-62)
(4.7309e-64 -2.60928e-63 5.14846e-64)
(4.38464e-66 -2.41799e-65 4.77164e-66)
(3.94559e-68 -2.17558e-67 4.29384e-68)
(8.87958e-53 -4.87977e-52 9.66331e-53)
(9.58064e-55 -5.2638e-54 1.04262e-54)
(1.03534e-56 -5.68747e-56 1.12672e-56)
(1.1172e-58 -6.1364e-58 1.2158e-58)
(1.18914e-60 -6.5307e-60 1.2941e-60)
(1.23574e-62 -6.78549e-62 1.3448e-62)
(1.24687e-64 -6.84536e-64 1.35692e-64)
(1.21952e-66 -6.69383e-66 1.32716e-66)
(1.15676e-68 -6.34794e-68 1.25886e-68)
(1.06565e-70 -5.84658e-70 1.15971e-70)
(1.51243e-47 -8.34505e-47 1.63741e-47)
(1.9424e-49 -1.07158e-48 2.10254e-49)
(2.33896e-51 -1.29018e-50 2.53137e-51)
(2.61555e-53 -1.44256e-52 2.83024e-53)
(2.75253e-55 -1.51791e-54 2.97797e-55)
(2.75996e-57 -1.52179e-56 2.98552e-57)
(2.65944e-59 -1.46615e-58 2.8763e-59)
(2.47637e-61 -1.36502e-60 2.67786e-61)
(2.23671e-63 -1.23272e-62 2.4183e-63)
(1.96483e-65 -1.0827e-64 2.12399e-65)
(4.33247e-50 -2.39107e-49 4.68964e-50)
(5.00907e-52 -2.76403e-51 5.42115e-52)
(5.86513e-54 -3.23592e-53 6.3466e-54)
(6.6458e-56 -3.66613e-55 7.19017e-56)
(7.19174e-58 -3.96678e-57 7.77953e-58)
(7.43756e-60 -4.10182e-59 8.04411e-60)
(7.38364e-62 -4.07154e-61 7.98447e-62)
(7.06917e-64 -3.8976e-63 7.64314e-64)
(6.55266e-66 -3.61231e-65 7.08351e-66)
(5.89864e-68 -3.2513e-67 6.37546e-68)
(1.19381e-52 -6.58975e-52 1.292e-52)
(1.32035e-54 -7.28726e-54 1.42872e-54)
(1.49143e-56 -8.23026e-56 1.61359e-56)
(1.67441e-58 -9.23868e-58 1.81127e-58)
(1.83083e-60 -1.01004e-59 1.98015e-60)
(1.93258e-62 -1.06603e-61 2.08985e-62)
(1.96618e-64 -1.08443e-63 2.12583e-64)
(1.93097e-66 -1.06487e-65 2.08742e-66)
(1.83533e-68 -1.012e-67 1.9837e-68)
(1.69268e-70 -9.33218e-70 1.82922e-70)
(3.08511e-55 -1.69498e-54 3.33829e-55)
(3.42124e-57 -1.87921e-56 3.70144e-57)
(3.79916e-59 -2.08647e-58 4.10966e-59)
(4.21193e-61 -2.31289e-60 4.55543e-61)
(4.60465e-63 -2.52822e-62 4.97938e-63)
(4.91248e-65 -2.69681e-64 5.31139e-65)
(5.08595e-67 -2.79153e-66 5.49804e-67)
(5.10111e-69 -2.79927e-68 5.51351e-69)
(4.95896e-71 -2.72066e-70 5.35899e-71)
(4.67934e-73 -2.56666e-72 5.05597e-73)
)
;

boundaryField
{
    inlet
    {
        type            zeroGradient;
    }
    outlet
    {
        type            zeroGradient;
    }
    bottom
    {
        type            zeroGradient;
    }
    top
    {
        type            symmetryPlane;
    }
    side1
    {
        type            symmetryPlane;
    }
    side2
    {
        type            symmetryPlane;
    }
    procBoundary25to17
    {
        type            processor;
        value           nonuniform List<vector> 
50
(
(1.80143e-35 -9.94281e-35 1.96042e-35)
(1.62227e-37 -8.95293e-37 1.76545e-37)
(1.42348e-39 -7.85471e-39 1.54912e-39)
(1.22963e-41 -6.78393e-41 1.33816e-41)
(1.04729e-43 -5.7769e-43 1.13973e-43)
(8.7742e-46 -4.83898e-45 9.54862e-46)
(7.20972e-48 -3.97542e-47 7.84606e-48)
(5.79856e-50 -3.19672e-49 6.31036e-50)
(4.56101e-52 -2.51399e-51 4.96358e-52)
(3.50914e-54 -1.93383e-53 3.81886e-54)
(1.9812e-37 -1.09333e-36 2.15607e-37)
(1.84711e-39 -1.01922e-38 2.01014e-39)
(1.67644e-41 -9.24907e-41 1.8244e-41)
(1.49679e-43 -8.25655e-43 1.6289e-43)
(1.31674e-45 -7.26205e-45 1.43296e-45)
(1.13859e-47 -6.27831e-47 1.23908e-47)
(9.64844e-50 -5.31927e-49 1.05e-49)
(7.99616e-52 -4.40753e-51 8.70192e-52)
(6.47569e-54 -3.56876e-53 7.04724e-54)
(5.12549e-56 -2.82412e-55 5.57787e-56)
(1.1343e-39 -6.25868e-39 1.23442e-39)
(1.09366e-41 -6.03374e-41 1.19019e-41)
(1.02565e-43 -5.65773e-43 1.11618e-43)
(9.45591e-46 -5.21522e-45 1.02905e-45)
(8.58405e-48 -4.73349e-47 9.3417e-48)
(7.65434e-50 -4.22003e-49 8.32992e-50)
(6.68386e-52 -3.68428e-51 7.27379e-52)
(5.70355e-54 -3.14332e-53 6.20696e-54)
(4.75231e-56 -2.61858e-55 5.17176e-56)
(3.86703e-58 -2.13036e-57 4.20834e-58)
(4.48985e-42 -2.47694e-41 4.88613e-42)
(4.47194e-44 -2.46679e-43 4.86664e-44)
(4.32898e-46 -2.38759e-45 4.71106e-46)
(4.11705e-48 -2.27032e-47 4.48043e-48)
(3.85311e-50 -2.12438e-49 4.1932e-50)
(3.53985e-52 -1.9513e-51 3.85228e-52)
(3.18245e-54 -1.75395e-53 3.46334e-54)
(2.79397e-56 -1.53955e-55 3.04057e-56)
(2.39334e-58 -1.31854e-57 2.60458e-58)
(2.00072e-60 -1.10202e-59 2.1773e-60)
(1.38333e-44 -7.63027e-44 1.49779e-44)
(1.42196e-46 -7.84249e-46 1.53937e-46)
(1.41955e-48 -7.82808e-48 1.53652e-48)
(1.39146e-50 -7.67188e-50 1.50588e-50)
(1.34144e-52 -7.39474e-52 1.45151e-52)
(1.26871e-54 -6.99245e-54 1.37258e-54)
(1.17347e-56 -6.46632e-56 1.26934e-56)
(1.05918e-58 -5.83542e-58 1.14552e-58)
(9.32158e-61 -5.13462e-60 1.00798e-60)
(8.00039e-63 -4.406e-62 8.64972e-63)
)
;
    }
    procBoundary25to24
    {
        type            processor;
        value           nonuniform List<vector> 
20
(
(4.11722e-36 -2.27308e-35 4.48062e-36)
(8.53672e-39 -4.71375e-38 9.29019e-39)
(1.70509e-41 -9.41631e-41 1.85559e-41)
(3.30065e-44 -1.81615e-43 3.59197e-44)
(4.53377e-38 -2.50267e-37 4.93393e-38)
(9.74328e-41 -5.37923e-40 1.06032e-40)
(2.0146e-43 -1.11241e-42 2.19241e-43)
(4.03267e-46 -2.21839e-45 4.3886e-46)
(2.5988e-40 -1.43433e-39 2.82817e-40)
(5.78209e-43 -3.19182e-42 6.29242e-43)
(1.23634e-45 -6.82581e-45 1.34546e-45)
(2.55664e-48 -1.40607e-47 2.7823e-48)
(1.02981e-42 -5.68289e-42 1.1207e-42)
(2.36939e-45 -1.30776e-44 2.57852e-45)
(5.2335e-48 -2.88903e-47 5.69541e-48)
(1.11691e-50 -6.14114e-50 1.21549e-50)
(3.17621e-45 -1.75249e-44 3.43901e-45)
(7.54952e-48 -4.16629e-47 8.17283e-48)
(1.72095e-50 -9.49885e-50 1.86273e-50)
(3.7871e-53 -2.08175e-52 4.09843e-53)
)
;
    }
    procBoundary25to26
    {
        type            processor;
        value           nonuniform List<vector> 
20
(
(1.73045e-59 -9.5413e-59 1.88318e-59)
(6.37818e-62 -3.51788e-61 6.94113e-62)
(2.12134e-64 -1.17027e-63 2.30857e-64)
(6.40075e-67 -3.51204e-66 6.9657e-67)
(2.62765e-61 -1.44863e-60 2.85957e-61)
(9.96695e-64 -5.49655e-63 1.08466e-63)
(3.40514e-66 -1.87827e-65 3.70568e-66)
(1.05405e-68 -5.78203e-68 1.14708e-68)
(2.05956e-63 -1.13528e-62 2.24134e-63)
(8.03433e-66 -4.43019e-65 8.74346e-66)
(2.81797e-68 -1.5542e-67 3.06668e-68)
(8.94425e-71 -4.90516e-70 9.73368e-71)
(1.1061e-65 -6.0962e-65 1.20372e-65)
(4.43451e-68 -2.44491e-67 4.82591e-68)
(1.59576e-70 -8.80007e-70 1.7366e-70)
(5.19042e-73 -2.84578e-72 5.64853e-73)
(4.58809e-68 -2.52835e-67 4.95929e-68)
(1.88931e-70 -1.04151e-69 2.0418e-70)
(6.97147e-73 -3.84407e-72 7.53286e-73)
(2.32259e-75 -1.2731e-74 2.5092e-75)
)
;
    }
}


// ************************************************************************* //
