/*--------------------------------*- C++ -*----------------------------------*\
| =========                 |                                                 |
| \\      /  F ield         | OpenFOAM: The Open Source CFD Toolbox           |
|  \\    /   O peration     | Version:  2.4.0                                 |
|   \\  /    A nd           | Web:      www.OpenFOAM.org                      |
|    \\/     M anipulation  |                                                 |
\*---------------------------------------------------------------------------*/
FoamFile
{
    version     2.0;
    format      ascii;
    class       volScalarField;
    location    "0.07";
    object      p;
}
// * * * * * * * * * * * * * * * * * * * * * * * * * * * * * * * * * * * * * //

dimensions      [1 -1 -2 0 0 0 0];

internalField   nonuniform List<scalar> 
200
(
4.10978e+11
4.11218e+11
4.09785e+11
4.09988e+11
4.09805e+11
4.08901e+11
4.08181e+11
4.07708e+11
4.06498e+11
4.05563e+11
4.12546e+11
4.1134e+11
4.11298e+11
4.10058e+11
4.10082e+11
4.09445e+11
4.08597e+11
4.07617e+11
4.06867e+11
4.06043e+11
4.11777e+11
4.11523e+11
4.11453e+11
4.10876e+11
4.10177e+11
4.09232e+11
4.08492e+11
4.07444e+11
4.06975e+11
4.06213e+11
4.10983e+11
4.11312e+11
4.1242e+11
4.11898e+11
4.10657e+11
4.09872e+11
4.09207e+11
4.08682e+11
4.08357e+11
4.08165e+11
4.12124e+11
4.12431e+11
4.14121e+11
4.12296e+11
4.11705e+11
4.10666e+11
4.09378e+11
4.08438e+11
4.07517e+11
4.06799e+11
4.10666e+11
4.10146e+11
4.10925e+11
4.11564e+11
4.10827e+11
4.1089e+11
4.09583e+11
4.08965e+11
4.07743e+11
4.06783e+11
4.09534e+11
4.10283e+11
4.09563e+11
4.09827e+11
4.09536e+11
4.09887e+11
4.0941e+11
4.07827e+11
4.07357e+11
4.0702e+11
4.09441e+11
4.11191e+11
4.10456e+11
4.10086e+11
4.10269e+11
4.10098e+11
4.09594e+11
4.09062e+11
4.08672e+11
4.08063e+11
4.11019e+11
4.11442e+11
4.11654e+11
4.13011e+11
4.10465e+11
4.1012e+11
4.09673e+11
4.08784e+11
4.0811e+11
4.0745e+11
4.09884e+11
4.09839e+11
4.0766e+11
4.09155e+11
4.09398e+11
4.09367e+11
4.08999e+11
4.08706e+11
4.08226e+11
4.07517e+11
4.11602e+11
4.10789e+11
4.09883e+11
4.08577e+11
4.09158e+11
4.09188e+11
4.09106e+11
4.08936e+11
4.0824e+11
4.08011e+11
4.11223e+11
4.11224e+11
4.1048e+11
4.10194e+11
4.1012e+11
4.09924e+11
4.09618e+11
4.09168e+11
4.09147e+11
4.09561e+11
4.10056e+11
4.09973e+11
4.0906e+11
4.09223e+11
4.09139e+11
4.09344e+11
4.08987e+11
4.0906e+11
4.08932e+11
4.08374e+11
4.10457e+11
4.10144e+11
4.09164e+11
4.0732e+11
4.08249e+11
4.0907e+11
4.09459e+11
4.08887e+11
4.08689e+11
4.08675e+11
4.11581e+11
4.10988e+11
4.10302e+11
4.09421e+11
4.09943e+11
4.09923e+11
4.09583e+11
4.09449e+11
4.08965e+11
4.09133e+11
4.12291e+11
4.11515e+11
4.11106e+11
4.10645e+11
4.10434e+11
4.10287e+11
4.10138e+11
4.10017e+11
4.10142e+11
4.10741e+11
4.11381e+11
4.11103e+11
4.10679e+11
4.10559e+11
4.10007e+11
4.09854e+11
4.0988e+11
4.09863e+11
4.09633e+11
4.09577e+11
4.11745e+11
4.11184e+11
4.10992e+11
4.09488e+11
4.10061e+11
4.09845e+11
4.10286e+11
4.10201e+11
4.10256e+11
4.10422e+11
4.13054e+11
4.12377e+11
4.12365e+11
4.11611e+11
4.10404e+11
4.10925e+11
4.10879e+11
4.10975e+11
4.10985e+11
4.11264e+11
4.13433e+11
4.13662e+11
4.13205e+11
4.12733e+11
4.1168e+11
4.11515e+11
4.1148e+11
4.11471e+11
4.11672e+11
4.12027e+11
)
;

boundaryField
{
    inlet
    {
        type            zeroGradient;
    }
    outlet
    {
        type            fixedValue;
        value           nonuniform 0();
    }
    bottom
    {
        type            zeroGradient;
    }
    top
    {
        type            symmetryPlane;
    }
    side1
    {
        type            symmetryPlane;
    }
    side2
    {
        type            symmetryPlane;
    }
    procBoundary25to17
    {
        type            processor;
        value           nonuniform List<scalar> 
50
(
4.1143e+11
4.10885e+11
4.10417e+11
4.10095e+11
4.09638e+11
4.08464e+11
4.07315e+11
4.06316e+11
4.0528e+11
4.04375e+11
4.11633e+11
4.1197e+11
4.11688e+11
4.10984e+11
4.10699e+11
4.09235e+11
4.08443e+11
4.07407e+11
4.06665e+11
4.05641e+11
4.1169e+11
4.1181e+11
4.12904e+11
4.10808e+11
4.09987e+11
4.09743e+11
4.08975e+11
4.0799e+11
4.07382e+11
4.06788e+11
4.10688e+11
4.10088e+11
4.10018e+11
4.09454e+11
4.09228e+11
4.09687e+11
4.0909e+11
4.08553e+11
4.0805e+11
4.07987e+11
4.10796e+11
4.10968e+11
4.10661e+11
4.10355e+11
4.10194e+11
4.09993e+11
4.09782e+11
4.09578e+11
4.09083e+11
4.08858e+11
)
;
    }
    procBoundary25to24
    {
        type            processor;
        value           nonuniform List<scalar> 
20
(
4.11711e+11
4.11942e+11
4.13921e+11
4.15179e+11
4.11527e+11
4.10818e+11
4.08804e+11
4.10361e+11
4.11101e+11
4.11119e+11
4.11331e+11
4.1046e+11
4.10909e+11
4.11491e+11
4.12342e+11
4.12712e+11
4.12006e+11
4.12311e+11
4.13274e+11
4.13595e+11
)
;
    }
    procBoundary25to26
    {
        type            processor;
        value           nonuniform List<scalar> 
20
(
4.04385e+11
4.05028e+11
4.04871e+11
4.08283e+11
4.05884e+11
4.06028e+11
4.06618e+11
4.07345e+11
4.07221e+11
4.06743e+11
4.07197e+11
4.09071e+11
4.08525e+11
4.09032e+11
4.09242e+11
4.10943e+11
4.10035e+11
4.10726e+11
4.11801e+11
4.12883e+11
)
;
    }
}


// ************************************************************************* //
