/*--------------------------------*- C++ -*----------------------------------*\
| =========                 |                                                 |
| \\      /  F ield         | OpenFOAM: The Open Source CFD Toolbox           |
|  \\    /   O peration     | Version:  2.4.0                                 |
|   \\  /    A nd           | Web:      www.OpenFOAM.org                      |
|    \\/     M anipulation  |                                                 |
\*---------------------------------------------------------------------------*/
FoamFile
{
    version     2.0;
    format      ascii;
    class       volVectorField;
    location    "0.07";
    object      Ur;
}
// * * * * * * * * * * * * * * * * * * * * * * * * * * * * * * * * * * * * * //

dimensions      [0 1 -1 0 0 0 0];

internalField   nonuniform List<vector> 
200
(
(-27803.2 -7922.49 25967.3)
(-37502.8 -31805 25415.6)
(-50889.1 -45604.3 23364)
(-27511.5 -21768.7 63546.2)
(-50257.8 -12401.6 21143.4)
(-60462.3 2209.64 -5020.77)
(-78710.2 1612.07 3194.83)
(-58458.8 -10557.8 -25432.7)
(-88910.8 -16672.7 26718.2)
(-89203.4 -3432.22 6414.99)
(-25570.8 -56004.4 17825.3)
(-33424.3 11711 26223.6)
(38024.9 -278538 105242)
(-90496 -54679.5 9546.71)
(-63658.5 14791.9 6072.92)
(-78255.8 19933.6 9573.05)
(-62759.9 -16650 -6474.02)
(-72807.2 44051.4 2193.01)
(-97526.5 17760.2 2892.05)
(-95452.2 -11449.3 7293.99)
(-52498.8 -6731.68 7806.06)
(23342.9 -267568 69112.4)
(-69401.5 23537.2 -20413.2)
(-101228 40899.7 -15952.2)
(-87964.1 14407.5 -5697.81)
(-84272.8 9826.09 -204.801)
(-78725.8 19205.2 14105.4)
(-86148.7 26813 -788.249)
(-82999.3 7501.23 5059.25)
(-75367.1 -29542.5 5225.76)
(-28907.7 -158778 41500.6)
(-261249 39000.4 -168770)
(-91969.8 3115.71 -65239.4)
(-80823.1 4403.21 -13747.8)
(-86591.8 -2863.31 -4750.48)
(-77396.1 4340.21 4363.27)
(-76572.8 6237.92 -2924.85)
(-63585 16754.8 12083.2)
(-58586.5 -14130.1 897.718)
(-67894.3 -1111.96 24978.1)
(-16048.4 -16305.7 15849.7)
(19297.4 13604.7 150566)
(-43166.5 9794.56 36170.3)
(-71392.3 -76787.9 10998.7)
(-86153.1 -4284.83 45802.1)
(-82324.9 -5344.33 4490.96)
(-67600.9 -11043.9 -8252.14)
(-75613.1 -26575.6 16318.3)
(-74128.5 -14814.1 10513.2)
(-78594.7 -37483.9 25863)
(-20439.8 2951.58 80054)
(-46277.9 -1248.74 2976.04)
(-45232.8 135916 240316)
(-31842.3 48804.4 -7834.84)
(-205181 87063.3 -20189.4)
(-72977.6 -21482.2 -37753.3)
(-90239.5 -28191.4 4167.42)
(-85379.4 -20155.8 11448.3)
(-72410.2 -27533.8 23899.4)
(-95464.7 12015.9 14005)
(-46185.9 48973.3 -143290)
(-33736.9 -2904.31 -21390.4)
(-74555.7 9087.81 -28139)
(-61074 -13766 -30803.5)
(-50678.2 -15493 -26045.9)
(-90662.3 -56302.2 -49009.7)
(-9190.64 -10567.9 -42412.9)
(-87905.1 -9542.85 -3110.88)
(-95861.1 228.605 9003.86)
(-95268 -6570.16 31971.6)
(-109559 -81730.1 -49308.8)
(-83209.8 135089 -225453)
(-33716.4 77335.5 -66992.1)
(-78854.1 13630.1 -28538.5)
(-53478.8 7365.55 -8371.97)
(-65014.6 5631.12 2281.01)
(-68013.4 11322.3 6572.09)
(-68156.9 -4654.62 8344.63)
(-74005 11798.4 16269.1)
(-63632.6 -44963.6 12933.2)
(-40645.2 29962.5 100605)
(-43184.9 -11109.1 -851.909)
(-15130 190097 357273)
(-59299.4 13542.9 29763.8)
(-126370 -14101.3 -8686.47)
(-92675.1 -11110.1 -40360.9)
(-75552.9 3320.27 -9270.7)
(-66517 -14618.2 9241.53)
(-70857.6 -27170.2 23396.9)
(-66526 -19771.5 19052.6)
(-57772.1 -10460.5 3247.28)
(-83720.2 49005.3 55012.1)
(-40645.3 -10903.9 1112.46)
(-28515.3 400645 623509)
(-57641.5 78300.9 24832.5)
(-49872.9 -23340.3 -47327.9)
(-66761.2 -42900 -35474.8)
(-69784.6 -9465.28 5396.41)
(-74829 -11627.5 15496.5)
(-79266.1 -30502.7 14252.8)
(-57654.1 21667 9065.28)
(-86720.3 17326 -2373.27)
(-70305.1 70838.8 47331.9)
(-61091.1 69125.6 25473.4)
(12584.4 -21306.4 -33644.8)
(-19952.3 -22800.6 -30385.4)
(-53433.3 10339.8 2878.8)
(-67080.8 1951.91 16759.6)
(-65320.6 5298.05 16315.9)
(-87683 -2597.03 22629.5)
(-67152.2 90659.7 -107755)
(-59387.3 31633.4 743.037)
(-97760.4 18023 -3526.18)
(-58432.1 36630 5480.06)
(-49787.1 22296.2 3113.01)
(-55523.5 24814.7 8427.42)
(-50666.9 -1669.65 15422.7)
(-51403.5 17476.1 22198.1)
(-53762.5 -12166.9 26035.2)
(-59953.2 -3917.14 6640.38)
(-63922.9 -8056.32 19470.5)
(-81600.2 -5134.84 25521.1)
(-52894.5 -12018.9 23596)
(-34539.9 -34828.7 -16881.9)
(-34498.5 -34519.9 -16221.8)
(-46564 31728.4 -8086.6)
(-39385.9 -37111.1 -11271.2)
(-45851.3 104212 -9859.1)
(-42721.9 -15246.8 20009.3)
(-71703.9 -26054.6 18583)
(-88219.8 42015.7 56091.1)
(-82620.6 6047.1 21420)
(-84929.4 -20144.7 -32245.7)
(-38568.4 7938.87 10423.5)
(-27950.9 4132.85 7995.88)
(-24519.5 -23184.1 -7627.96)
(-61093.1 47860.4 11240.3)
(-40026.5 -23778.2 5751.76)
(-57740.8 87791.3 9489.38)
(-54562 -17284.8 34013.4)
(-58111.2 15924.2 16165.1)
(-60558.9 45411.3 32233.6)
(-52227.5 -11200.8 15099.1)
(-54540.1 42863.7 34159.5)
(-30289.6 9530.08 18492.3)
(-54169.4 26580 21433.3)
(-47222.8 -7188.52 20946.2)
(-59884.3 54288.4 21963.5)
(-47973.8 -3284.64 37560.4)
(-51539.9 -10891.8 7744.69)
(-65722.8 20528 17309.1)
(-61139.6 -4213.87 11759.7)
(-62981 21408.4 26760.4)
(-52279.1 3939.19 25403.4)
(-53801.2 20442.2 20977.4)
(-43665.5 -7969.55 18997.4)
(-47463.5 29382.6 24706.4)
(-32203.6 -14110.2 31647.5)
(-29867.2 27341 28389.4)
(-23230.5 -42808.5 35256.8)
(-64085.9 9244.27 15376.4)
(-50935.3 -13911.6 8580.7)
(-55937 6861.55 -673.03)
(-30480.7 -40647.3 -3336.33)
(-42678.5 -4826.12 -10575.4)
(-9211.29 -48684.5 -15698.1)
(-37189.4 -7170.53 22363.3)
(-28145.5 -3501.13 6908.38)
(-44178.8 1405.07 -4027.46)
(-36626.1 -2045.37 17965.8)
(-42277.7 3904.79 12329.6)
(-58723.2 28219.4 4491.87)
(-31678.9 -48025.2 -8439.94)
(-54100.5 6638.84 3001.2)
(22966 -102001 -44855.9)
(-49681 -11811.3 42374.9)
(-24528.9 13607.1 12710.4)
(-38646.8 11144.4 18227.4)
(-29684.4 9098.45 27476.5)
(-33293.5 -3860.02 -4217.2)
(-50690.8 28624.7 14430.2)
(-5367.67 -51306.4 -9023.41)
(-65911.1 24227.4 -1388.5)
(31933.8 -229297 -95748)
(-67153.1 25967.5 21905.1)
(-46725.6 20023.2 13661.8)
(-44160.5 18805.2 15150.9)
(-33253.2 7405.59 23725.2)
(-24631.5 16532.2 21927.3)
(-8994.55 1140.48 33296.4)
(-26876.5 -7573.29 13191.8)
(-42706.9 26970.1 17267.5)
(-9275.71 -76971.4 -3586.56)
(-68537.9 20644.2 25371.3)
(-76042.6 -3256.42 16640.2)
(-58244.2 17747.3 14415.1)
(-38988.6 -5971.99 16922)
(-31861.4 20487.2 20159.4)
(-8838.37 -8906.29 20808.9)
(-5622.58 8009.14 3989.7)
)
;

boundaryField
{
    inlet
    {
        type            calculated;
        value           nonuniform 0();
    }
    outlet
    {
        type            calculated;
        value           nonuniform 0();
    }
    bottom
    {
        type            calculated;
        value           uniform (0 0 0);
    }
    top
    {
        type            symmetryPlane;
    }
    side1
    {
        type            symmetryPlane;
    }
    side2
    {
        type            symmetryPlane;
    }
    procBoundary25to17
    {
        type            processor;
        value           nonuniform List<vector> 
50
(
(-26636.2 71099.3 -13314.4)
(-21931.5 -42808 24421.3)
(-39100.5 -35525.2 12147.7)
(-43303.9 -42476.7 8539.06)
(-57750.7 -5782.27 13596.8)
(-73567.9 -10101.8 6488.41)
(-73318.2 -3233.58 3049.89)
(-81986.7 -8008.03 10297.2)
(-79720 -8218.23 3285.65)
(-84776.8 -11973.8 18192.5)
(5708.06 -22432 24907.2)
(-29666.1 -429.32 10224)
(-12641.6 -46852.5 74004.3)
(-50322.9 9246.06 23110.3)
(-45690.6 -14430.8 -13322.8)
(-70019.1 -4352.68 14279.8)
(-68898.9 -17703.8 10232.3)
(-66469.7 -16806 8096.93)
(-74157.3 -30651.8 19773.8)
(-73583.1 -15367.1 14806.4)
(-29236.6 -12668.8 1486.03)
(-17557.4 -10541.3 42141.5)
(-57792.4 6187.96 15751.2)
(-26102.5 -68527.9 100729)
(-100897 59673.1 129693)
(-61904.7 17912 -23686.4)
(-74961.1 -12283.7 -10215.1)
(-73767.1 -16166.2 14632.5)
(-64510 -14101.8 21308.4)
(-65961.9 -26086.2 26959.9)
(-11572.4 -43024.9 89260.6)
(-58950.1 -33646.9 14532.2)
(-41331.4 -40050.7 -3200.71)
(-48986.6 -27380.2 4359.56)
(-27414.4 -8040.07 -5859.77)
(-34566 -34038.9 -9993.43)
(-28247.8 99615 -28846.7)
(-34286.2 -46929.6 -60856.3)
(-72468.9 -2357.63 11349.6)
(-57665 -19284.4 28553.6)
(-10682.5 -75444.5 23174.2)
(-37864.8 4305.28 19604.3)
(-43615.3 -14072.2 12491.6)
(-38595.2 -6302.09 -2114.59)
(-33819.2 -27152.3 9019.94)
(-33945.2 12344.2 -31010.7)
(-29506.4 -32360.4 1321.64)
(-44649.4 -11066.6 3723.48)
(-46924.4 -14396.8 12467.7)
(-44095.5 -2725.43 976.839)
)
;
    }
    procBoundary25to24
    {
        type            processor;
        value           nonuniform List<vector> 
20
(
(-36463.9 17644.8 4469.1)
(-47376.5 40176.9 -12369.4)
(-45918 -59398.7 -14683.8)
(-123365 46048.7 -22076.3)
(14684.9 -21293.9 26152.2)
(-22861.1 -26846.4 -9039.87)
(-70795.9 -38617.7 -35578.7)
(-53410 -92332.9 -41058.7)
(-35454.2 -9571.37 7069.5)
(-56054.7 11155.6 30846)
(-5409.91 42653.8 -91472.7)
(-103673 -22456.2 -40049.2)
(-31314.5 -20887.3 49965.3)
(-30603.8 72969.4 104511)
(-66561.9 31079.4 21309.5)
(-47040.8 17548.3 8420.22)
(-17138.8 -57939.9 23323)
(-71470.6 14999.6 21283.2)
(-46967.5 13832.3 14217.5)
(-50667.1 16670.3 10526)
)
;
    }
    procBoundary25to26
    {
        type            processor;
        value           nonuniform List<vector> 
20
(
(-94870.1 -13408.8 13141.9)
(-85315.8 -38331.8 12086.8)
(-100340 -13493 12085.3)
(-86751.3 -8957.63 5906.3)
(-83537.6 -7995.41 9617.02)
(-91915.4 -37320.6 25368.9)
(-75498.9 -21160.7 -11725.7)
(-89525 5973.65 35300)
(-69645.8 -36932.5 36402.8)
(-88889.2 -22955.1 22511.5)
(-68871.2 -36003.7 -44374.6)
(-53092.9 -76268.2 25862.1)
(-51102.1 -19385.6 30465.9)
(-66425.6 -44107.5 -8875.04)
(-42058.7 -26129.3 45245.8)
(-47373.7 -6905.41 555.901)
(-39154.5 -19334.7 -13847)
(-15545.6 -188.247 34382.7)
(-12823.2 -47721.6 -74625.8)
(2868.25 -13445.9 27803.5)
)
;
    }
}


// ************************************************************************* //
