/*--------------------------------*- C++ -*----------------------------------*\
| =========                 |                                                 |
| \\      /  F ield         | OpenFOAM: The Open Source CFD Toolbox           |
|  \\    /   O peration     | Version:  2.4.0                                 |
|   \\  /    A nd           | Web:      www.OpenFOAM.org                      |
|    \\/     M anipulation  |                                                 |
\*---------------------------------------------------------------------------*/
FoamFile
{
    version     2.0;
    format      ascii;
    class       volVectorField;
    location    "0.02";
    object      Uc;
}
// * * * * * * * * * * * * * * * * * * * * * * * * * * * * * * * * * * * * * //

dimensions      [0 1 -1 0 0 0 0];

internalField   nonuniform List<vector> 
200
(
(0.00222463 -0.000115247 -2.36828e-05)
(7.28922e-05 6.53807e-06 -8.73782e-08)
(1.32166e-06 2.36081e-07 6.28227e-09)
(1.76349e-08 4.22494e-09 1.55859e-10)
(3.1384e-10 4.38024e-11 -1.47189e-11)
(1.26441e-08 -1.1792e-09 -1.7897e-09)
(1.12229e-06 -1.04954e-07 -1.58878e-07)
(7.59105e-05 -7.11396e-06 -1.07464e-05)
(0.00299568 -0.000281333 -0.000424087)
(7.59148e-05 -7.1141e-06 -1.07467e-05)
(8.04866e-05 3.76445e-05 1.85088e-06)
(0.00260162 0.0014996 8.07462e-05)
(6.58524e-05 3.79603e-05 2.04401e-06)
(9.7255e-07 5.6063e-07 3.01879e-08)
(1.09453e-08 6.30866e-09 3.39527e-10)
(2.23453e-10 4.86511e-11 -1.36974e-11)
(9.4388e-09 -8.88649e-10 -1.33606e-09)
(5.58892e-07 -5.27093e-08 -7.91203e-08)
(1.89169e-05 -1.78594e-06 -2.678e-06)
(5.58933e-07 -5.27105e-08 -7.91233e-08)
(5.43544e-07 2.81304e-07 1.42065e-08)
(1.64708e-05 9.49454e-06 5.11239e-07)
(4.86349e-07 2.80365e-07 1.50967e-08)
(8.20848e-09 4.73199e-09 2.54803e-10)
(1.0392e-10 5.9903e-11 3.22459e-12)
(1.72598e-12 5.72533e-13 -5.51193e-14)
(4.47657e-11 -4.22099e-12 -6.33556e-12)
(2.35635e-09 -2.22698e-10 -3.3358e-10)
(6.98074e-08 -6.60211e-09 -9.88238e-09)
(2.35657e-09 -2.22705e-10 -3.33596e-10)
(2.22604e-09 1.19372e-09 6.07247e-11)
(6.08334e-08 3.50677e-08 1.88824e-09)
(2.05264e-09 1.1833e-09 6.37165e-11)
(3.89727e-11 2.24671e-11 1.20978e-12)
(5.48201e-13 3.16009e-13 1.7012e-14)
(8.79572e-15 3.43707e-15 -1.47179e-16)
(1.57375e-13 -1.4838e-14 -2.22678e-14)
(7.45508e-12 -7.05319e-13 -1.05539e-12)
(1.96364e-10 -1.85876e-11 -2.77985e-11)
(7.4559e-12 -7.05345e-13 -1.05545e-12)
(5.50049e-06 -2.84061e-07 -5.84878e-08)
(2.10161e-07 1.88308e-08 -2.52057e-10)
(4.3535e-09 7.76676e-10 2.06773e-11)
(6.53323e-11 1.56323e-11 5.76979e-13)
(1.29173e-12 1.80059e-13 -6.06001e-14)
(4.6864e-11 -4.36015e-12 -6.63244e-12)
(3.69859e-09 -3.45082e-10 -5.23518e-10)
(2.19021e-07 -2.04736e-08 -3.09967e-08)
(7.4208e-06 -6.94521e-07 -1.04956e-06)
(1.52218e-06 -6.08375e-08 -1.28982e-07)
(2.47809e-07 1.1042e-07 7.19775e-09)
(6.42567e-06 3.70355e-06 1.99431e-07)
(1.89689e-07 1.09341e-07 5.88766e-09)
(3.20085e-09 1.84509e-09 9.93519e-11)
(4.05178e-11 2.33524e-11 1.25667e-12)
(9.19239e-13 2.00078e-13 -5.63703e-14)
(3.49726e-11 -3.28782e-12 -4.94935e-12)
(1.84188e-09 -1.73433e-10 -2.60651e-10)
(5.46629e-08 -5.14652e-09 -7.72922e-09)
(1.27961e-08 -5.15241e-10 -1.0843e-09)
(1.94056e-09 9.44637e-10 6.45724e-11)
(4.74521e-08 2.73519e-08 1.47294e-09)
(1.60074e-09 9.2275e-10 4.96882e-11)
(3.03862e-11 1.75166e-11 9.43223e-13)
(4.27344e-13 2.46327e-13 1.32591e-14)
(7.80736e-15 2.58925e-15 -2.49477e-16)
(1.84245e-13 -1.73494e-14 -2.60686e-14)
(8.73462e-12 -8.24389e-13 -1.23596e-12)
(2.306e-10 -2.17477e-11 -3.25967e-11)
(6.06572e-11 -2.44853e-12 -5.14006e-12)
(9.04117e-12 4.51805e-12 3.19245e-13)
(2.00263e-10 1.15436e-10 6.21665e-12)
(7.59894e-12 4.3805e-12 2.35884e-13)
(1.60267e-13 9.23899e-14 4.97499e-15)
(2.47924e-15 1.42912e-15 7.69321e-17)
(4.33895e-17 1.69536e-17 -7.26365e-19)
(7.12365e-16 -6.70694e-17 -1.00762e-16)
(3.07026e-14 -2.90097e-15 -4.34408e-15)
(7.30066e-13 -6.88924e-14 -1.03166e-13)
(2.13122e-13 -8.61401e-15 -1.80603e-14)
(7.93962e-09 -4.08641e-10 -8.4256e-11)
(3.46545e-10 3.10192e-11 -4.15231e-13)
(8.07432e-12 1.43869e-12 3.83246e-14)
(1.34615e-13 3.21689e-14 1.18796e-15)
(2.92783e-15 4.07599e-16 -1.374e-16)
(9.66124e-14 -8.96667e-15 -1.36708e-14)
(6.86401e-12 -6.38873e-13 -9.71357e-13)
(3.61524e-10 -3.37017e-11 -5.11414e-11)
(1.0743e-08 -1.00125e-09 -1.51723e-09)
(4.66089e-09 -1.66589e-10 -3.74413e-10)
(4.41087e-10 1.85929e-10 1.57334e-11)
(9.26483e-09 5.33941e-09 2.87559e-10)
(3.12495e-10 1.80121e-10 9.69927e-12)
(5.93152e-12 3.41904e-12 1.84106e-13)
(8.3421e-14 4.80769e-14 2.58686e-15)
(2.08256e-15 4.53112e-16 -1.2776e-16)
(7.20804e-14 -6.76565e-15 -1.0198e-14)
(3.41897e-12 -3.21347e-13 -4.83571e-13)
(9.0452e-11 -8.48551e-12 -1.2767e-11)
(4.4055e-11 -1.58798e-12 -3.53902e-12)
(3.93947e-12 1.79258e-12 1.60341e-13)
(7.81886e-11 4.5065e-11 2.42729e-12)
(2.96649e-12 1.70999e-12 9.2084e-14)
(6.25606e-14 3.60633e-14 1.94195e-15)
(9.67741e-16 5.57802e-16 3.00232e-17)
(1.92891e-17 6.3961e-18 -6.16593e-19)
(4.17662e-16 -3.92708e-17 -5.90733e-17)
(1.80146e-14 -1.69752e-15 -2.54749e-15)
(4.29514e-13 -4.03554e-14 -6.0585e-14)
(2.31994e-13 -8.38602e-15 -1.86368e-14)
(2.05933e-14 9.54424e-15 8.92494e-16)
(3.71219e-13 2.13959e-13 1.15256e-14)
(1.56462e-14 9.0192e-15 4.85704e-16)
(3.6294e-16 2.09222e-16 1.12664e-17)
(6.12434e-18 3.53019e-18 1.9003e-19)
(1.16108e-19 4.53666e-20 -1.9435e-21)
(1.76161e-18 -1.65593e-19 -2.49065e-19)
(6.966e-17 -6.57152e-18 -9.84888e-18)
(1.51196e-15 -1.42089e-16 -2.13119e-16)
(8.96539e-16 -3.24539e-17 -7.20227e-17)
(8.73415e-12 -4.47889e-13 -9.2401e-14)
(4.28679e-13 3.83326e-14 -5.12163e-16)
(1.10957e-14 1.97458e-15 5.26394e-17)
(2.03464e-16 4.85595e-17 1.79424e-18)
(4.8276e-18 6.71288e-19 -2.26592e-19)
(1.46114e-16 -1.35267e-17 -2.06711e-17)
(9.43984e-15 -8.76402e-16 -1.33549e-15)
(4.47823e-13 -4.16218e-14 -6.33101e-14)
(1.18677e-11 -1.10048e-12 -1.67261e-12)
(8.42664e-12 -2.87715e-13 -6.63243e-13)
(5.93792e-13 2.35679e-13 2.52311e-14)
(1.01804e-11 5.86628e-12 3.16009e-13)
(3.86198e-13 2.2259e-13 1.19868e-14)
(8.14415e-15 4.69428e-15 2.52779e-16)
(1.25989e-16 7.2605e-17 3.90615e-18)
(3.43219e-18 7.46564e-19 -2.10613e-19)
(1.08995e-16 -1.02131e-17 -1.54151e-17)
(4.70414e-15 -4.41219e-16 -6.64861e-16)
(1.12445e-13 -1.05007e-14 -1.58324e-14)
(8.84524e-14 -3.0489e-15 -6.96197e-15)
(5.96612e-15 2.52889e-15 2.86606e-16)
(9.66528e-14 5.57008e-14 3.00111e-15)
(4.07333e-15 2.34792e-15 1.26446e-16)
(9.44831e-17 5.44639e-17 2.93288e-18)
(1.59433e-18 9.18932e-19 4.94579e-20)
(3.44277e-20 1.14155e-20 -1.10053e-21)
(6.88921e-19 -6.46704e-20 -9.73965e-20)
(2.72658e-17 -2.56442e-18 -3.85252e-18)
(5.93691e-16 -5.55144e-17 -8.35042e-17)
(5.1228e-16 -1.7714e-17 -4.03212e-17)
(3.45884e-17 1.48377e-17 1.76505e-18)
(5.09876e-16 2.93841e-16 1.58351e-17)
(2.3632e-17 1.3622e-17 7.33649e-19)
(5.9795e-19 3.44689e-19 1.8562e-20)
(1.09301e-20 6.30017e-21 3.39126e-22)
(2.23139e-22 8.71926e-23 -3.73246e-24)
(3.14791e-21 -2.95388e-22 -4.44833e-22)
(1.15034e-19 -1.08316e-20 -1.62487e-20)
(2.30084e-18 -2.15096e-19 -3.23249e-19)
(2.15949e-18 -7.47913e-20 -1.69974e-19)
(8.11519e-15 -4.14484e-16 -8.53223e-17)
(4.42355e-16 3.95166e-17 -5.24723e-19)
(1.25932e-17 2.2383e-18 5.96088e-20)
(2.51913e-19 6.00457e-20 2.2152e-21)
(6.47414e-21 8.99601e-22 -3.03052e-22)
(1.80996e-19 -1.67123e-20 -2.55444e-20)
(1.0724e-17 -9.92994e-19 -1.5136e-18)
(4.62926e-16 -4.2885e-17 -6.52734e-17)
(1.10887e-14 -1.02202e-15 -1.55593e-15)
(1.14438e-14 -3.80852e-16 -8.89061e-16)
(6.70748e-16 2.50015e-16 3.29472e-17)
(9.44771e-15 5.44318e-15 2.92841e-16)
(3.98142e-16 2.29459e-16 1.23354e-17)
(9.23548e-18 5.32309e-18 2.86082e-19)
(1.5587e-19 8.98182e-20 4.82124e-21)
(4.60127e-21 1.00078e-21 -2.81717e-22)
(1.35034e-19 -1.26296e-20 -1.90483e-20)
(5.34796e-18 -5.00413e-19 -7.53661e-19)
(1.16796e-16 -1.08458e-17 -1.63628e-17)
(1.32079e-16 -4.44223e-18 -1.02591e-17)
(7.49547e-18 2.95574e-18 4.11576e-19)
(9.96714e-17 5.74316e-17 3.09022e-18)
(4.6195e-18 2.6626e-18 1.43126e-19)
(1.1689e-19 6.73783e-20 3.62072e-21)
(2.13689e-21 1.2316e-21 6.61295e-23)
(4.96953e-23 1.6479e-23 -1.58412e-24)
(9.24655e-22 -8.66442e-23 -1.30352e-22)
(3.38208e-20 -3.17395e-21 -4.76348e-21)
(6.7895e-19 -6.31111e-20 -9.49591e-20)
(8.34429e-19 -2.81633e-20 -6.48011e-20)
(4.77287e-20 1.89523e-20 2.77028e-21)
(5.78446e-19 3.33303e-19 1.79369e-20)
(2.92394e-20 1.68534e-20 9.05868e-22)
(8.01457e-22 4.61989e-22 2.48227e-23)
(1.57775e-23 9.09394e-24 4.88288e-25)
(3.45089e-25 1.34864e-25 -5.75021e-27)
(4.55063e-24 -4.26189e-25 -6.41061e-25)
(1.54619e-22 -1.4527e-23 -2.17643e-23)
(2.8735e-21 -2.66905e-22 -4.01173e-22)
(3.81069e-21 -1.28844e-22 -2.95878e-22)
)
;

boundaryField
{
    inlet
    {
        type            calculated;
        value           nonuniform 0();
    }
    outlet
    {
        type            calculated;
        value           nonuniform 0();
    }
    bottom
    {
        type            calculated;
        value           uniform (0 0 0);
    }
    top
    {
        type            symmetryPlane;
    }
    side1
    {
        type            symmetryPlane;
    }
    side2
    {
        type            symmetryPlane;
    }
    procBoundary4to3
    {
        type            processor;
        value           nonuniform List<vector> 
20
(
(4.71956e-05 -2.21417e-06 -5.19798e-07)
(4.24423e-05 2.88844e-05 -2.83807e-06)
(3.51362e-07 2.2724e-07 -1.78903e-08)
(1.68366e-09 1.03175e-09 -5.97271e-11)
(1.66251e-07 -4.6036e-09 3.18451e-09)
(1.52118e-06 2.4505e-07 1.60296e-07)
(1.29875e-08 2.11983e-09 1.36963e-09)
(6.25218e-11 1.03613e-11 6.59277e-12)
(3.33195e-10 -3.79797e-12 1.49855e-11)
(4.81812e-09 6.70924e-10 5.44212e-10)
(4.6068e-11 6.47696e-12 5.2105e-12)
(2.45038e-13 3.48375e-14 2.77376e-14)
(4.97379e-13 1.01599e-15 3.30706e-14)
(8.81931e-12 1.15994e-12 1.02176e-12)
(9.35435e-14 1.23987e-14 1.08555e-14)
(5.46232e-16 7.30481e-17 6.34699e-17)
(6.14266e-16 7.98208e-18 5.15907e-17)
(1.20554e-14 1.53761e-15 1.41349e-15)
(1.40551e-16 1.80459e-17 1.65062e-17)
(8.94519e-19 1.15722e-19 1.0519e-19)
)
;
    }
    procBoundary4to5
    {
        type            processor;
        value           nonuniform List<vector> 
20
(
(1.37731e-06 -1.12852e-07 -1.78053e-07)
(1.15822e-08 -9.56061e-10 -1.49731e-09)
(5.49223e-11 -4.54485e-12 -7.10027e-12)
(1.93039e-13 -1.5994e-14 -2.49561e-14)
(8.81939e-05 -2.73771e-06 -6.63163e-06)
(6.4907e-07 -2.02768e-08 -4.88066e-08)
(2.73547e-09 -8.56382e-11 -2.05695e-10)
(8.65111e-12 -2.7113e-13 -6.50532e-13)
(2.5461e-07 -7.88669e-09 -1.91448e-08)
(2.1404e-09 -6.67924e-11 -1.60944e-10)
(1.01465e-11 -3.17412e-13 -7.62952e-13)
(3.56515e-14 -1.11667e-15 -2.68079e-15)
(4.20038e-10 -1.29834e-11 -3.15836e-11)
(3.97043e-12 -1.23767e-13 -2.98548e-13)
(2.09095e-14 -6.5364e-16 -1.57225e-15)
(8.08104e-17 -2.52975e-18 -6.07641e-18)
(5.20258e-13 -1.60472e-14 -3.90388e-14)
(5.46195e-15 -1.7008e-16 -4.09767e-16)
(3.16389e-17 -9.8834e-19 -2.37314e-18)
(1.33397e-19 -4.1737e-21 -1.00037e-20)
)
;
    }
    procBoundary4to12
    {
        type            processor;
        value           nonuniform List<vector> 
50
(
(6.94931e-12 3.794e-12 1.93623e-13)
(1.71196e-10 9.86871e-11 5.31381e-12)
(6.4976e-12 3.74573e-12 2.01694e-13)
(1.37069e-13 7.9018e-14 4.25486e-15)
(2.12078e-15 1.22253e-15 6.58153e-17)
(3.4525e-17 1.47502e-17 -2.53738e-19)
(4.56194e-16 -4.29696e-17 -6.45312e-17)
(1.96599e-14 -1.86114e-15 -2.78318e-15)
(4.66153e-13 -4.41489e-14 -6.59913e-14)
(1.9662e-14 -1.86122e-15 -2.78329e-15)
(3.16787e-14 1.59847e-14 1.16336e-15)
(6.33921e-13 3.65403e-13 1.96793e-14)
(2.67221e-14 1.54043e-14 8.2951e-16)
(6.19912e-16 3.57365e-16 1.92433e-17)
(1.04611e-17 6.03022e-18 3.2463e-19)
(1.84324e-19 7.8816e-20 -1.33697e-21)
(2.24949e-18 -2.11537e-19 -3.18071e-19)
(8.90569e-17 -8.4195e-18 -1.25996e-17)
(1.9266e-15 -1.81833e-16 -2.72157e-16)
(6.13412e-16 -2.48506e-17 -5.2028e-17)
(8.00438e-17 3.72139e-17 3.62475e-18)
(1.30561e-15 7.52504e-16 4.05411e-17)
(6.05199e-17 3.48864e-17 1.87876e-18)
(1.53138e-18 8.82791e-19 4.75379e-20)
(2.79931e-20 1.61361e-20 8.68649e-22)
(5.30648e-22 2.27158e-22 -3.78153e-24)
(6.01597e-21 -5.64704e-22 -8.50205e-22)
(2.20441e-19 -2.08072e-20 -3.11621e-20)
(4.39166e-18 -4.12634e-19 -6.18621e-19)
(2.80273e-18 -1.01689e-19 -2.25337e-19)
(1.47663e-19 6.32263e-20 7.86617e-21)
(1.97266e-18 1.1368e-18 6.12768e-20)
(9.97175e-20 5.74794e-20 3.09586e-21)
(2.73316e-21 1.57554e-21 8.48464e-23)
(5.38006e-23 3.10116e-23 1.66942e-24)
(1.0915e-24 4.67856e-25 -7.61678e-27)
(1.15543e-23 -1.08242e-24 -1.63193e-24)
(3.94395e-22 -3.71563e-23 -5.5696e-23)
(7.29505e-21 -6.81625e-22 -1.02391e-21)
(7.28357e-21 -2.5284e-22 -5.73729e-22)
(2.21943e-22 8.76428e-23 1.3403e-23)
(2.44171e-21 1.40684e-21 7.57254e-23)
(1.33671e-22 7.70467e-23 4.14091e-24)
(3.94545e-24 2.27431e-24 1.22182e-25)
(8.32132e-26 4.79642e-26 2.57519e-27)
(1.79879e-27 7.72108e-28 -1.22289e-29)
(1.7859e-26 -1.6694e-27 -2.51399e-27)
(5.70978e-25 -5.36745e-26 -8.03347e-26)
(9.87617e-24 -9.16609e-25 -1.3769e-24)
(1.37894e-23 -4.67327e-25 -1.07123e-24)
)
;
    }
}


// ************************************************************************* //
