/*--------------------------------*- C++ -*----------------------------------*\
| =========                 |                                                 |
| \\      /  F ield         | OpenFOAM: The Open Source CFD Toolbox           |
|  \\    /   O peration     | Version:  2.4.0                                 |
|   \\  /    A nd           | Web:      www.OpenFOAM.org                      |
|    \\/     M anipulation  |                                                 |
\*---------------------------------------------------------------------------*/
FoamFile
{
    version     2.0;
    format      ascii;
    class       volVectorField;
    location    "0.06";
    object      Ub;
}
// * * * * * * * * * * * * * * * * * * * * * * * * * * * * * * * * * * * * * //

dimensions      [0 1 -1 0 0 0 0];

internalField   nonuniform List<vector> 
200
(
(-8883.6 18311.6 5004.23)
(-10797 11814.4 -776.069)
(-18672.5 3030.96 4981.02)
(-19255.3 5922.06 3385.64)
(-14641.7 15989.4 4591.82)
(-27509 13932.3 11772.9)
(-21616.7 11949.4 1226.52)
(-29030.8 8113.74 1371.96)
(-28857.2 9438.15 4165.37)
(-43999.8 19003.7 7765.97)
(-7808.56 6105.63 -1244.24)
(-10728.6 17592 -2026.97)
(-15811.6 15776.8 -492.204)
(-25848.1 202.98 5215.16)
(-28288.4 8182.75 11698.3)
(-30344.6 21018.3 -8906.41)
(-29309.7 4631.47 -13878.9)
(-21553.2 8989.38 -446.098)
(-29098.5 13033.8 -3555.75)
(-23711.7 19585.9 3316.63)
(108.044 3054.16 7642.15)
(-38929.4 42640.6 83628.6)
(-9395.2 22425.5 -7828.18)
(-16376 15911.3 2631.02)
(-25258 16290.9 -2939.44)
(-21577.5 9985.49 -44895.5)
(-17169.5 8148.04 -3580.66)
(-18897.7 6239.69 -15869.1)
(-14687.4 16177.7 -298.454)
(-22434.1 27548.8 -5042.83)
(-6505.38 15214.2 -622.221)
(-7159.54 9618.67 10269.6)
(-15965.2 17969.7 23862.8)
(-14834.5 15909.8 -2271.75)
(-14375 18647.9 1793.69)
(-17721.9 30160.2 -10274.6)
(-16284.6 7121.69 -56217.9)
(-7125.94 12418.3 1107.89)
(-16522.4 30523.6 -10145.8)
(-8537.95 18774.2 -3906.98)
(-9748.99 12342.9 -2098.92)
(-10367.7 13379.2 9758.79)
(-11850.6 10105.1 4011.34)
(-18086.6 3665.37 4155.91)
(-18294.8 7494.01 7526.83)
(-14050.3 17571.6 9671.5)
(-26589.9 13241.6 15775.7)
(-13606.9 11665.5 8636.17)
(-22538 11449.6 10909.6)
(-18232.8 17859.8 12131.6)
(-8873.49 15030.3 5003.66)
(-9137.6 8763.28 2253.23)
(-8109.91 10572.9 8776.24)
(-9750.5 12352.9 4330.53)
(-17370.4 8097.78 5444.27)
(-10694.1 13102.4 6671.62)
(-19320 13462.6 1396.63)
(-14783.6 7567.76 4346.91)
(-16935.5 12832.8 4269.23)
(-29026.5 26672.1 -4590.03)
(-16088.3 9769.95 6836.18)
(-2584.84 10060.3 788.248)
(-7817.47 11808.8 6401.97)
(-7756.25 13165.3 837.187)
(-1814.86 14850.8 3744.3)
(-19980.4 9856.61 1083.27)
(-10675.6 9376.55 -1812.26)
(-14690.9 8843.95 -172.939)
(-25023.2 25058.1 -10958.9)
(-9647.02 18180.7 -13821.6)
(-1802.5 14723.6 432.544)
(-6943.88 14861.7 3595.13)
(653.975 13083.8 946.816)
(-6097.07 12693.9 3614.48)
(-3516.24 13707.3 270.785)
(-4519.56 12553.6 627.362)
(-9608.07 10662.7 -1841.54)
(-21743.9 15500 -9623.96)
(-10636.1 14435.3 -2836.08)
(-16375.5 20900 -3564.45)
(-10175.5 11720 472.47)
(-14905.2 -4582.32 2099.58)
(-16851.5 4827.05 12106.5)
(-5001.11 12599.8 5819.5)
(-15544 5229.78 6312.13)
(-9507.52 2782.47 10982.7)
(-16075.3 5007.92 9494.62)
(-12474.9 8491.56 9227.98)
(-13462.3 11592.8 9967.25)
(-18714.8 20082.9 11692.3)
(-5020.94 13318.6 1655.37)
(-7298.43 14008.2 1794.43)
(-11078.3 461.627 4405.6)
(-10498.4 6778.45 10977.3)
(-3279.73 9871.19 4844.45)
(-13262.8 3454.46 6088.67)
(-4185.07 7783.68 4537.19)
(-17610 11077.8 3935.55)
(-17375.7 25251.2 9714.11)
(-29731.6 39964.8 13023.6)
(-2759.15 14790.7 5673.62)
(-2214.83 18393.1 4603.06)
(-2285.8 15103 2796.41)
(-9001.06 5635.52 5170.58)
(-8032.28 10242.4 2993.35)
(-7932.27 11178.5 2449.38)
(-9197.27 14138 134.794)
(-37631.1 56529.7 -12231.5)
(-6213.61 17027.6 -1602.57)
(-20636 18956.8 3934.23)
(-2415.41 13819.3 2162.11)
(623.134 14514.2 7100.95)
(-2143.29 18458.3 4168)
(-41.0636 17251.7 3076.88)
(-7514.35 10705.2 4558.9)
(-7607.38 12287.3 1022.01)
(-9277.61 18479.6 1471.55)
(-6598.44 20300.6 -1289.18)
(-14888 21596.6 -2275.04)
(-4348.1 9523.75 515.877)
(-1876.18 9449.15 -423.705)
(-7445.55 7100.95 -7593.84)
(-6155.42 3255.99 -4602.41)
(-4744.41 6969.88 246.813)
(-2583.1 10814.3 2011.36)
(-13984.5 3440.89 1822.35)
(-6721.99 8005.31 6829.76)
(-17142.4 3989.5 6853.32)
(-10035.2 9129.11 7718.46)
(-16164 8034.71 7085.27)
(-2412.82 12688.9 230.539)
(2366.05 13840.3 568.619)
(-9236.1 11791.9 -18502.6)
(-1774.54 -2537.58 -1008.91)
(-5636.07 8169.91 2176.46)
(-962.879 10720.9 3102.04)
(-12352.1 5641.18 3731.61)
(-4946.12 11853.4 3126.5)
(-17896.5 9166.05 2970.24)
(-10069.4 20227.9 3821.57)
(-278.103 12282.6 146.427)
(-1438.8 15360 2918.13)
(-1002.95 19369.6 2987.63)
(-1204.16 18264.6 774.29)
(-3729.54 10915.1 3923.72)
(-5549.58 10874.7 3204.41)
(-5112.01 14436.6 4307.46)
(-9540.71 14771.3 1028.27)
(-10406.8 21567.5 -499.694)
(-13787 14142.1 146.045)
(-3313.87 23419.9 1732.62)
(-3119.38 12747.5 1375.92)
(-1495.95 17135.9 5647.59)
(-4457.8 15333 2871.41)
(61.5208 17919.6 2332.7)
(-5455.02 16407.3 3903.56)
(-4850.3 15877.5 2882.71)
(-7311.77 15527.3 3969.3)
(-5693.85 16164.3 318.511)
(-6872.7 20909.8 -1302.73)
(-6284.03 16228.2 -1445.9)
(-4203.05 17477.8 -2988.23)
(-4752.48 22772.7 -4935.27)
(-8707.91 28381.2 -1757.83)
(-11181.3 12809.6 35145.5)
(-36589.4 -24016.1 31675.1)
(-13885 6575.86 6182.52)
(-17391.7 15259.1 6588.69)
(-21311.5 11718.5 4269.79)
(-12276.4 11677.6 5869.55)
(-500.891 11868.9 -1161.22)
(-2754.58 15776.2 -757.288)
(538.101 18007.8 -2494.45)
(-3918.36 22085 -7605.04)
(1316.11 21935.2 -1561.87)
(-9724.18 21881.2 13302.1)
(-6307.08 11746.1 6117.47)
(-9751.85 15348.1 2750.22)
(-5015.62 17041.4 2686.26)
(-13315.8 13486.4 2231.54)
(-265.761 14544.1 -711.239)
(750.298 13413.9 -588.93)
(-441.257 16408.8 1231.25)
(792.856 17982.9 573.12)
(430.578 21964.3 -1122.89)
(1229.27 17922.8 2201.98)
(-381.539 15996.5 1837.07)
(-495.685 16912.7 2649.38)
(-3491.91 16665.7 1964.72)
(-1558.72 21428.7 772.452)
(3356.44 11704.2 -2410.14)
(-29.7091 20083.1 2350.53)
(-599.162 13897.7 1774.55)
(605.808 19691.6 3647.51)
(153.537 18677 2343.74)
(3798.52 20882.7 1653.21)
(3006.39 15422.3 2882.26)
(3189.49 19492.7 1998.86)
(2946.43 21213.5 941.002)
(262.678 20578.8 794.185)
)
;

boundaryField
{
    inlet
    {
        type            fixedValue;
        value           nonuniform 0();
    }
    outlet
    {
        type            zeroGradient;
    }
    bottom
    {
        type            fixedValue;
        value           uniform (0 0 0);
    }
    top
    {
        type            symmetryPlane;
    }
    side1
    {
        type            symmetryPlane;
    }
    side2
    {
        type            symmetryPlane;
    }
    procBoundary10to2
    {
        type            processor;
        value           nonuniform List<vector> 
50
(
(-9798.98 8769.87 1198.93)
(-17971.9 528.355 8674.39)
(-20983.6 5448.97 13594)
(-25182 5180.73 6277.7)
(-23367 6237.24 7068.72)
(-31355.9 17210.6 -2527.91)
(-30361.5 7397.7 -3054.72)
(-44027.8 -1560.22 5531.18)
(-31211.4 6761.18 11558.4)
(-38717.6 10891.9 4020.54)
(-16762.1 15094.2 5614.1)
(-15619.8 5388.91 4163.38)
(-19893.5 -472.401 552.267)
(-19879.3 -4197.98 22924.7)
(-10015 12427.6 13552.2)
(-20834.3 7267 12529.7)
(-14621.1 11431.6 7666.64)
(-23849.7 13521.1 4024.59)
(-22020 10638.2 5801.43)
(-21079.9 11697.6 10630.5)
(-12189.8 3645.62 -1825.38)
(-28835.9 -13710.7 3426.52)
(-6143.26 23329 4735.39)
(-19519 5209.88 4331.33)
(-12284.2 -2184.71 11468.6)
(-11720.1 330.807 16069.3)
(-14440.4 2534.89 13822.6)
(-12765.3 8370.13 10504.6)
(-21229.9 19961.8 8943.85)
(-24330.8 16825.4 6702.56)
(-8712.15 3930.2 -8131.19)
(-8309.53 -946.636 -16762)
(-261.422 8016.05 -8332.53)
(-7853.08 12118.6 -4329.95)
(-21467.4 1571.38 7578.95)
(-11619 6715.34 6043.77)
(-14229.2 2606.7 8333.84)
(-10995.3 1314.46 17432.4)
(-13256.1 6423.06 8890.27)
(-15286.1 13118.4 8490.22)
(-8553.15 15994 -4492.8)
(-12115.6 17715.8 -7141.59)
(-22280.9 22790.9 -6515.21)
(-42809 -15064.7 141410)
(-21392.3 -24550.4 34552.8)
(-13946 668.22 -6201.08)
(-12751.8 7371.68 1450.08)
(-17485.1 10063.7 4105.43)
(-10453.6 16361.7 10979)
(-18289.7 3563.73 10350.8)
)
;
    }
    procBoundary10to9
    {
        type            processor;
        value           nonuniform List<vector> 
20
(
(-12326.9 -11531 4418.67)
(-10652.4 5742.11 -4882.69)
(-5386.15 9737.69 -2461.48)
(-7114.56 12603.3 -1503.66)
(-10806.9 12650.8 -330.023)
(-9729.71 8808.55 3204.64)
(-6217.19 11508 -311.541)
(-3226 16339 -987.569)
(-7568.31 9451.9 1005.5)
(-5526.36 13382.5 2496.44)
(-3946.76 12854.4 -302.56)
(-1037.92 10195.3 -1174.29)
(-4176.61 12076 319.334)
(109.002 11189.6 -367.699)
(-877.387 15030 86.7413)
(-110.401 13194.5 2930.06)
(-4195.11 9806.15 -946.465)
(-2443.59 18478.4 -440.372)
(749.69 19847.8 -5691.56)
(-1928.51 15458.4 1134.29)
)
;
    }
    procBoundary10to11
    {
        type            processor;
        value           nonuniform List<vector> 
20
(
(-38197.4 31289.1 9041.83)
(-32930.7 20306 1697.55)
(-11447.3 23516.8 -5827.09)
(-13568.1 24996.2 -2245.88)
(-27976.7 18248.6 13787.3)
(-19642 23238.9 -4846.99)
(-22046.6 17606.3 -3941.43)
(-5865.88 2391.3 -1668.11)
(-21462.3 21879.8 10856.1)
(-13373.6 20372.5 2502.64)
(-12907.4 1857.97 10385)
(-12283.2 16817.1 1500.27)
(-13135.7 15261.5 6900.76)
(-20067.3 17196.4 3505.91)
(-8890.73 20054.4 1371.43)
(-3505.33 13106.1 390.488)
(-19481.7 8037.83 4792.06)
(-7997.34 16354.7 2285.77)
(-8030.26 19610 1430.12)
(2140.92 22849.7 -1175.87)
)
;
    }
    procBoundary10to18
    {
        type            processor;
        value           nonuniform List<vector> 
50
(
(-8138.36 9856.53 -1554.21)
(-9339.28 22103.4 -710.749)
(-9812.92 20589.8 4696.1)
(-7855.2 15373.3 6989.54)
(-6985.18 13987.9 395.306)
(-4170.77 17054.7 -1237.34)
(-2361.96 16740.6 -2749.47)
(-1107.9 14456.8 -11401.6)
(3499.99 21031.9 1710.95)
(-9911.99 25625.4 -4948.36)
(3625.71 13795.4 132.649)
(2177.44 14282.4 343.861)
(874.987 15156.1 2554.91)
(1065.38 17409.7 -1645.03)
(-2161.56 12763 -756.643)
(568.04 12347.2 -592.551)
(-5641.36 13368 -3385.44)
(714.042 14175.8 -3574.49)
(-8864.21 14002.4 -79.571)
(-1744.46 -7154.79 7173.25)
(3685.5 16000.4 5260.65)
(336.564 14349.9 4230.05)
(1951.38 14473.3 6225.58)
(-497.229 18047.4 4293.66)
(3164.77 17562.7 3374.09)
(-3121.51 14277.6 3383.82)
(-1078.63 14762.5 -568.085)
(-3031.25 22685 -113.573)
(5470.77 15575.5 -1170.46)
(-3056.01 18046.7 -70.0745)
(-646.031 14792.3 6334.83)
(1872.76 27124.9 7562.51)
(-5663.65 11551.2 2094.25)
(750.692 16315.7 3868.72)
(-3757.13 16479.2 313.624)
(1751.52 19026.2 -898.112)
(-1449.34 20394.8 -736.368)
(4046.52 15356.8 -2307.75)
(-1070.1 18136.9 -1218.96)
(7603.35 14256.2 -2094.01)
(-4684.59 15971.5 3758.66)
(-413.938 16708.4 2062.14)
(126.035 29320.7 6279.89)
(-377.289 14549.6 3549.63)
(2505.05 19848.8 1596.05)
(1699.64 18005.7 334.262)
(5965.83 18998.7 697.622)
(3533.83 19510 831.848)
(6837.79 19903.6 486.372)
(5790.48 22787.6 -788.131)
)
;
    }
}


// ************************************************************************* //
