/*--------------------------------*- C++ -*----------------------------------*\
| =========                 |                                                 |
| \\      /  F ield         | OpenFOAM: The Open Source CFD Toolbox           |
|  \\    /   O peration     | Version:  2.4.0                                 |
|   \\  /    A nd           | Web:      www.OpenFOAM.org                      |
|    \\/     M anipulation  |                                                 |
\*---------------------------------------------------------------------------*/
FoamFile
{
    version     2.0;
    format      ascii;
    class       volVectorField;
    location    "0.04";
    object      Uc;
}
// * * * * * * * * * * * * * * * * * * * * * * * * * * * * * * * * * * * * * //

dimensions      [0 1 -1 0 0 0 0];

internalField   nonuniform List<vector> 
200
(
(1.43767e-18 -1.65401e-18 2.77379e-19)
(7.10936e-20 -8.15786e-20 1.36917e-20)
(1.93409e-21 -2.21527e-21 3.70449e-22)
(6.29996e-23 -7.90332e-22 -1.2697e-22)
(3.54878e-21 -1.05691e-19 -1.89851e-20)
(4.7758e-19 -1.42258e-17 -2.55537e-18)
(6.051e-17 -1.80242e-15 -3.23765e-16)
(7.10953e-15 -2.11773e-13 -3.80398e-14)
(7.58046e-13 -2.25801e-11 -4.05589e-12)
(7.09571e-11 -2.11364e-09 -3.7965e-10)
(5.05429e-21 -9.51833e-21 1.60421e-21)
(2.70817e-22 -5.13044e-22 8.65503e-23)
(7.94495e-24 -1.51237e-23 2.54096e-24)
(3.65679e-25 -6.03478e-24 -9.88982e-25)
(2.62245e-23 -7.56722e-22 -1.37778e-22)
(3.27774e-21 -9.48582e-20 -1.72387e-20)
(3.83421e-19 -1.11353e-17 -2.01877e-18)
(4.13071e-17 -1.20501e-15 -2.1783e-16)
(4.00573e-15 -1.17549e-13 -2.11828e-14)
(3.37723e-13 -9.99218e-12 -1.79586e-12)
(1.25038e-19 -1.10205e-18 1.86682e-19)
(6.2964e-21 -5.54932e-20 9.39876e-21)
(1.74008e-22 -1.52763e-21 2.5863e-22)
(3.49167e-24 -3.01056e-23 5.08592e-24)
(5.03448e-24 -1.33804e-24 -7.60052e-25)
(7.32814e-22 -1.02409e-23 -1.01718e-22)
(1.03649e-19 1.31898e-20 -1.17128e-20)
(1.39725e-17 3.5081e-18 -1.26574e-18)
(1.77615e-15 6.34734e-16 -1.26991e-16)
(2.098e-13 9.36099e-14 -1.16898e-14)
(2.36212e-17 -2.08209e-16 3.52761e-17)
(1.08381e-18 -9.5531e-18 1.61827e-18)
(2.74955e-20 -2.41567e-19 4.07562e-20)
(5.07352e-22 -4.40663e-21 7.37101e-22)
(2.95333e-22 1.07172e-22 2.1563e-25)
(4.53136e-20 2.78412e-20 -1.22408e-21)
(6.89991e-18 4.25367e-18 -1.78609e-19)
(1.00617e-15 6.20294e-16 -2.60431e-17)
(1.39081e-13 8.57435e-14 -3.59974e-15)
(1.79767e-11 1.10828e-11 -4.65265e-13)
(9.46447e-16 -1.08957e-15 1.82684e-16)
(4.29903e-17 -4.94489e-17 8.29319e-18)
(1.08026e-18 -1.24072e-18 2.0817e-19)
(1.96751e-20 -2.2559e-20 3.78514e-21)
(3.11352e-22 -9.69406e-22 -5.95916e-23)
(2.71146e-21 -8.04328e-20 -1.45161e-20)
(3.19378e-19 -9.50519e-18 -1.71287e-18)
(3.47358e-17 -1.03672e-15 -1.86453e-16)
(3.40605e-15 -1.02068e-13 -1.83165e-14)
(2.90964e-13 -8.76877e-12 -1.57049e-12)
(3.13552e-18 -6.50856e-18 1.09688e-18)
(1.55616e-19 -3.26604e-19 5.50579e-20)
(4.24665e-21 -8.9808e-21 1.51503e-21)
(8.3485e-23 -1.77226e-22 3.02267e-23)
(3.50025e-25 -1.09427e-23 3.98584e-23)
(-1.24297e-22 -9.89656e-22 4.98752e-21)
(-1.49082e-20 -1.12678e-19 5.92089e-19)
(-1.64989e-18 -1.1825e-17 6.4882e-17)
(-1.64835e-16 -1.11849e-15 6.41859e-15)
(-1.4372e-14 -9.21308e-14 5.54155e-13)
(1.0733e-16 -9.46004e-16 1.602e-16)
(4.98514e-18 -4.39382e-17 7.43917e-18)
(1.27629e-19 -1.12276e-18 1.90035e-19)
(2.36159e-21 -2.06628e-20 3.49745e-21)
(3.60689e-23 -3.09523e-22 5.02451e-23)
(1.64451e-23 -6.96264e-23 4.28496e-23)
(3.87176e-22 -6.49816e-22 8.83732e-21)
(5.47534e-20 -5.40808e-20 8.98111e-19)
(7.1541e-18 -3.41096e-18 8.18727e-17)
(8.50402e-16 -7.78653e-17 6.46582e-15)
(2.25337e-14 -1.98623e-13 3.36434e-14)
(9.44116e-16 -8.32185e-15 1.40929e-15)
(2.19966e-17 -1.93649e-16 3.27254e-17)
(3.73519e-19 -3.27615e-18 5.51339e-19)
(5.5344e-21 -4.66071e-20 6.46225e-21)
(7.21027e-21 -3.05432e-20 -1.91568e-20)
(4.00638e-20 2.28088e-20 -2.00688e-21)
(5.3751e-18 3.31308e-18 -1.32508e-19)
(6.85989e-16 4.22862e-16 -1.71909e-17)
(8.12955e-14 5.01155e-14 -2.06282e-15)
(4.57491e-13 -5.26669e-13 8.83055e-14)
(1.8932e-14 -2.17947e-14 3.65426e-15)
(4.36402e-16 -5.02388e-16 8.42336e-17)
(7.33957e-18 -8.44933e-18 1.41666e-18)
(1.00213e-19 -1.15651e-19 1.95818e-20)
(-2.55256e-20 -6.65306e-21 2.5304e-20)
(-3.16546e-18 -6.25085e-19 2.97261e-18)
(-3.46285e-16 -6.81868e-17 3.25289e-16)
(-3.41978e-14 -6.71535e-15 3.21356e-14)
(-2.94728e-12 -5.77224e-13 2.7707e-12)
(1.45164e-15 -3.51182e-15 5.9207e-16)
(6.63593e-17 -1.63232e-16 2.75178e-17)
(1.67646e-18 -4.17787e-18 7.04378e-19)
(3.06701e-20 -7.71086e-20 1.31012e-20)
(8.22836e-23 -2.21645e-21 1.323e-20)
(-5.02663e-20 -1.44893e-19 1.76604e-18)
(-6.4107e-18 -1.84902e-17 2.25434e-16)
(-7.59099e-16 -2.19158e-15 2.6721e-14)
(-8.17215e-14 -2.36149e-13 2.87938e-12)
(-7.74278e-12 -2.23927e-11 2.73044e-10)
(7.56568e-14 -6.66855e-13 1.1287e-13)
(3.21982e-15 -2.83799e-14 4.80224e-15)
(7.59283e-17 -6.68865e-16 1.13143e-16)
(1.30117e-18 -1.14326e-17 1.93409e-18)
(1.82163e-20 -1.58828e-19 2.65962e-20)
(1.98898e-21 -1.50576e-20 1.93545e-20)
(-8.74777e-20 -2.5406e-19 3.08998e-18)
(-9.58147e-18 -2.77298e-17 3.38133e-16)
(-9.45965e-16 -2.73908e-15 3.34006e-14)
(-8.15118e-14 -2.3613e-13 2.87946e-12)
(1.78718e-11 -1.57531e-10 2.66717e-11)
(6.77632e-13 -5.97297e-12 1.01102e-12)
(1.4393e-14 -1.26847e-13 2.14508e-14)
(2.24346e-16 -1.97506e-15 3.33488e-16)
(2.93025e-18 -2.54365e-17 4.03674e-18)
(1.42072e-18 -6.38031e-18 -3.84344e-18)
(7.00249e-20 -3.12133e-19 -1.73108e-19)
(-4.80401e-20 -1.88032e-19 2.30399e-18)
(-4.12187e-18 -1.61645e-17 2.10899e-16)
(-2.68469e-16 -1.24595e-15 1.66873e-14)
(1.22859e-10 -1.41437e-10 2.37146e-11)
(4.58559e-12 -5.27905e-12 8.85131e-13)
(9.61634e-14 -1.10707e-13 1.8562e-14)
(1.48309e-15 -1.70739e-15 2.86275e-16)
(1.86682e-17 -2.15797e-17 3.64746e-18)
(-8.94357e-18 -1.61653e-18 4.23004e-18)
(-1.1676e-15 -1.76162e-16 5.349e-16)
(-1.38369e-13 -2.08774e-14 6.34022e-14)
(-1.49072e-11 -2.24935e-12 6.83199e-12)
(-1.41333e-09 -2.1327e-10 6.47857e-10)
(4.0338e-13 -1.31182e-12 2.21252e-13)
(1.69205e-14 -5.62932e-14 9.49238e-15)
(3.94395e-16 -1.33579e-15 2.25206e-16)
(6.69413e-18 -2.29691e-17 3.88852e-18)
(2.74317e-20 -5.05007e-19 2.31439e-18)
(-9.44313e-18 -2.70584e-17 3.29762e-16)
(-1.30336e-15 -3.74096e-15 4.56012e-14)
(-1.68219e-13 -4.83695e-13 5.89655e-12)
(-1.99051e-11 -5.73295e-11 6.98929e-10)
(-2.09399e-09 -6.04003e-09 7.36413e-08)
(3.91894e-11 -3.45429e-10 5.84065e-11)
(1.51675e-12 -1.33692e-11 2.25964e-12)
(3.27276e-14 -2.88475e-13 4.87381e-14)
(5.16419e-16 -4.54841e-15 7.68345e-16)
(6.64635e-18 -5.84599e-17 9.90931e-18)
(-5.4715e-20 -1.01998e-18 4.63022e-18)
(-1.64094e-17 -4.73358e-17 5.7705e-16)
(-1.94317e-15 -5.60989e-15 6.83993e-14)
(-2.09195e-13 -6.04492e-13 7.37061e-12)
(-1.98206e-11 -5.73217e-11 6.98953e-10)
(1.05812e-08 -9.32677e-08 1.57777e-08)
(3.59155e-10 -3.16577e-09 5.35328e-10)
(6.89311e-12 -6.07592e-11 1.02701e-11)
(9.79185e-14 -8.63097e-13 1.4583e-13)
(1.14597e-15 -1.0101e-14 1.70598e-15)
(1.16958e-17 -1.03072e-16 1.74094e-17)
(-4.38664e-21 -1.27236e-18 4.10237e-18)
(-1.2278e-17 -3.54043e-17 4.31995e-16)
(-1.21208e-15 -3.50328e-15 4.27286e-14)
(-1.04427e-13 -3.02261e-13 3.68571e-12)
(5.17426e-13 -1.04771e-12 1.75594e-13)
(2.1611e-14 -4.50791e-14 7.55199e-15)
(5.01978e-16 -1.07217e-15 1.79531e-16)
(8.42064e-18 -1.84867e-17 3.09105e-18)
(-1.1463e-17 -1.55361e-18 -3.7813e-19)
(-1.68862e-15 -1.88978e-16 -6.14874e-17)
(-2.33416e-13 -2.61218e-14 -8.50692e-15)
(-3.01698e-11 -3.37633e-12 -1.10052e-12)
(-3.57462e-09 -4.00039e-10 -1.30507e-10)
(-3.76478e-07 -4.2132e-08 -1.3757e-08)
(2.78728e-11 -2.45675e-10 4.13703e-11)
(1.10968e-12 -9.78082e-12 1.64584e-12)
(2.44522e-14 -2.15527e-13 3.62394e-14)
(3.92116e-16 -3.45318e-15 5.80345e-16)
(4.94087e-18 -4.49652e-17 7.55854e-18)
(-2.3151e-17 -3.24104e-18 1.00273e-18)
(-2.96136e-15 -3.49224e-16 1.17185e-16)
(-3.50875e-13 -4.13775e-14 1.389e-14)
(-3.77942e-11 -4.45701e-12 1.49676e-12)
(-3.5825e-09 -4.22486e-10 1.41936e-10)
(1.1288e-08 -9.94972e-08 1.67715e-08)
(3.94119e-10 -3.47396e-09 5.85136e-10)
(7.72441e-12 -6.80866e-11 1.14592e-11)
(1.11509e-13 -9.82888e-13 1.65292e-13)
(1.32178e-15 -1.16507e-14 1.95771e-15)
(1.34521e-17 -1.20107e-16 2.01819e-17)
(-2.02253e-17 -3.62376e-18 2.52364e-18)
(-2.2259e-15 -2.75065e-16 2.56016e-16)
(-2.19784e-13 -2.72132e-14 2.53259e-14)
(-1.89396e-11 -2.34709e-12 2.18488e-12)
(3.55578e-06 -3.13423e-05 5.28838e-06)
(1.06657e-07 -9.40127e-07 1.58503e-07)
(1.83023e-09 -1.61325e-08 2.71773e-09)
(2.34911e-11 -2.07062e-10 3.4854e-11)
(2.50635e-13 -2.20923e-12 3.7157e-13)
(2.34862e-15 -2.0702e-14 3.47904e-15)
(1.98768e-17 -1.76102e-16 2.95871e-17)
(-1.00401e-17 -2.70141e-18 2.16334e-18)
(-9.29539e-16 -1.2031e-16 1.76718e-16)
(-7.34281e-14 -9.53149e-15 1.39955e-14)
)
;

boundaryField
{
    inlet
    {
        type            calculated;
        value           uniform (0 0 0);
    }
    outlet
    {
        type            calculated;
        value           nonuniform 0();
    }
    bottom
    {
        type            calculated;
        value           uniform (0 0 0);
    }
    top
    {
        type            symmetryPlane;
    }
    side1
    {
        type            symmetryPlane;
    }
    side2
    {
        type            symmetryPlane;
    }
    procBoundary8to0
    {
        type            processor;
        value           nonuniform List<vector> 
50
(
(3.7013e-16 -4.26094e-16 7.14425e-17)
(1.68141e-17 -1.93564e-17 3.24545e-18)
(4.22559e-19 -4.86657e-19 8.14908e-20)
(9.39658e-21 -5.94905e-20 -7.6108e-21)
(2.59055e-19 -7.71373e-18 -1.38555e-18)
(3.77597e-17 -1.12482e-15 -2.02048e-16)
(5.21948e-15 -1.55483e-13 -2.79288e-14)
(6.74637e-13 -2.00967e-11 -3.6099e-12)
(7.99332e-11 -2.38113e-09 -4.27714e-10)
(8.41854e-09 -2.5078e-07 -4.50467e-08)
(2.68062e-13 -3.08594e-13 5.17415e-14)
(1.10931e-14 -1.27703e-14 2.14118e-15)
(2.55706e-16 -2.94369e-16 4.93563e-17)
(4.30058e-18 -4.95112e-18 8.30036e-19)
(6.03327e-20 -1.12108e-19 3.38808e-21)
(2.02427e-19 -6.00981e-18 -1.07925e-18)
(2.57457e-17 -7.66887e-16 -1.37753e-16)
(3.05107e-15 -9.08821e-14 -1.63248e-14)
(3.28708e-13 -9.79124e-12 -1.75875e-12)
(3.11645e-11 -9.28298e-10 -1.66746e-10)
(1.43975e-10 -1.65744e-10 2.779e-11)
(5.37372e-12 -6.18623e-12 1.03724e-12)
(1.12691e-13 -1.2973e-13 2.17517e-14)
(1.73799e-15 -2.00077e-15 3.35467e-16)
(2.19559e-17 -2.52758e-17 4.23792e-18)
(2.42037e-19 -2.94204e-19 4.3578e-20)
(2.16224e-19 -2.05944e-18 -3.37623e-19)
(2.86519e-17 -2.25637e-16 -3.69872e-17)
(3.6003e-15 -2.23556e-14 -3.64283e-15)
(4.18422e-13 -1.93269e-12 -3.1106e-13)
(4.34978e-08 -5.00747e-08 8.39596e-09)
(1.44622e-09 -1.66489e-09 2.7915e-10)
(2.73155e-11 -3.14455e-11 5.27243e-12)
(3.83118e-13 -4.41045e-13 7.39494e-14)
(4.43757e-15 -5.10853e-15 8.5654e-16)
(4.47557e-17 -5.16827e-17 8.69163e-18)
(-1.42589e-17 -2.42925e-18 3.50095e-18)
(-1.59346e-15 -2.12856e-16 3.74799e-16)
(-1.56059e-13 -2.08729e-14 3.70685e-14)
(-1.33155e-11 -1.78378e-12 3.20047e-12)
(1.44243e-10 -1.66053e-10 2.77384e-11)
(5.38482e-12 -6.19905e-12 1.0351e-12)
(1.12947e-13 -1.30026e-13 2.17025e-14)
(1.74229e-15 -2.00574e-15 3.3464e-16)
(2.18561e-17 -2.53615e-17 4.22087e-18)
(-2.11162e-17 -2.66768e-18 -7.30797e-19)
(-2.70601e-15 -3.02817e-16 -9.85406e-17)
(-3.17939e-13 -3.55786e-14 -1.15876e-14)
(-3.38999e-11 -3.79354e-12 -1.23654e-12)
(-3.17321e-09 -3.55098e-10 -1.15843e-10)
)
;
    }
    procBoundary8to9
    {
        type            processor;
        value           nonuniform List<vector> 
20
(
(5.5165e-09 -1.64331e-07 -2.95181e-08)
(2.3374e-11 -6.92373e-10 -1.2433e-10)
(2.25446e-11 1.16653e-11 -9.7403e-13)
(2.12994e-09 1.31313e-09 -5.51252e-11)
(2.04575e-11 -6.18134e-10 -1.10609e-10)
(-1.03375e-12 -6.21005e-12 3.9477e-11)
(9.00348e-14 1.77703e-14 4.17407e-13)
(8.75841e-12 5.3995e-12 -2.24233e-13)
(-2.09532e-10 -4.09259e-11 1.97092e-10)
(-6.11395e-10 -1.76953e-09 2.15774e-08)
(-5.79495e-12 -1.67946e-11 2.04805e-10)
(-1.02973e-14 -7.64617e-14 1.07944e-12)
(-1.11666e-07 -1.68512e-08 5.11968e-08)
(-1.85898e-07 -5.3694e-07 6.54685e-06)
(-1.56511e-09 -4.52979e-09 5.52358e-08)
(-7.42309e-12 -2.14976e-11 2.62147e-10)
(-3.34558e-05 -3.74408e-06 -1.22358e-06)
(-2.82994e-07 -3.33743e-08 1.12167e-08)
(-1.34653e-09 -1.6687e-10 1.55422e-10)
(-4.74597e-12 -6.1646e-13 9.05499e-13)
)
;
    }
    procBoundary8to16
    {
        type            processor;
        value           nonuniform List<vector> 
50
(
(2.47945e-15 -2.1855e-14 3.7035e-15)
(1.02624e-16 -9.04572e-16 1.53258e-16)
(2.37896e-18 -2.08463e-17 3.44994e-18)
(4.05227e-20 -3.5032e-19 5.48308e-20)
(1.01187e-21 -6.71932e-21 -5.58322e-22)
(8.74027e-21 -3.50803e-20 -2.25957e-20)
(9.49884e-20 5.63421e-20 -3.68362e-21)
(1.27259e-17 7.84488e-18 -3.29354e-19)
(1.61238e-15 9.93973e-16 -4.17242e-17)
(1.89444e-13 1.16787e-13 -4.90231e-15)
(2.66142e-12 -2.3459e-11 3.97449e-12)
(9.93468e-14 -8.75687e-13 1.4833e-13)
(2.08885e-15 -1.83625e-14 3.07687e-15)
(3.24077e-17 -2.83128e-16 4.62598e-17)
(5.77917e-19 -4.29684e-18 9.85336e-20)
(3.26036e-18 -1.43443e-17 -9.11171e-18)
(1.65243e-19 -7.23293e-19 -4.60933e-19)
(7.82207e-20 2.43634e-20 -1.44494e-20)
(8.68475e-18 5.23669e-18 -2.19833e-19)
(9.43655e-16 5.7454e-16 -2.41522e-17)
(2.4126e-09 -2.12657e-08 3.60166e-09)
(8.0226e-11 -7.07148e-10 1.19733e-10)
(1.51664e-12 -1.33575e-11 2.25379e-12)
(2.13133e-14 -1.87354e-13 3.13658e-14)
(2.80922e-16 -2.31616e-15 2.65363e-16)
(7.2073e-16 -3.17765e-15 -2.00773e-15)
(3.33164e-17 -1.46484e-16 -9.3202e-17)
(8.54152e-19 -3.70015e-18 -2.3461e-18)
(1.79394e-18 -6.6973e-19 7.09868e-19)
(2.60326e-16 -8.30076e-17 4.14063e-17)
(1.66663e-06 -1.46905e-05 2.48632e-06)
(4.85998e-08 -4.28381e-07 7.2473e-08)
(8.16702e-10 -7.19879e-09 1.21738e-09)
(1.03153e-11 -9.09239e-11 1.53698e-11)
(1.08666e-13 -9.57831e-13 1.61844e-13)
(1.01105e-15 -8.8975e-15 1.49126e-15)
(8.66307e-18 -7.56377e-17 1.22065e-17)
(1.51117e-20 -7.63828e-19 2.02613e-18)
(-5.09861e-18 -1.44649e-17 1.77555e-16)
(-4.0227e-16 -1.15434e-15 1.41178e-14)
(0.000672077 -0.00592399 0.00100055)
(1.68376e-05 -0.000148415 2.50465e-05)
(2.47811e-07 -2.18432e-06 3.68324e-07)
(2.78376e-09 -2.45374e-08 4.13414e-09)
(2.64039e-11 -2.32736e-10 3.91799e-11)
(2.22694e-13 -1.96293e-12 3.30176e-13)
(1.72206e-15 -1.51791e-14 2.55111e-15)
(1.24158e-17 -1.09775e-16 1.84432e-17)
(-3.10481e-18 -1.17094e-18 9.49313e-19)
(-2.32813e-16 -3.09608e-17 6.08284e-17)
)
;
    }
}


// ************************************************************************* //
