/*--------------------------------*- C++ -*----------------------------------*\
| =========                 |                                                 |
| \\      /  F ield         | OpenFOAM: The Open Source CFD Toolbox           |
|  \\    /   O peration     | Version:  2.4.0                                 |
|   \\  /    A nd           | Web:      www.OpenFOAM.org                      |
|    \\/     M anipulation  |                                                 |
\*---------------------------------------------------------------------------*/
FoamFile
{
    version     2.0;
    format      ascii;
    class       volScalarField;
    location    "0.11";
    object      p;
}
// * * * * * * * * * * * * * * * * * * * * * * * * * * * * * * * * * * * * * //

dimensions      [1 -1 -2 0 0 0 0];

internalField   nonuniform List<scalar> 
200
(
1.77872e+16
5.90976e+15
-5.01231e+16
-2.34833e+16
-2.17498e+17
-1.78292e+17
-2.10074e+17
-1.46842e+17
-1.37825e+17
-9.61808e+16
8.38426e+16
4.56376e+16
1.19308e+17
-1.00796e+17
-1.41024e+17
-4.50807e+17
-2.26846e+17
-1.83549e+17
-1.17403e+17
-1.25748e+17
1.82508e+17
3.60993e+17
1.80245e+17
1.18305e+16
-3.91434e+17
-1.94331e+17
-2.30324e+17
-7.54038e+16
-1.25476e+17
-5.6764e+16
3.5759e+17
4.39149e+17
4.97244e+17
2.93426e+17
1.44176e+17
-3.45637e+16
7.44059e+16
-1.59099e+16
4.86938e+16
-1.92741e+16
-3.53491e+16
-2.72381e+16
-4.53944e+16
-8.3594e+16
-6.10171e+16
-1.6254e+17
-1.01991e+17
-1.55574e+17
-1.28047e+17
-1.19244e+17
1.53736e+16
7.49378e+15
-2.83136e+16
3.7463e+15
-2.60666e+17
-2.15373e+17
-3.06074e+17
-1.94721e+17
-1.76365e+17
-1.35251e+17
7.02316e+16
7.72946e+16
1.77086e+17
-1.4311e+17
-2.94176e+17
-6.59677e+17
-3.29527e+17
-2.62133e+17
-1.70592e+17
-1.77146e+17
9.74435e+16
2.17329e+17
1.34133e+17
5.12029e+16
-2.60092e+17
-2.18009e+17
-2.99783e+17
-1.2198e+17
-1.57672e+17
-7.54808e+16
-1.83104e+16
-2.88574e+16
-2.68891e+16
-4.36475e+16
-5.64567e+16
-4.96569e+16
-9.27403e+16
-7.93903e+16
-1.18492e+17
-9.61685e+16
-9.68049e+15
-6.58162e+15
-2.05689e+16
-4.03226e+16
-4.43413e+16
-1.18592e+17
-8.99634e+16
-1.31112e+17
-1.13881e+17
-1.12433e+17
1.97262e+16
1.68465e+16
7.9574e+15
2.81345e+16
-1.34372e+17
-1.52055e+17
-3.07776e+17
-1.54758e+17
-1.27881e+17
-1.04889e+17
3.19903e+16
3.62875e+16
7.25429e+16
5.73855e+15
6.61397e+15
-1.30811e+17
-8.68957e+16
-1.44935e+17
-5.85693e+16
-9.10971e+16
-1.80083e+16
-2.36992e+16
-3.34515e+16
-3.21398e+16
-4.39642e+16
-4.66546e+16
-5.19141e+16
-8.40974e+16
-7.18593e+16
-8.34447e+16
-2.34586e+15
-1.72266e+16
-1.7138e+16
-3.20768e+16
-3.87779e+16
-4.19342e+16
-8.52829e+16
-7.15181e+16
-9.41538e+16
-7.31507e+16
5.55034e+15
1.55327e+15
-1.02604e+16
-2.45602e+16
-1.86679e+16
-1.05194e+17
-8.10524e+16
-1.28189e+17
-7.37151e+16
-7.35271e+16
2.12657e+16
1.54815e+16
-9.49579e+14
1.60916e+16
-2.3444e+16
-7.60541e+13
-8.80822e+16
-2.82403e+16
-8.22786e+16
-4.4368e+16
1.1405e+15
-1.05954e+16
-1.79898e+16
-3.18151e+16
-3.79248e+16
-5.21253e+16
-5.82753e+16
-6.87391e+16
-7.60438e+16
-7.64932e+16
1.30332e+15
-4.71575e+15
-2.30123e+16
-2.91699e+16
-4.60274e+16
-5.33701e+16
-6.10317e+16
-8.38322e+16
-7.80313e+16
-7.20553e+16
1.18324e+16
-4.0417e+15
-1.51764e+16
-2.8792e+16
-4.30499e+16
-4.89543e+16
-9.46479e+16
-8.316e+16
-7.61278e+16
-7.2742e+16
2.58981e+16
7.69911e+15
-8.80793e+15
-3.48349e+16
-3.71627e+16
-7.41028e+16
-5.39284e+16
-7.15434e+16
-3.89457e+16
-4.42779e+16
)
;

boundaryField
{
    inlet
    {
        type            zeroGradient;
    }
    outlet
    {
        type            fixedValue;
        value           nonuniform 0();
    }
    bottom
    {
        type            zeroGradient;
    }
    top
    {
        type            symmetryPlane;
    }
    side1
    {
        type            symmetryPlane;
    }
    side2
    {
        type            symmetryPlane;
    }
    procBoundary28to20
    {
        type            processor;
        value           nonuniform List<scalar> 
50
(
1.79551e+16
-4.36486e+15
-2.79555e+16
-7.78607e+16
-7.78866e+16
-1.24041e+17
-6.35574e+16
-9.27029e+16
-7.19383e+16
-7.84081e+16
-4.28146e+16
-6.43155e+16
-5.79157e+16
-7.58694e+16
-1.04872e+17
-8.47233e+16
-1.31474e+17
-8.22277e+16
-1.11962e+17
-8.59205e+16
-4.21018e+16
-3.69593e+16
-4.24118e+16
-4.17441e+16
-6.01898e+16
-8.16258e+16
-7.80011e+16
-1.05194e+17
-8.1721e+16
-9.66985e+16
-2.92142e+16
-3.48059e+16
-4.19893e+16
-4.51305e+16
-5.05577e+16
-5.71628e+16
-6.0984e+16
-6.65705e+16
-7.81813e+16
-7.54955e+16
-7.93468e+15
-1.488e+16
-2.38345e+16
-2.95213e+16
-3.77805e+16
-4.24665e+16
-5.12694e+16
-5.57738e+16
-6.10845e+16
-6.19085e+16
)
;
    }
    procBoundary28to27
    {
        type            processor;
        value           nonuniform List<scalar> 
20
(
2.50168e+16
7.7708e+16
1.53965e+17
1.94079e+17
-1.72468e+16
2.10714e+15
5.70673e+16
6.76601e+16
-1.96446e+16
1.4981e+15
1.2122e+16
3.11071e+16
-8.64816e+15
-1.71551e+15
1.29417e+16
2.66793e+16
7.99258e+15
1.33269e+16
2.02375e+16
3.69873e+16
)
;
    }
    procBoundary28to29
    {
        type            processor;
        value           nonuniform List<scalar> 
20
(
-9.15635e+16
-7.83921e+16
-8.2643e+16
-6.58435e+15
-9.76192e+16
-1.19836e+17
-1.10759e+17
-9.57064e+16
-9.20098e+16
-9.63581e+16
-1.03327e+17
-5.98624e+16
-7.67342e+16
-7.1973e+16
-6.70133e+16
-6.26817e+16
-7.52353e+16
-6.95618e+16
-6.49397e+16
-4.89777e+16
)
;
    }
}


// ************************************************************************* //
