/*--------------------------------*- C++ -*----------------------------------*\
| =========                 |                                                 |
| \\      /  F ield         | OpenFOAM: The Open Source CFD Toolbox           |
|  \\    /   O peration     | Version:  2.4.0                                 |
|   \\  /    A nd           | Web:      www.OpenFOAM.org                      |
|    \\/     M anipulation  |                                                 |
\*---------------------------------------------------------------------------*/
FoamFile
{
    version     2.0;
    format      ascii;
    class       surfaceScalarField;
    location    "0.16";
    object      phib;
}
// * * * * * * * * * * * * * * * * * * * * * * * * * * * * * * * * * * * * * //

dimensions      [0 3 -1 0 0 0 0];

internalField   nonuniform List<scalar> 
490
(
4.15564e+09
-6.35516e+09
1.2363e+09
5.65694e+09
-5.9249e+09
-1.26313e+09
7.49252e+09
-5.77018e+09
-9.76763e+08
1.51187e+10
-6.52271e+09
-3.4699e+09
2.11224e+10
-6.03688e+09
-3.85091e+09
3.22351e+10
-6.03498e+09
-6.06892e+09
4.09025e+10
-5.00837e+09
-7.74581e+09
5.18579e+10
-2.52198e+09
-1.09085e+10
5.83983e+10
6.88326e+09
-1.00576e+10
1.17202e+10
-1.0289e+10
6.34199e+09
-6.55951e+09
-2.53322e+09
7.01352e+09
-5.84065e+09
-7.55778e+08
1.11033e+10
-6.77773e+09
-3.08225e+09
1.55662e+10
-7.03411e+09
-3.95147e+09
2.39595e+10
-8.23066e+09
-6.19953e+09
3.51245e+10
-9.20601e+09
-7.99393e+09
5.38916e+10
-1.1214e+10
-1.25615e+10
8.22749e+10
-1.29763e+10
-1.7929e+10
1.1827e+11
-6.63247e+09
-2.24788e+10
6.30522e+09
-1.43229e+10
3.79763e+09
-4.94196e+09
-1.49058e+09
6.87158e+09
-5.72003e+09
-3.19458e+09
1.01699e+10
-5.98105e+09
-4.095e+09
1.61863e+10
-6.81641e+09
-6.23407e+09
2.34097e+10
-7.8786e+09
-7.57551e+09
3.48873e+10
-8.45426e+09
-1.22293e+10
5.32848e+10
-1.01508e+10
-1.94607e+10
7.8212e+10
-1.12934e+10
-2.66101e+10
9.97182e+10
-6.15345e+09
-2.19852e+10
-1.21949e+09
-1.79218e+10
2.60368e+09
-2.53916e+09
5.44456e+09
-2.85808e+09
1.01213e+10
-4.45254e+09
1.6778e+10
-5.79227e+09
2.6073e+10
-8.58526e+09
3.79517e+10
-1.14589e+10
5.3187e+10
-1.71829e+10
6.65753e+10
-1.74505e+10
9.15483e+10
-2.48373e+10
-2.20873e+10
-3.636e+09
-7.20284e+09
-1.92394e+09
-2.48873e+09
-7.77522e+09
-1.20222e+09
1.69312e+09
-8.83236e+09
-3.46158e+09
1.71793e+09
-7.74078e+09
-4.09755e+09
6.27028e+09
-9.50358e+09
-6.32558e+09
9.13816e+09
-1.10369e+10
-6.518e+09
1.77811e+10
-1.67864e+10
-9.67286e+09
2.85092e+10
-2.19954e+10
-1.39919e+10
4.43381e+10
-2.25286e+10
-1.87601e+10
-1.49004e+10
-1.31732e+10
-6.1188e+09
-7.06798e+09
-1.08585e+09
-3.60841e+09
-7.90298e+09
-3.1384e+09
-4.62873e+09
-7.11624e+09
-3.77805e+09
-2.47257e+09
-7.09772e+09
-6.7507e+09
-3.33534e+09
-7.18575e+09
-7.65459e+09
-4.66988e+08
-1.26435e+10
-9.25568e+09
1.91313e+09
-1.89616e+10
-1.27664e+10
6.64733e+09
-2.29313e+10
-2.17273e+10
5.30538e+09
-2.28707e+10
-2.07948e+10
-1.98282e+10
3.74365e+09
-6.21771e+09
-4.48774e+09
-4.27776e+09
-8.76603e+09
-4.61681e+09
-3.93243e+09
-9.98252e+09
-3.66244e+09
-6.33231e+09
-1.45993e+10
-2.00383e+09
-6.71119e+09
-1.85921e+10
-2.67679e+09
-8.09164e+09
-2.96496e+10
-2.1014e+09
-1.17139e+10
-4.34362e+10
-3.21859e+09
-2.14172e+10
-6.09521e+10
-2.60281e+09
-2.94227e+10
-8.83987e+10
3.1678e+09
-2.05771e+10
-8.46157e+09
-1.68484e+10
-7.45085e+09
-2.75355e+09
-8.23158e+09
-4.71954e+09
-1.013e+10
-4.64169e+09
-1.03724e+10
-6.55257e+09
-1.36672e+10
-7.95133e+09
-1.80032e+10
-9.61098e+09
-2.72272e+10
-1.40819e+10
-2.83841e+10
-2.69169e+10
-3.72475e+10
-2.96929e+10
-1.72045e+10
2.8612e+09
-7.50452e+09
-8.55838e+08
2.14785e+09
-7.41265e+09
-5.08363e+08
5.95365e+08
-1.0475e+10
-1.69728e+09
1.15801e+07
-1.16598e+10
-2.45583e+09
-2.56241e+09
-1.15109e+10
-3.08935e+09
1.75181e+09
-1.64679e+10
-4.92109e+09
2.41123e+09
-1.97078e+10
-3.93586e+09
8.46583e+09
-3.56722e+10
-5.96747e+09
-7.52174e+08
-4.08471e+10
-1.36792e+10
-4.04446e+09
-1.58963e+10
-6.97894e+07
-4.3115e+09
2.58961e+08
-2.71012e+09
-7.18423e+09
-7.2649e+08
-7.66526e+09
-7.47533e+09
-1.82258e+09
-1.55707e+10
-7.76846e+09
-2.73656e+09
-1.93791e+10
-1.13274e+10
-4.02968e+09
-2.73712e+10
-1.49544e+10
-2.77695e+09
-3.41021e+10
-2.27397e+10
-3.00366e+09
-6.20956e+10
-2.72087e+10
-2.19729e+09
-8.84531e+10
-2.68991e+10
-8.38526e+09
-8.32467e+09
8.82017e+09
-9.26884e+09
-3.37141e+09
-1.61762e+09
-1.46678e+10
-3.59626e+09
-2.12145e+09
-2.359e+10
-2.28934e+09
-2.59612e+09
-3.28471e+10
-1.55872e+09
-3.66375e+09
-5.12125e+10
8.91047e+08
-1.94472e+09
-7.9334e+10
1.34985e+09
1.03297e+08
-1.24417e+11
6.70511e+07
8.59289e+08
-1.82205e+11
5.91609e+09
-4.75981e+09
-2.22708e+11
-6.94075e+08
-6.27943e+09
4.05489e+09
2.15744e+09
-1.14262e+10
-1.76064e+09
-1.66833e+10
-2.56273e+09
-2.14073e+10
-3.69201e+09
-2.99645e+10
-2.59356e+09
-3.86657e+10
-2.61267e+09
-5.31304e+10
-8.15533e+08
-8.08794e+10
1.97317e+09
-1.25626e+11
-1.32109e+09
-1.7048e+11
-7.81486e+09
-4.73602e+09
8.44089e+09
-1.87888e+09
-8.8531e+08
8.15189e+09
-5.18031e+09
-3.22007e+08
7.55689e+09
-8.60032e+09
-9.81088e+08
5.74279e+09
-1.02776e+10
-1.29119e+09
6.05997e+09
-1.19302e+10
-1.71925e+09
4.94173e+09
-1.12174e+10
-2.74618e+09
8.10643e+09
-1.50926e+10
-2.80309e+09
8.28915e+09
-1.60752e+10
-1.99243e+09
9.78735e+09
-2.6449e+10
-3.78343e+09
-2.78194e+10
-6.85634e+09
7.49101e+09
-2.65237e+09
6.31798e+08
6.58052e+09
-4.66052e+09
-3.35776e+08
3.11749e+09
-6.98418e+09
2.43025e+07
2.30437e+08
-8.46876e+09
-1.65836e+09
-4.21551e+09
-9.54636e+09
-1.96755e+09
-5.38019e+09
-1.09851e+10
-1.84451e+09
-1.16815e+10
-1.05936e+10
-1.20136e+09
-1.27875e+10
-1.86267e+10
1.46029e+09
-2.11039e+10
-2.90784e+10
2.56047e+09
-6.28128e+09
1.99766e+09
3.6471e+09
-2.63683e+09
-4.40728e+08
6.43264e+08
-4.12388e+09
3.45746e+08
-4.47899e+09
-3.12293e+09
-1.33511e+09
-1.17619e+10
-3.65304e+09
-1.19653e+09
-1.87594e+10
-2.31246e+09
-2.18117e+09
-2.86345e+10
-1.45272e+09
4.46043e+08
-4.02119e+10
-1.80696e+09
3.64997e+09
-6.83698e+10
-7.35345e+08
5.50677e+09
-1.06539e+11
-2.40363e+09
5.21542e+09
3.44243e+09
6.66978e+09
-1.61768e+09
5.8762e+08
-6.50904e+09
-1.50845e+09
-1.17412e+10
-1.03927e+09
-1.58923e+10
-3.02715e+09
-2.10863e+10
-1.75643e+09
-2.5617e+10
5.56942e+08
-3.14611e+10
3.03692e+09
-4.65767e+10
6.74574e+09
-7.44455e+10
4.51285e+09
4.95162e+09
1.01762e+10
-3.36612e+08
9.48649e+09
-1.87533e+09
8.00366e+09
-4.02566e+09
7.38755e+09
-7.69139e+09
5.35777e+09
-9.55058e+09
4.6869e+09
-1.17174e+10
2.30254e+09
-1.00665e+10
3.92481e+09
-1.4274e+10
4.73265e+09
-1.69649e+10
-2.17495e+10
9.4311e+09
3.89081e+08
8.35721e+09
-1.13722e+09
8.08211e+09
-3.72627e+09
4.96991e+09
-6.23754e+09
2.24213e+09
-8.79035e+09
-2.67517e+09
-8.64461e+09
-3.02632e+09
-1.09167e+10
-5.38081e+09
-1.04592e+10
-4.48425e+09
-1.5301e+10
-2.50315e+10
7.36805e+09
1.092e+09
7.04004e+09
-4.63463e+08
3.65996e+09
-1.68129e+09
-2.02824e+08
-3.57129e+09
-7.64151e+09
-3.53284e+09
-1.19435e+10
-3.8966e+09
-1.53867e+10
-3.82342e+09
-1.64424e+10
-3.89679e+09
-2.10729e+10
-5.4551e+09
-6.32224e+09
6.71393e+09
2.588e+09
-1.14701e+09
-7.22925e+09
-1.31133e+10
-1.61476e+10
-1.69994e+10
-1.49779e+10
-1.68198e+10
)
;

boundaryField
{
    inlet
    {
        type            fixedValue;
        value           nonuniform 0();
    }
    outlet
    {
        type            calculated;
        value           nonuniform 0();
    }
    bottom
    {
        type            fixedValue;
        value           uniform 0;
    }
    top
    {
        type            symmetryPlane;
        value           nonuniform List<scalar> 
40
(
-1.01444e-24
-7.64018e-25
-7.18753e-25
-6.88266e-25
-8.72269e-25
-7.86335e-25
-7.61699e-25
-7.97224e-25
-7.5629e-25
-6.62605e-25
-6.09116e-25
-9.17146e-25
-6.63644e-25
-6.02463e-25
-6.9734e-25
-1.20418e-24
-7.01507e-25
-6.16037e-25
-9.41063e-25
-1.36941e-24
-7.53431e-25
-8.53496e-25
-1.22006e-24
-1.03122e-24
-9.9712e-25
-1.12107e-24
-8.86935e-25
-9.41429e-25
-1.33059e-24
-1.38717e-24
-9.02785e-25
-9.31808e-25
-2.55397e-24
-1.39928e-24
-7.83424e-25
-8.92302e-25
-2.93233e-24
-2.69193e-24
-1.06075e-24
-9.01369e-25
)
;
    }
    side1
    {
        type            symmetryPlane;
        value           nonuniform 0();
    }
    side2
    {
        type            symmetryPlane;
        value           nonuniform 0();
    }
    procBoundary22to14
    {
        type            processor;
        value           nonuniform List<scalar> 
50
(
6.29916e+09
5.68674e+09
4.91136e+09
2.36647e+09
3.884e+09
9.91261e+08
4.08672e+09
2.47508e+09
-3.36603e+09
-1.89863e+10
6.94047e+09
6.56704e+09
7.13532e+09
8.34363e+09
7.42589e+09
8.61807e+09
1.00705e+10
1.43507e+10
1.54022e+10
9.12713e+09
5.47928e+09
7.43214e+09
1.02632e+10
1.06018e+10
1.08486e+10
1.05567e+10
1.33114e+10
2.15932e+10
4.49842e+10
2.09462e+10
2.57295e+09
5.28295e+09
8.47913e+09
1.09271e+10
1.02429e+10
1.01607e+10
1.07951e+10
1.19175e+10
1.5055e+10
2.01982e+10
-7.80011e+07
2.24306e+09
4.52741e+09
7.01632e+09
9.8611e+09
9.64209e+09
9.64772e+09
1.06593e+10
1.23736e+10
1.3519e+10
)
;
    }
    procBoundary22to21
    {
        type            processor;
        value           nonuniform List<scalar> 
20
(
-5.33594e+09
-3.60443e+09
-3.9246e+09
9.0338e+07
7.05861e+09
4.53657e+09
6.42465e+09
6.09177e+09
-1.90407e+09
-4.46804e+09
5.6686e+09
8.00862e+09
-9.10549e+09
-7.09036e+09
-4.83953e+09
-2.87005e+09
-1.06469e+10
-9.52499e+09
-8.51169e+09
-6.98427e+09
)
;
    }
    procBoundary22to23
    {
        type            processor;
        value           nonuniform List<scalar> 
20
(
7.59534e+10
1.38007e+11
1.25165e+11
1.16646e+11
5.29955e+10
-7.83327e+09
-1.00839e+11
-6.49937e+10
-1.49308e+10
-8.92494e+10
-2.54093e+11
-1.8792e+11
8.36862e+09
-3.58195e+10
-1.20776e+11
-9.9726e+10
6.10688e+09
7.9533e+08
-3.31123e+10
-1.9865e+10
)
;
    }
    procBoundary22to30
    {
        type            processor;
        value           nonuniform List<scalar> 
50
(
-5.09682e+09
-5.70282e+09
-6.20527e+09
-7.68081e+09
-8.58832e+09
-8.87406e+09
-8.20318e+09
-7.2312e+09
-6.28914e+09
-4.22991e+09
-2.91426e+09
-1.97462e+09
-1.5749e+09
-1.00114e+09
-1.58745e+07
3.86664e+08
2.9045e+09
8.02045e+09
1.68867e+10
1.44018e+10
-9.46721e+08
-4.96004e+08
1.48502e+09
3.03946e+09
4.25352e+09
7.01911e+09
1.1761e+10
2.5067e+10
2.2282e+10
9.02582e+09
-4.97357e+08
-2.86794e+08
-5.4353e+08
9.31693e+08
2.02525e+09
1.70553e+09
2.9734e+09
6.31338e+09
1.31375e+10
1.90353e+10
1.94996e+09
2.15401e+09
1.01445e+09
-5.16207e+08
5.94775e+08
-3.05364e+08
6.53155e+07
8.2745e+08
8.99628e+08
1.67454e+09
)
;
    }
}


// ************************************************************************* //
