/*--------------------------------*- C++ -*----------------------------------*\
| =========                 |                                                 |
| \\      /  F ield         | OpenFOAM: The Open Source CFD Toolbox           |
|  \\    /   O peration     | Version:  2.4.0                                 |
|   \\  /    A nd           | Web:      www.OpenFOAM.org                      |
|    \\/     M anipulation  |                                                 |
\*---------------------------------------------------------------------------*/
FoamFile
{
    version     2.0;
    format      ascii;
    class       volVectorField;
    location    "0.16";
    object      gradp;
}
// * * * * * * * * * * * * * * * * * * * * * * * * * * * * * * * * * * * * * //

dimensions      [1 -2 -2 0 0 0 0];

internalField   nonuniform List<vector> 
200
(
(-4.30382e+35 8.39254e+34 9.65027e+34)
(-6.15797e+35 1.43766e+35 1.3267e+35)
(-7.61642e+35 3.41672e+35 2.14711e+35)
(-1.53811e+36 1.0821e+36 3.26518e+35)
(-3.65098e+36 2.05857e+36 6.65576e+35)
(-1.1522e+37 2.27308e+36 1.33027e+36)
(-2.16379e+37 -1.77143e+36 4.19719e+36)
(-3.28969e+37 -1.27264e+37 6.69171e+36)
(-9.67873e+37 -8.40842e+37 1.52857e+37)
(1.71573e+38 -4.75207e+37 3.95131e+37)
(-2.23855e+35 9.64895e+34 9.25032e+34)
(-2.49818e+35 1.79208e+35 1.40197e+35)
(6.02648e+35 2.77444e+35 1.38203e+35)
(1.20278e+36 3.83815e+35 -7.06377e+34)
(-7.84767e+35 8.23424e+35 -2.60113e+35)
(-1.20032e+37 1.88602e+36 5.3465e+34)
(-4.28014e+37 5.42365e+36 2.87357e+36)
(-1.79668e+38 7.83908e+36 1.1892e+37)
(-6.30824e+37 6.28868e+36 5.51971e+37)
(2.98753e+38 4.2262e+37 1.41121e+37)
(-1.47913e+35 6.0609e+34 6.06734e+34)
(-2.53888e+35 1.28219e+35 7.34683e+34)
(-3.52429e+35 1.18251e+35 1.03917e+35)
(-4.46152e+35 -2.73912e+35 1.28399e+35)
(-6.46566e+35 -6.12719e+35 1.48609e+35)
(-2.32153e+36 -2.90435e+34 1.42924e+35)
(-9.73177e+36 4.93281e+36 4.72935e+35)
(-3.11669e+37 2.01078e+37 2.22941e+36)
(-2.79415e+37 9.12113e+37 8.48393e+36)
(7.4472e+37 4.99752e+37 1.00861e+37)
(-1.55827e+35 -3.09872e+33 6.41864e+34)
(-1.34535e+35 1.30927e+34 6.26528e+34)
(-2.01614e+35 5.65776e+34 6.10027e+34)
(-2.59159e+35 8.85002e+34 6.55382e+34)
(-2.95029e+35 1.50074e+35 4.83691e+34)
(-9.1218e+35 2.64269e+35 7.36596e+33)
(-2.52771e+36 8.54748e+35 7.04633e+34)
(-7.11078e+36 3.8663e+36 3.61832e+35)
(-3.34759e+36 1.28828e+37 1.68352e+36)
(1.63799e+37 1.61632e+37 1.02917e+36)
(-2.48138e+35 1.00521e+35 1.59914e+35)
(-2.3753e+35 2.07143e+35 2.22326e+35)
(-1.41326e+35 3.34373e+35 3.20395e+35)
(-9.53441e+34 4.31123e+35 4.57182e+35)
(-4.38984e+35 4.69814e+35 8.16255e+35)
(-2.20791e+35 4.73985e+35 1.69556e+36)
(-4.48126e+36 -2.1372e+35 4.84034e+36)
(2.58631e+36 -2.00991e+36 9.50364e+36)
(8.24116e+36 -3.63137e+36 1.52301e+37)
(-3.78287e+36 -3.07584e+37 4.07943e+37)
(-9.74674e+34 3.91626e+34 1.612e+35)
(-1.03579e+35 8.4486e+34 2.1946e+35)
(-7.20228e+34 1.00174e+35 2.43111e+35)
(-7.18331e+34 6.68233e+34 2.57492e+34)
(-3.87638e+35 -3.72297e+33 -1.50641e+35)
(-1.97545e+36 -1.3727e+34 2.88746e+35)
(-4.91826e+36 -5.3517e+35 3.74671e+36)
(-1.22324e+37 6.99395e+35 1.43149e+37)
(-5.5978e+37 -4.59416e+36 6.29342e+37)
(7.69635e+37 -4.82125e+36 3.43481e+37)
(-9.82413e+34 1.5302e+34 1.29473e+35)
(-1.15508e+35 4.14809e+33 1.59405e+35)
(-1.76652e+35 -5.26998e+33 2.09411e+35)
(-3.03137e+35 -5.60307e+34 2.65282e+35)
(-6.00085e+35 -1.19146e+35 3.35507e+35)
(-1.28369e+36 -1.02802e+35 4.54893e+35)
(-3.05502e+36 4.47841e+35 1.04332e+36)
(-5.53167e+36 1.65962e+36 3.44665e+36)
(-2.80013e+36 5.58953e+36 1.09538e+37)
(1.5048e+37 2.90426e+37 1.26435e+37)
(-1.13546e+35 2.52197e+33 1.34488e+35)
(-1.44723e+35 -4.21209e+33 1.55438e+35)
(-1.92381e+35 -1.20855e+34 1.81635e+35)
(-2.99586e+35 -1.20766e+34 2.2159e+35)
(-4.81181e+35 -1.03098e+34 2.64819e+35)
(-8.41479e+35 4.73756e+34 3.15938e+35)
(-1.39342e+36 2.10794e+35 5.62769e+35)
(-1.94899e+36 8.78177e+35 1.13334e+36)
(-1.2121e+36 2.00213e+36 2.84074e+36)
(7.6993e+36 1.67219e+36 2.2636e+36)
(-1.56251e+35 5.84768e+33 1.15862e+35)
(-1.0226e+35 1.83798e+35 1.51256e+35)
(-1.01045e+34 2.32215e+35 1.74155e+35)
(4.86407e+34 2.78154e+35 1.90885e+35)
(3.11821e+35 3.30838e+35 2.089e+35)
(1.35509e+36 4.95036e+34 3.61996e+35)
(3.348e+36 -8.91088e+34 3.68827e+35)
(3.50331e+35 4.57923e+35 1.8974e+36)
(3.34296e+36 4.09187e+36 -2.36715e+35)
(-7.70492e+36 9.22545e+35 -6.35857e+35)
(-3.5314e+34 4.77828e+34 1.04036e+35)
(1.2294e+34 7.85346e+34 1.18135e+35)
(-1.72269e+34 9.98693e+34 1.39673e+35)
(-5.72254e+34 7.67751e+34 1.47814e+35)
(5.68218e+34 5.42278e+34 1.75337e+35)
(4.68272e+35 -9.90404e+34 2.91083e+35)
(2.08241e+36 -6.51587e+35 8.255e+35)
(9.73224e+36 -1.85211e+36 1.91887e+36)
(1.02356e+36 -5.53336e+35 4.97252e+36)
(-1.25503e+37 -2.77931e+36 1.98003e+37)
(5.40012e+33 1.78696e+34 9.58932e+34)
(1.91296e+33 2.57826e+34 1.16327e+35)
(-1.36235e+34 1.98894e+34 1.41e+35)
(-4.26422e+34 3.94334e+34 1.82414e+35)
(-3.98104e+34 5.20181e+34 2.49138e+35)
(-5.65361e+34 1.44647e+34 3.8436e+35)
(-1.58136e+35 -1.61489e+35 6.68522e+35)
(5.46834e+35 -9.82752e+35 1.36128e+36)
(1.48855e+36 -4.93825e+36 2.45419e+36)
(-1.03963e+36 -1.35991e+36 2.30546e+36)
(1.16807e+34 4.92629e+33 9.51718e+34)
(1.63337e+34 6.7445e+33 1.19729e+35)
(1.00745e+34 1.21366e+34 1.50088e+35)
(7.03194e+33 1.85935e+34 1.92101e+35)
(6.88451e+33 3.69737e+34 2.59735e+35)
(4.12579e+34 4.19409e+34 3.62722e+35)
(8.79755e+34 8.58707e+34 5.47795e+35)
(1.78728e+35 1.64996e+35 8.28483e+35)
(2.69231e+35 -9.81822e+34 1.17211e+36)
(4.60566e+34 -4.44663e+35 1.21685e+36)
(-4.37832e+34 2.56745e+34 6.99211e+34)
(-5.09917e+34 4.66356e+34 9.04162e+34)
(-1.45137e+34 6.18183e+34 1.03016e+35)
(1.58377e+34 6.32819e+34 9.33112e+34)
(1.08572e+35 1.20339e+35 9.22303e+34)
(2.90976e+35 1.2135e+35 6.41353e+33)
(4.32015e+35 4.89895e+33 -3.07232e+35)
(6.48581e+35 6.23153e+33 -1.00024e+36)
(1.34755e+35 3.6322e+35 -3.78475e+35)
(-9.9064e+35 5.71973e+35 -2.01222e+36)
(1.09078e+34 7.2123e+33 4.47281e+34)
(1.04601e+34 2.85995e+34 5.1137e+34)
(2.29503e+34 4.71247e+34 4.84265e+34)
(4.22899e+34 5.32702e+34 6.46921e+34)
(7.08214e+34 6.06588e+34 7.53905e+34)
(1.05068e+35 2.20545e+34 5.94098e+34)
(2.90662e+35 -5.56586e+34 -4.81053e+34)
(1.03808e+36 -1.58392e+35 -5.58263e+35)
(1.24247e+36 -2.8871e+35 -3.04158e+36)
(-2.30941e+36 -1.15151e+35 -8.44761e+35)
(2.76945e+34 1.11911e+33 3.61685e+34)
(2.88332e+34 6.69763e+33 3.8535e+34)
(3.48278e+34 1.13927e+34 4.26977e+34)
(4.29059e+34 1.48284e+34 5.19559e+34)
(4.61404e+34 1.58912e+34 6.86171e+34)
(5.8341e+34 1.182e+34 8.0622e+34)
(7.11227e+34 3.51267e+33 1.0964e+35)
(1.82479e+35 -8.50006e+34 1.50663e+35)
(2.21236e+35 -4.9112e+35 -5.26756e+34)
(-1.82919e+35 -6.90894e+35 -2.86097e+35)
(2.60524e+34 1.36775e+33 3.40634e+34)
(3.10074e+34 1.23069e+33 3.57484e+34)
(3.92118e+34 2.45485e+33 3.77065e+34)
(5.12869e+34 3.42266e+33 4.33984e+34)
(6.48046e+34 6.64536e+33 4.82037e+34)
(8.03112e+34 1.27548e+34 5.69836e+34)
(9.70209e+34 1.76305e+34 5.67649e+34)
(4.88175e+34 2.57038e+34 6.58846e+34)
(3.06875e+34 -4.92001e+34 1.42292e+34)
(5.46223e+34 -6.95705e+34 -5.89186e+34)
(2.14904e+34 -7.023e+33 1.74707e+34)
(3.64242e+33 3.39997e+33 2.88166e+34)
(-8.40375e+32 1.72536e+34 3.45438e+34)
(1.41278e+34 3.36076e+34 3.30895e+34)
(3.3748e+34 4.67407e+34 3.40095e+34)
(7.68158e+34 4.11003e+34 9.70708e+33)
(1.26711e+35 4.42233e+34 -3.29156e+34)
(1.22352e+35 2.24609e+34 -8.57004e+34)
(1.0462e+35 2.82756e+34 -1.97362e+35)
(-5.47052e+34 2.15424e+34 -9.51174e+34)
(2.39167e+34 -6.22148e+33 9.38924e+33)
(2.4129e+34 -4.47534e+33 1.22649e+34)
(2.61497e+34 3.36055e+33 1.36608e+34)
(2.90594e+34 1.06066e+34 1.32647e+34)
(3.99183e+34 1.64467e+34 9.52622e+33)
(7.30854e+34 1.96931e+34 3.60744e+33)
(1.05857e+35 1.54078e+34 -4.68443e+32)
(1.53134e+35 -1.0665e+34 -5.4144e+34)
(1.06761e+35 -3.20565e+34 -2.77015e+35)
(-1.13985e+35 -1.75144e+34 -4.09054e+35)
(2.47064e+34 8.06027e+32 9.07454e+33)
(2.28065e+34 1.16089e+33 8.14487e+33)
(2.93236e+34 2.73737e+33 7.1912e+33)
(4.03001e+34 5.36345e+33 6.4248e+33)
(5.1921e+34 8.51922e+33 6.3769e+33)
(7.4738e+34 1.05828e+34 8.23122e+33)
(6.59944e+34 6.30322e+33 1.1501e+34)
(2.74231e+34 1.58835e+34 6.62863e+33)
(9.09216e+34 -4.89567e+34 -3.69539e+34)
(4.44364e+34 -1.02567e+35 -3.40947e+34)
(2.54321e+34 1.55818e+33 9.19356e+33)
(2.79917e+34 2.28594e+33 8.8044e+33)
(3.45548e+34 4.15076e+33 8.25115e+33)
(4.06231e+34 4.90154e+33 7.3491e+33)
(5.03569e+34 4.31226e+33 4.91871e+33)
(6.86534e+34 4.1195e+33 2.83419e+33)
(1.16459e+35 1.26996e+33 1.27565e+33)
(4.26144e+34 2.93517e+34 8.90857e+33)
(-1.30139e+35 8.86561e+33 -6.62805e+32)
(1.89063e+35 -8.11787e+34 -4.13498e+34)
)
;

boundaryField
{
    inlet
    {
        type            zeroGradient;
    }
    outlet
    {
        type            zeroGradient;
    }
    bottom
    {
        type            zeroGradient;
    }
    top
    {
        type            symmetryPlane;
    }
    side1
    {
        type            symmetryPlane;
    }
    side2
    {
        type            symmetryPlane;
    }
    procBoundary31to23
    {
        type            processor;
        value           nonuniform List<vector> 
50
(
(-5.56025e+35 2.81668e+34 8.21309e+34)
(-7.65311e+35 5.64305e+34 1.00586e+35)
(-1.27403e+36 1.09899e+35 1.42765e+35)
(-2.23101e+36 1.78499e+35 3.36225e+35)
(-3.16672e+36 -3.53428e+34 7.32858e+35)
(-4.34325e+36 -7.02508e+35 1.1779e+36)
(-1.28024e+37 -4.36504e+36 1.9e+36)
(-1.50423e+37 -9.8516e+36 5.19413e+36)
(6.50619e+36 -1.82313e+37 4.91413e+36)
(3.55432e+37 -5.9209e+37 3.63563e+36)
(-4.73218e+35 1.61679e+35 2.09999e+35)
(-5.71283e+35 3.41754e+35 1.9444e+35)
(-5.19981e+35 4.54701e+35 3.11521e+35)
(-3.42715e+35 4.25951e+35 5.28217e+35)
(-4.73363e+35 5.82021e+35 9.29191e+35)
(-6.08385e+35 2.80277e+35 1.67848e+36)
(4.95228e+34 2.60493e+35 2.69526e+36)
(-5.39706e+36 -2.2507e+36 6.07473e+36)
(1.51898e+36 8.65964e+35 7.82419e+36)
(8.18397e+36 1.33124e+36 4.07102e+36)
(-3.8094e+35 1.9583e+35 1.50815e+35)
(-4.40441e+35 2.46744e+35 2.18453e+35)
(-2.05939e+35 2.92648e+35 3.1002e+35)
(-2.5447e+35 2.84842e+35 3.77715e+35)
(5.14122e+35 5.76407e+34 3.93759e+35)
(1.30817e+36 2.48473e+35 5.1148e+35)
(1.26557e+36 5.20347e+35 6.88863e+35)
(1.37028e+36 1.62106e+36 6.58785e+35)
(9.43114e+34 5.45196e+35 2.4759e+36)
(-2.52143e+36 3.16565e+36 2.18787e+35)
(-9.21166e+34 2.26134e+34 5.27723e+34)
(-6.18275e+34 4.54294e+34 1.63886e+35)
(-1.03422e+34 -3.89042e+34 1.82778e+35)
(-7.47506e+34 1.83179e+35 2.17534e+35)
(-4.53145e+34 3.69891e+35 2.52951e+35)
(3.35948e+35 1.57109e+35 6.46619e+34)
(5.20899e+35 1.16638e+35 -1.31438e+35)
(3.2144e+35 1.37181e+35 -2.86099e+35)
(1.1099e+35 2.99527e+35 -5.0183e+35)
(-4.39018e+35 1.5028e+35 -2.81634e+35)
(5.658e+33 1.91301e+34 2.98252e+34)
(-2.44241e+34 3.62635e+34 3.92872e+34)
(-3.42656e+34 4.57089e+34 4.15137e+34)
(-2.99149e+34 6.10628e+34 3.18111e+34)
(2.49329e+34 8.24331e+34 5.55249e+34)
(7.81202e+34 9.85478e+34 5.37634e+34)
(1.43136e+35 5.87036e+34 -2.50462e+34)
(1.8503e+35 4.94672e+34 -6.42873e+34)
(1.08598e+35 3.53646e+34 -6.76744e+34)
(-1.43486e+34 4.76631e+34 -6.50347e+34)
)
;
    }
    procBoundary31to30
    {
        type            processor;
        value           nonuniform List<vector> 
20
(
(-3.19098e+35 -2.23195e+34 7.57182e+34)
(-1.83049e+35 3.79732e+34 1.00701e+35)
(-1.4845e+35 9.42044e+34 5.7946e+34)
(-1.80499e+35 1.70501e+34 4.944e+34)
(-1.68434e+35 1.92682e+34 1.3666e+35)
(-1.02094e+35 9.53777e+33 1.60541e+35)
(-8.41834e+34 1.21876e+34 1.11495e+35)
(-8.46046e+34 3.4405e+33 1.03091e+35)
(-1.53139e+35 1.09847e+34 8.73953e+34)
(-3.37706e+34 -2.29119e+33 8.4268e+34)
(2.95777e+33 2.28531e+33 7.6972e+34)
(9.23059e+33 3.60422e+33 7.6104e+34)
(-1.21951e+34 -4.87656e+33 3.48718e+34)
(2.10256e+34 -7.13939e+33 3.26274e+34)
(2.80231e+34 -8.74689e+32 3.25017e+34)
(2.58146e+34 2.05171e+33 3.1451e+34)
(2.66197e+34 -5.72935e+33 8.41862e+33)
(2.45637e+34 -6.08334e+33 8.1996e+33)
(2.78455e+34 4.0316e+32 9.07865e+33)
(3.15209e+34 1.92308e+33 8.99825e+33)
)
;
    }
}


// ************************************************************************* //
