/*--------------------------------*- C++ -*----------------------------------*\
| =========                 |                                                 |
| \\      /  F ield         | OpenFOAM: The Open Source CFD Toolbox           |
|  \\    /   O peration     | Version:  2.4.0                                 |
|   \\  /    A nd           | Web:      www.OpenFOAM.org                      |
|    \\/     M anipulation  |                                                 |
\*---------------------------------------------------------------------------*/
FoamFile
{
    version     2.0;
    format      ascii;
    class       volScalarField;
    location    "0.16";
    object      nut;
}
// * * * * * * * * * * * * * * * * * * * * * * * * * * * * * * * * * * * * * //

dimensions      [0 2 -1 0 0 0 0];

internalField   nonuniform List<scalar> 
200
(
1.36254e+12
1.80843e+12
9.47575e+11
2.45169e+12
4.53879e+12
2.17444e+13
1.55792e+13
1.93584e+13
3.90724e+13
3.14268e+13
2.61312e+12
7.11221e+11
1.76945e+12
6.29408e+12
5.27858e+12
7.00939e+12
1.06462e+13
3.44196e+13
4.03141e+13
4.75086e+13
1.31645e+12
1.72344e+12
1.37455e+12
9.99721e+11
1.20206e+12
3.25459e+12
7.32617e+12
3.32533e+13
2.2277e+13
3.46841e+13
6.37626e+11
6.53816e+11
1.22553e+12
1.33615e+12
1.6704e+12
2.80754e+12
8.19723e+12
3.07821e+13
4.04931e+13
1.21074e+13
1.51225e+12
5.99868e+11
1.59034e+12
2.08606e+12
8.0129e+12
1.57585e+12
3.75693e+13
1.91709e+13
7.9474e+13
1.06827e+14
8.8013e+11
9.40527e+11
1.15463e+12
1.80407e+12
2.95961e+12
6.79462e+12
2.81303e+12
9.92418e+13
3.06777e+13
8.34569e+13
6.61235e+11
4.65266e+11
8.92314e+11
9.5898e+11
1.66668e+12
2.41052e+12
6.27436e+12
4.02042e+12
1.14917e+14
1.06745e+14
4.06835e+11
4.60459e+11
8.96523e+11
1.3402e+12
1.20577e+12
1.41914e+12
1.66487e+12
6.43261e+12
1.00796e+13
4.07647e+13
7.80154e+10
1.91474e+12
4.86978e+11
1.72628e+12
1.79101e+12
3.5632e+12
9.71203e+11
3.13177e+13
3.02522e+12
8.62458e+13
8.33993e+11
1.95323e+11
2.57429e+12
8.23953e+11
3.15346e+12
3.85618e+12
6.7996e+12
7.64358e+12
1.2558e+14
8.77686e+13
3.79046e+11
7.35015e+11
9.93036e+11
2.48322e+12
1.63018e+12
1.92769e+12
2.78071e+12
4.87279e+12
8.91256e+12
7.28525e+13
5.41539e+11
6.26025e+11
1.58002e+12
1.82852e+12
2.65849e+12
2.98918e+12
3.19076e+12
3.33371e+12
5.53729e+12
9.07329e+12
2.50709e+12
4.34807e+11
5.93279e+11
2.6052e+11
3.94967e+11
9.00686e+11
3.00538e+12
1.27152e+12
1.29423e+13
5.95455e+12
8.13975e+11
9.5592e+11
6.46282e+11
4.44101e+11
8.19719e+11
2.23821e+12
1.571e+12
4.94796e+12
7.30501e+12
6.47345e+13
2.27364e+11
2.73361e+11
4.83329e+11
7.35945e+11
1.45151e+12
1.25677e+12
1.67906e+12
8.88412e+11
4.43384e+12
8.26901e+12
3.14622e+11
3.91195e+11
4.47641e+11
6.8583e+11
1.01045e+12
1.16291e+12
1.59839e+12
1.90229e+12
1.31544e+12
5.04764e+12
3.94663e+11
7.77498e+11
9.2419e+10
6.6644e+11
7.06253e+11
9.7798e+11
6.69661e+11
1.57455e+12
1.36287e+12
6.51588e+12
1.29321e+11
1.83492e+11
3.6799e+11
4.09164e+11
5.51475e+11
7.47601e+11
1.25242e+12
9.32604e+11
3.7666e+12
6.48258e+12
1.51897e+11
9.61605e+10
1.1675e+11
9.56943e+10
2.42948e+11
1.40585e+11
7.22973e+11
1.06197e+12
9.28704e+11
3.68945e+12
2.31475e+11
2.3763e+11
2.38962e+11
2.17454e+11
2.22596e+11
5.91861e+11
4.96091e+11
4.68107e+12
1.71316e+12
1.71774e+12
)
;

boundaryField
{
    inlet
    {
        type            calculated;
        value           nonuniform 0();
    }
    outlet
    {
        type            calculated;
        value           nonuniform List<scalar> 
20
(
1.5241e-11
1.19262e-11
1.72987e-11
4.98198e-12
5.86438e-12
1.254e-11
3.17523e-12
2.80405e-11
7.37798e-11
1.85149e-12
5.86453e-11
7.38647e-12
4.50925e-12
5.37198e-11
8.02624e-12
4.21439e-12
5.45446e-12
5.65752e-12
3.05995e-12
8.06254e-13
)
;
    }
    bottom
    {
        type            calculated;
        value           nonuniform List<scalar> 
40
(
1.62385e-12
3.93264e-12
1.46333e-12
7.09218e-13
2.18305e-12
8.42921e-13
1.23462e-12
6.26933e-13
1.35989e-12
3.31447e-12
1.14721e-12
1.20208e-12
2.92135e-12
5.35532e-12
1.06188e-12
1.27965e-12
4.33094e-12
4.51152e-12
9.34972e-13
1.64991e-12
2.25156e-11
3.78183e-12
2.6123e-12
2.48564e-12
1.09541e-11
7.65649e-12
6.41159e-12
5.91063e-12
4.31795e-11
3.035e-11
2.85994e-11
2.34321e-11
2.86063e-11
5.19867e-11
2.26101e-11
3.80438e-11
3.81106e-11
3.36744e-11
3.60119e-11
8.07264e-12
)
;
    }
    top
    {
        type            symmetryPlane;
    }
    side1
    {
        type            symmetryPlane;
    }
    side2
    {
        type            symmetryPlane;
    }
    procBoundary31to23
    {
        type            processor;
        value           nonuniform List<scalar> 
50
(
1.35145e+12
1.99899e+12
2.22226e+12
2.52948e+12
3.3708e+12
7.03078e+12
2.84998e+13
8.80545e+12
1.86633e+13
2.88101e+13
1.11947e+12
3.02001e+12
1.54219e+12
2.52243e+12
4.79159e+12
5.23483e+12
3.07278e+12
3.27161e+13
7.2098e+12
4.96708e+13
4.98973e+12
1.35979e+12
1.82546e+12
2.08067e+12
2.31244e+12
1.93724e+12
1.96663e+12
1.42791e+12
1.67063e+13
8.26541e+12
2.43603e+11
1.16694e+12
3.25097e+11
1.64021e+12
8.46102e+11
1.58719e+12
8.24824e+11
1.90292e+12
1.13801e+12
7.2528e+12
1.26961e+12
4.19289e+11
8.50595e+11
4.2781e+11
6.90486e+11
8.18063e+11
8.68402e+11
8.0466e+11
7.31759e+11
2.20259e+12
)
;
    }
    procBoundary31to30
    {
        type            processor;
        value           nonuniform List<scalar> 
20
(
1.09109e+12
1.34079e+12
1.28453e+12
3.92306e+11
1.31553e+12
8.6528e+11
4.14041e+11
3.02318e+11
2.13957e+12
8.76198e+11
3.75792e+11
4.59778e+11
1.5235e+12
5.22305e+11
1.96452e+11
3.19943e+11
2.53793e+11
1.12726e+11
1.03177e+11
4.21985e+11
)
;
    }
}


// ************************************************************************* //
