/*--------------------------------*- C++ -*----------------------------------*\
| =========                 |                                                 |
| \\      /  F ield         | OpenFOAM: The Open Source CFD Toolbox           |
|  \\    /   O peration     | Version:  2.4.0                                 |
|   \\  /    A nd           | Web:      www.OpenFOAM.org                      |
|    \\/     M anipulation  |                                                 |
\*---------------------------------------------------------------------------*/
FoamFile
{
    version     2.0;
    format      ascii;
    class       surfaceScalarField;
    location    "0.16";
    object      phib;
}
// * * * * * * * * * * * * * * * * * * * * * * * * * * * * * * * * * * * * * //

dimensions      [0 3 -1 0 0 0 0];

internalField   nonuniform List<scalar> 
490
(
8.60102e+10
-6.08897e+09
-2.31138e+10
9.89649e+10
-9.45096e+09
-2.64677e+10
1.12301e+11
-2.02011e+10
-2.40439e+10
1.89613e+11
-7.63255e+10
-2.98066e+10
3.18913e+11
-1.01193e+11
-5.08805e+10
4.33123e+11
-1.74267e+10
-7.48793e+10
4.56941e+11
-3.38696e+10
1.455e+11
2.50342e+11
5.05483e+11
1.89765e+11
2.08957e+11
8.18972e+10
2.69547e+11
-2.05138e+11
8.47418e+11
1.57534e+11
-3.16121e+10
-2.90488e+10
1.71207e+11
-6.736e+09
-1.63888e+10
1.53577e+11
1.82972e+10
-2.08678e+10
9.20776e+10
-4.7803e+09
-1.00459e+10
1.68228e+10
-2.24326e+10
-3.50549e+09
-6.82028e+09
1.53727e+10
-9.15623e+09
1.14189e+11
-8.0769e+10
-7.41103e+10
8.8711e+11
-1.98467e+11
-6.89701e+10
4.25511e+11
-5.57328e+11
1.10082e+12
-4.39004e+11
3.58176e+11
2.51794e+10
-1.65802e+10
-1.19982e+10
2.91954e+10
2.60387e+09
-1.33559e+10
5.34191e+10
9.09622e+09
-1.50227e+10
7.17204e+10
-2.89152e+09
-2.019e+10
8.16239e+10
-9.22432e+09
-2.31119e+10
1.4013e+11
-1.34603e+10
-2.96733e+10
2.14301e+11
-1.03621e+11
-5.13189e+10
4.46818e+11
-3.09215e+11
-1.21769e+11
3.42795e+11
-6.88355e+11
2.35049e+11
-7.80516e+11
1.24645e+12
2.86286e+10
-1.19083e+10
4.34994e+10
-1.2267e+10
6.76617e+10
-1.5066e+10
8.24338e+10
-1.76637e+10
9.41614e+10
-2.09519e+10
9.62083e+10
-1.55072e+10
9.17929e+09
-1.65919e+10
-2.70105e+11
-2.993e+10
-8.23517e+11
-1.34943e+11
1.1888e+11
6.32044e+09
7.61026e+09
-2.13509e+10
-1.39905e+10
-2.90231e+09
-2.0206e+10
-4.0294e+10
-7.56982e+09
-1.07525e+10
-7.70799e+10
-1.04023e+10
-1.43261e+10
-1.40089e+11
-9.71576e+09
-2.12641e+10
-2.31779e+11
1.09494e+10
-2.57271e+10
-1.7e+11
6.75648e+10
-5.98261e+09
-2.27313e+11
-1.41924e+11
3.01264e+11
3.33646e+11
1.47198e+10
1.18356e+11
-4.1869e+11
1.06059e+12
2.72641e+10
1.22494e+09
-1.69176e+10
2.41349e+10
-1.54493e+09
-1.4617e+10
8.34376e+09
4.74729e+09
-1.73937e+10
-2.18618e+09
1.06574e+10
-2.05757e+10
-9.57521e+09
1.95362e+10
-2.53684e+10
-5.3483e+08
3.80626e+10
-4.53098e+10
8.80076e+09
4.86873e+10
-6.45684e+10
-2.33189e+11
7.00241e+09
2.40929e+10
1.874e+11
-6.29453e+11
1.32441e+12
-9.2784e+11
1.01146e+12
2.34312e+10
3.71905e+08
-1.4799e+10
2.94168e+10
-2.66922e+08
-2.06195e+10
4.09359e+10
6.17367e+09
-2.79682e+10
6.06735e+10
7.74972e+09
-3.702e+10
8.97856e+10
4.70498e+09
-3.73928e+10
1.42316e+11
3.97354e+09
-4.81152e+10
1.94399e+11
-1.33383e+09
-5.33802e+10
1.96403e+11
-3.33025e+10
-8.34678e+10
-7.27069e+10
-9.80014e+10
-2.72931e+10
-6.66767e+11
1.35492e+12
2.60547e+10
-1.82097e+10
3.48475e+10
-2.13267e+10
5.38726e+10
-2.79174e+10
8.83345e+10
-4.43758e+10
1.24822e+11
-5.27343e+10
1.67472e+11
-5.41833e+10
1.9834e+11
-4.87939e+10
1.96522e+11
-6.14143e+10
4.59444e+10
-8.2367e+10
-8.37398e+10
-9.52355e+10
4.10779e+09
-9.11088e+09
-1.02176e+11
-3.54782e+08
-7.67995e+09
-9.43872e+10
-3.63281e+09
-3.13046e+09
-9.99462e+10
-2.29782e+10
-1.24255e+09
-1.4938e+11
7.04962e+09
-7.06683e+09
-2.075e+11
2.89896e+10
-1.94353e+09
-2.65056e+11
8.36936e+09
2.36366e+10
-1.12067e+11
3.08943e+10
5.12327e+10
-1.74427e+11
-1.44733e+11
2.25968e+11
-4.07079e+11
2.7127e+11
-1.7236e+10
6.5342e+09
-6.80813e+09
-3.27796e+10
5.91681e+09
-5.34504e+09
-5.49621e+10
3.13941e+09
-1.98339e+09
-7.22743e+10
-1.70364e+10
-9.20533e+09
-1.14092e+11
3.41454e+10
-1.06466e+10
-1.96678e+11
7.58345e+10
-9.56822e+09
-2.76407e+11
2.78567e+10
-4.3274e+09
-3.1269e+11
6.32043e+10
2.80664e+10
4.02596e+11
2.42046e+11
2.22342e+11
-3.83099e+11
1.35729e+12
-1.05701e+10
1.43468e+09
-7.38787e+09
-1.82011e+10
7.7632e+08
-7.84797e+09
-2.96221e+10
-6.69305e+08
-1.27386e+10
-6.10832e+10
-5.71294e+09
-1.68824e+10
-5.91644e+10
2.10151e+10
-2.61813e+10
-6.74008e+10
5.74159e+10
-2.14602e+10
-1.12728e+11
4.63447e+10
-2.65407e+10
-1.22802e+11
1.16313e+10
-2.18208e+10
2.24197e+10
6.98795e+10
-3.48477e+08
1.4427e+11
2.04817e+11
-1.56265e+10
-1.05062e+10
-2.51671e+10
-1.10098e+10
-4.25303e+10
-1.12235e+10
-7.45489e+10
-1.80702e+10
-8.53551e+10
-2.09131e+10
-5.7975e+10
-2.41474e+10
-4.80663e+10
-1.23579e+10
-7.99865e+10
-1.78629e+10
-7.87679e+10
-1.3706e+10
-1.11746e+09
-5.40728e+10
1.79631e+10
8.74351e+09
-6.80329e+10
-1.28476e+09
4.36954e+09
-6.12697e+10
2.37419e+09
-3.55957e+09
-4.76456e+10
-4.82905e+09
-3.83958e+09
-4.71687e+10
-1.09289e+10
-5.70791e+09
-5.90094e+10
5.54064e+09
-5.61038e+09
-6.47079e+10
1.65757e+10
7.24183e+09
-4.10187e+10
8.94382e+09
1.64267e+10
1.37083e+11
-5.50592e+09
2.90815e+10
-9.39263e+10
7.60642e+10
-4.86692e+09
5.98216e+09
7.36841e+06
-1.94048e+10
6.65021e+09
1.25789e+09
-2.67256e+10
5.25428e+09
2.4573e+09
-3.41126e+10
-2.46546e+09
-4.18191e+09
-4.45089e+10
-3.06602e+09
-8.11317e+09
-6.70685e+10
2.5619e+10
-7.08699e+09
-9.28204e+10
4.245e+10
-4.4499e+09
-9.59551e+10
2.96499e+10
1.04951e+10
1.19329e+10
6.04707e+10
4.84776e+10
2.56736e+11
1.60915e+11
-1.58575e+10
-2.35896e+08
-2.6511e+09
-1.49566e+10
4.58701e+08
-2.55745e+09
-2.20702e+10
1.3321e+09
-1.7027e+09
-3.86524e+10
-1.33564e+09
-1.43008e+09
-6.16987e+10
-3.66688e+09
-2.53413e+09
-6.68939e+10
1.31507e+10
-3.79675e+09
-7.32151e+10
3.08871e+10
-8.65656e+09
-8.29443e+10
2.67132e+10
-9.15501e+09
-5.15939e+10
2.63432e+10
2.42861e+09
4.05998e+10
3.45875e+10
-2.19183e+10
-3.81614e+09
-2.92871e+10
-3.18231e+09
-3.6773e+10
-2.40549e+09
-5.39585e+10
-2.2204e+09
-7.63046e+10
-2.23381e+09
-8.06634e+10
-6.63793e+09
-5.41211e+10
-8.013e+09
-2.83232e+10
-1.69476e+10
-1.69041e+10
1.21807e+09
8.45543e+09
-5.48626e+09
4.71504e+09
-1.79408e+09
4.36693e+09
-5.07161e+09
1.67864e+09
-1.72046e+10
-4.26529e+09
-2.82254e+10
-7.90071e+09
-4.36168e+10
-1.79876e+09
-4.79018e+10
-2.78449e+09
-2.83164e+10
-2.75621e+09
-8.77749e+08
2.29899e+09
-3.38273e+09
-9.91663e+09
1.3645e+09
-6.99701e+09
2.70521e+09
-5.29512e+09
2.43404e+09
-1.34022e+10
-3.40116e+08
-2.93157e+10
-1.00412e+08
-3.90397e+10
8.38242e+08
-4.9081e+10
2.80694e+09
-4.90986e+10
7.7565e+09
-1.28271e+10
1.4505e+10
1.69082e+10
-1.94919e+10
-2.0122e+09
-1.79747e+10
-1.36946e+09
-1.47876e+10
-2.45574e+09
-1.43603e+10
-2.19752e+09
-1.45633e+10
-2.43152e+09
-1.81983e+10
6.76507e+08
-2.73522e+10
3.30426e+09
-1.62454e+10
-1.25053e+10
2.20714e+09
-1.51887e+09
1.30114e+10
-1.2856e+10
-1.74078e+10
-2.2269e+10
-2.66869e+10
-3.13523e+10
-3.73137e+10
-4.20224e+10
-7.14753e+10
-7.17761e+10
)
;

boundaryField
{
    inlet
    {
        type            fixedValue;
        value           nonuniform 0();
    }
    outlet
    {
        type            calculated;
        value           nonuniform List<scalar> 
20
(
-1.90398e+11
3.01201e+11
-5.62147e+11
-1.72291e+12
5.72429e+10
4.32631e+10
-4.42249e+11
-4.18203e+11
1.00009e+12
3.27849e+10
6.45157e+11
-1.71198e+10
3.93248e+11
8.57649e+11
3.34771e+11
1.41228e+10
7.57179e+10
1.27797e+11
4.06915e+10
-5.03093e+10
)
;
    }
    bottom
    {
        type            fixedValue;
        value           uniform 0;
    }
    top
    {
        type            symmetryPlane;
        value           nonuniform List<scalar> 
40
(
-1.18059e-24
-1.43416e-24
-2.53525e-24
-2.13431e-24
-1.19018e-24
-1.46264e-24
-3.61095e-24
-2.59029e-24
-2.08677e-24
-1.79213e-24
-2.39207e-24
-1.98897e-24
-2.677e-24
-1.88425e-24
-1.58727e-24
-2.49579e-24
-1.43739e-24
-4.40029e-24
-1.67014e-24
-2.06708e-24
-8.7814e-25
-1.32126e-24
-1.055e-24
-1.80151e-24
-6.33942e-25
-1.28958e-24
-1.51202e-24
-1.55446e-24
-4.23837e-25
-1.07158e-24
-2.57185e-24
-1.66599e-24
-2.66861e-25
-6.99117e-25
-4.96529e-25
-1.99218e-24
-5.95401e-25
-2.1369e-24
-3.37518e-25
-3.0458e-25
)
;
    }
    side1
    {
        type            symmetryPlane;
        value           nonuniform 0();
    }
    side2
    {
        type            symmetryPlane;
        value           uniform 0;
    }
    procBoundary31to23
    {
        type            processor;
        value           nonuniform List<scalar> 
50
(
6.49912e+09
2.29639e+10
3.09093e+10
2.88201e+10
2.27727e+10
-2.19042e+10
-1.35448e+11
-4.88649e+11
-3.1006e+11
-2.42924e+11
4.79595e+09
1.69516e+10
2.0582e+10
3.17076e+10
4.31081e+10
3.1589e+10
2.21384e+10
8.77388e+10
-4.24488e+11
4.8192e+11
-3.39099e+09
-5.23048e+09
-1.17784e+10
1.54537e+10
2.81867e+10
5.347e+09
1.95678e+10
6.61477e+10
9.94815e+10
2.18825e+10
-4.73805e+09
3.19535e+09
-8.70827e+09
-6.19804e+09
9.09318e+09
9.96687e+09
5.5176e+09
2.17294e+09
2.42909e+10
3.29668e+10
-3.59751e+09
-3.68957e+09
-1.96067e+09
1.25587e+10
1.32136e+10
1.15798e+10
1.43113e+10
-4.02412e+08
-6.56141e+08
2.85129e+09
)
;
    }
    procBoundary31to30
    {
        type            processor;
        value           nonuniform List<scalar> 
20
(
-6.33065e+10
-1.02962e+11
-2.82131e+10
-3.33006e+10
-2.04896e+10
-3.301e+10
-1.97773e+10
-1.93814e+10
8.22788e+10
4.70015e+09
8.2585e+09
9.35775e+09
2.29933e+10
1.00324e+10
1.73388e+10
1.49924e+10
1.31122e+10
1.32745e+10
2.02175e+10
7.02766e+09
)
;
    }
}


// ************************************************************************* //
