/*--------------------------------*- C++ -*----------------------------------*\
| =========                 |                                                 |
| \\      /  F ield         | OpenFOAM: The Open Source CFD Toolbox           |
|  \\    /   O peration     | Version:  2.4.0                                 |
|   \\  /    A nd           | Web:      www.OpenFOAM.org                      |
|    \\/     M anipulation  |                                                 |
\*---------------------------------------------------------------------------*/
FoamFile
{
    version     2.0;
    format      ascii;
    class       volVectorField;
    location    "0.17";
    object      Ur;
}
// * * * * * * * * * * * * * * * * * * * * * * * * * * * * * * * * * * * * * //

dimensions      [0 1 -1 0 0 0 0];

internalField   nonuniform List<vector> 
200
(
(-2.06887e+15 7.55178e+14 7.42945e+14)
(-1.94119e+15 1.61748e+15 -1.58977e+13)
(-2.64269e+15 4.68636e+14 7.65846e+14)
(-2.39126e+15 1.47523e+15 7.21806e+13)
(-3.26617e+15 2.02216e+14 8.02726e+14)
(-2.89042e+15 1.15155e+15 2.03863e+14)
(-3.94929e+15 -1.53479e+14 8.05517e+14)
(-3.41869e+15 6.40176e+14 4.11552e+14)
(-4.72895e+15 -5.86773e+14 7.38137e+14)
(-4.01006e+15 1.57599e+14 4.44013e+14)
(-1.75756e+15 1.61268e+15 -3.82147e+14)
(-2.16789e+15 9.75922e+14 1.04087e+15)
(-2.15019e+15 1.55306e+15 -1.93588e+14)
(-2.75669e+15 6.3798e+14 1.00016e+15)
(-2.60357e+15 1.41989e+15 -7.05103e+13)
(-3.41592e+15 2.6794e+14 9.93109e+14)
(-3.13492e+15 1.03562e+15 4.43002e+13)
(-4.17114e+15 -1.46625e+14 9.46108e+14)
(-3.75694e+15 6.03832e+14 1.81004e+14)
(-5.06301e+15 -4.97004e+14 8.03114e+14)
(-1.61159e+15 1.58485e+15 1.57361e+15)
(-1.94452e+15 1.5676e+15 -5.99468e+14)
(-2.2458e+15 1.13885e+15 1.2907e+15)
(-2.31865e+15 1.53096e+15 -4.3091e+14)
(-2.84042e+15 7.9772e+14 1.20153e+15)
(-2.76472e+15 1.39772e+15 -3.20715e+14)
(-3.5322e+15 3.78437e+14 1.14031e+15)
(-3.33144e+15 1.09807e+15 -2.40463e+14)
(-4.3605e+15 8.57717e+13 1.02413e+15)
(-4.05785e+15 8.54368e+14 -2.4031e+14)
(-1.68361e+15 1.61138e+15 -7.15121e+14)
(-1.68016e+15 1.689e+15 1.64966e+15)
(-2.0466e+15 1.59742e+15 -7.8571e+14)
(-2.25605e+15 1.30861e+15 1.45483e+15)
(-2.37657e+15 1.62373e+15 -7.42553e+14)
(-2.82598e+15 9.91811e+14 1.34315e+15)
(-2.7903e+15 1.55694e+15 -7.14063e+14)
(-3.50357e+15 6.97548e+14 1.21602e+15)
(-3.36305e+15 1.47432e+15 -7.61539e+14)
(-4.36585e+15 7.07399e+14 9.7028e+14)
(-1.77922e+15 1.30033e+15 2.84636e+14)
(-2.18493e+15 9.11467e+14 1.07962e+15)
(-2.21062e+15 1.12132e+15 4.67671e+14)
(-2.72863e+15 6.5147e+14 1.25001e+15)
(-2.74569e+15 8.08389e+14 6.92931e+14)
(-3.31214e+15 2.49317e+14 1.38872e+15)
(-3.33431e+15 2.81883e+14 9.27034e+14)
(-3.94612e+15 -3.14172e+14 1.52392e+15)
(-4.06734e+15 -4.05057e+14 1.06508e+15)
(-4.82094e+15 -9.05647e+14 1.71036e+15)
(-1.72017e+15 1.41985e+15 1.34146e+15)
(-1.95149e+15 1.38651e+15 1.59539e+14)
(-2.27763e+15 1.15743e+15 1.31215e+15)
(-2.41941e+15 1.21288e+15 3.18938e+14)
(-2.87436e+15 8.4087e+14 1.41324e+15)
(-3.01108e+15 8.38336e+14 4.89532e+14)
(-3.58372e+15 3.49788e+14 1.47452e+15)
(-3.757e+15 3.08047e+14 6.92681e+14)
(-4.39971e+15 -1.50909e+14 1.52531e+15)
(-4.71089e+15 -1.75361e+14 8.79764e+14)
(-1.64863e+15 1.67405e+15 -4.79621e+13)
(-1.76497e+15 1.60684e+15 1.41699e+15)
(-2.09128e+15 1.62213e+15 2.52852e+13)
(-2.34536e+15 1.33669e+15 1.35036e+15)
(-2.60291e+15 1.45488e+15 6.73896e+13)
(-3.00867e+15 1.07912e+15 1.42381e+15)
(-3.2841e+15 1.07394e+15 1.60169e+14)
(-3.84822e+15 6.49006e+14 1.47562e+15)
(-4.17978e+15 6.33777e+14 3.80356e+14)
(-4.85478e+15 3.05314e+14 1.44584e+15)
(-1.31807e+15 1.92484e+15 1.29551e+15)
(-1.69271e+15 2.2208e+15 -1.92599e+14)
(-1.77523e+15 1.70293e+15 1.25509e+15)
(-2.15356e+15 2.14052e+15 -3.58807e+14)
(-2.30858e+15 1.56572e+15 1.17007e+15)
(-2.6706e+15 1.91181e+15 -4.40587e+14)
(-3.02386e+15 1.43456e+15 1.19488e+15)
(-3.44283e+15 1.52644e+15 -4.31451e+14)
(-4.01468e+15 1.18134e+15 1.27972e+15)
(-4.50419e+15 1.14847e+15 -4.15716e+14)
(-1.74431e+15 1.05248e+15 1.10271e+15)
(-1.80402e+15 9.96244e+14 5.84796e+14)
(-2.13089e+15 7.5829e+14 1.34055e+15)
(-2.20563e+15 6.00451e+14 8.56575e+14)
(-2.51485e+15 3.02887e+14 1.56513e+15)
(-2.66481e+15 -7.42325e+13 1.1529e+15)
(-2.85035e+15 -3.98096e+14 1.87318e+15)
(-3.09876e+15 -9.05853e+14 1.32834e+15)
(-3.4416e+15 -1.21492e+15 2.53985e+15)
(-3.64654e+15 -1.82971e+15 8.98903e+14)
(-1.49265e+15 1.56772e+15 4.24505e+14)
(-1.76318e+15 1.3777e+15 1.26222e+15)
(-1.95354e+15 1.3833e+15 5.69076e+14)
(-2.2834e+15 1.02889e+15 1.41803e+15)
(-2.51018e+15 9.08287e+14 7.2507e+14)
(-2.88009e+15 4.52242e+14 1.58053e+15)
(-3.22715e+15 9.02283e+13 9.56906e+14)
(-3.59789e+15 -2.38969e+14 1.78361e+15)
(-4.0505e+15 -6.65619e+14 1.13273e+15)
(-4.51137e+15 -7.32268e+14 2.11637e+15)
(-1.31714e+15 1.76186e+15 1.15762e+15)
(-1.55686e+15 2.43061e+15 2.16783e+14)
(-1.74797e+15 1.41062e+15 1.20243e+15)
(-2.13552e+15 2.17955e+15 2.26585e+14)
(-2.32521e+15 1.1943e+15 1.29589e+15)
(-2.80652e+15 1.59894e+15 4.2101e+14)
(-3.13821e+15 8.89988e+14 1.49496e+15)
(-3.73352e+15 7.36437e+14 7.13946e+14)
(-4.17518e+15 5.27712e+14 1.69488e+15)
(-4.95376e+15 1.45743e+14 1.20575e+15)
(-1.15656e+15 3.57125e+15 -1.87593e+14)
(-1.04096e+15 1.43124e+15 1.08132e+15)
(-1.72498e+15 3.7223e+15 -4.54712e+14)
(-1.42135e+15 1.38428e+15 8.68163e+14)
(-2.26929e+15 3.07874e+15 -4.40467e+14)
(-2.17111e+15 1.51431e+15 8.97791e+14)
(-2.9797e+15 2.23892e+15 -1.69328e+14)
(-3.20112e+15 1.65989e+15 1.12062e+15)
(-4.06496e+15 1.45346e+15 1.8378e+14)
(-4.59881e+15 1.67791e+15 1.45232e+15)
(-1.48333e+15 1.06321e+15 3.40552e+14)
(-1.71627e+15 8.31199e+14 7.78786e+14)
(-1.70566e+15 5.52543e+14 4.39349e+14)
(-1.92908e+15 3.4611e+14 1.04806e+15)
(-2.00713e+15 -4.16457e+13 7.47024e+14)
(-2.28494e+15 -3.63002e+14 1.3872e+15)
(-2.31206e+15 -1.00547e+15 6.8551e+14)
(-2.87187e+15 -1.45955e+15 2.24473e+15)
(-2.57982e+15 -2.19814e+15 -1.44823e+14)
(-3.72419e+15 -2.32758e+15 3.45377e+15)
(-1.45971e+15 1.45213e+15 6.94211e+14)
(-1.59594e+15 1.41167e+15 3.50168e+14)
(-1.86989e+15 1.13489e+15 9.18396e+14)
(-2.02151e+15 9.65245e+14 4.78817e+14)
(-2.27751e+15 5.72106e+14 1.10973e+15)
(-2.48859e+15 2.56132e+14 6.47895e+14)
(-2.76582e+15 -1.32753e+14 1.31938e+15)
(-3.10482e+15 -5.39215e+14 6.51213e+14)
(-3.52792e+15 -8.16535e+14 1.78778e+15)
(-3.78261e+15 -1.25984e+15 2.34774e+14)
(-1.08416e+15 2.59511e+15 1.80821e+14)
(-1.34478e+15 1.75534e+15 8.68111e+14)
(-1.64699e+15 2.28814e+15 1.38029e+14)
(-1.84181e+15 1.3108e+15 1.01081e+15)
(-2.24439e+15 1.58824e+15 4.17863e+14)
(-2.48726e+15 9.87724e+14 1.2058e+15)
(-2.94872e+15 1.04848e+15 6.77388e+14)
(-3.2037e+15 8.30423e+14 1.41848e+15)
(-3.84607e+15 3.8495e+14 9.20088e+14)
(-4.41271e+15 1.20342e+15 1.90409e+15)
(-6.39402e+14 2.23076e+15 1.13956e+15)
(-1.19785e+15 3.53131e+15 4.9503e+13)
(-1.1502e+15 1.86152e+15 9.60648e+14)
(-1.93995e+15 2.61866e+15 3.43917e+14)
(-1.75115e+15 1.79746e+15 9.83009e+14)
(-2.25524e+15 2.01843e+15 5.02677e+14)
(-2.49584e+15 1.73847e+15 1.14985e+15)
(-2.90169e+15 1.23273e+15 5.58739e+14)
(-3.54809e+15 2.69901e+15 1.78926e+15)
(-3.77086e+15 1.05065e+15 7.03295e+14)
(-1.62938e+15 7.91597e+14 2.4844e+14)
(-1.53819e+15 7.12916e+14 1.41583e+13)
(-1.82173e+15 5.71551e+14 3.77822e+14)
(-1.78184e+15 3.07296e+14 1.44409e+14)
(-2.05929e+15 -1.21155e+14 6.02699e+14)
(-1.86305e+15 -6.59472e+14 1.19169e+14)
(-2.48016e+15 -1.17496e+15 1.08359e+15)
(-1.97119e+15 -1.69117e+15 -9.12524e+14)
(-3.20253e+15 -1.9651e+15 2.10888e+15)
(-2.33899e+15 -2.99798e+15 -2.53425e+15)
(-1.37526e+15 1.4764e+15 -7.44325e+13)
(-1.62642e+15 1.28183e+15 3.79622e+14)
(-1.75679e+15 1.18379e+15 -1.51271e+14)
(-1.98982e+15 8.85725e+14 5.03707e+14)
(-2.06375e+15 4.11702e+14 1.12568e+14)
(-2.3097e+15 4.54211e+13 6.22879e+14)
(-2.30238e+15 -4.20346e+14 -9.64939e+13)
(-2.86136e+15 -6.31204e+14 1.04446e+15)
(-2.70591e+15 -1.09725e+15 -9.04516e+14)
(-3.96108e+15 -1.11028e+15 1.6058e+15)
(-1.15501e+15 1.62254e+15 3.7536e+14)
(-1.45665e+15 2.20782e+15 -4.52575e+14)
(-1.57208e+15 1.54055e+15 4.56453e+14)
(-1.93285e+15 1.86794e+15 -3.76297e+14)
(-2.14298e+15 1.11281e+15 5.09099e+14)
(-2.43085e+15 9.58881e+14 -9.51318e+12)
(-2.72318e+15 5.40254e+14 5.54767e+14)
(-2.99396e+15 4.33962e+14 9.40742e+13)
(-3.4681e+15 9.99507e+14 9.5947e+14)
(-3.87264e+15 1.14583e+14 1.407e+14)
(-9.04602e+14 2.90756e+15 -3.28526e+14)
(-9.94026e+14 2.10237e+15 5.1885e+14)
(-1.36726e+15 2.88712e+15 -2.70486e+14)
(-1.52992e+15 2.1573e+15 6.60888e+14)
(-1.96126e+15 2.32936e+15 1.19338e+13)
(-2.19743e+15 1.63251e+15 6.50858e+14)
(-2.23499e+15 1.78251e+15 1.25311e+14)
(-2.82128e+15 2.11654e+15 7.13412e+14)
(-2.78897e+15 1.51053e+15 2.9673e+14)
(-3.84997e+15 4.20639e+15 2.05117e+15)
)
;

boundaryField
{
    inlet
    {
        type            calculated;
        value           nonuniform 0();
    }
    outlet
    {
        type            calculated;
        value           nonuniform 0();
    }
    bottom
    {
        type            calculated;
        value           uniform (0 0 0);
    }
    top
    {
        type            symmetryPlane;
    }
    side1
    {
        type            symmetryPlane;
    }
    side2
    {
        type            symmetryPlane;
    }
    procBoundary9to1
    {
        type            processor;
        value           nonuniform List<vector> 
50
(
(-1.72041e+15 1.66609e+15 9.23328e+13)
(-2.52844e+15 2.49993e+14 5.29506e+14)
(-2.15656e+15 1.50853e+15 1.57541e+14)
(-3.13689e+15 7.57907e+13 5.86042e+14)
(-2.64648e+15 1.25422e+15 3.16411e+14)
(-3.80744e+15 -9.42968e+13 6.05129e+14)
(-3.13695e+15 8.57643e+14 5.53668e+14)
(-4.52279e+15 -4.60445e+14 5.74476e+14)
(-3.59858e+15 3.73459e+14 7.12172e+14)
(-5.25051e+15 -9.60938e+14 5.00864e+14)
(-2.08689e+15 6.56767e+14 7.3007e+14)
(-1.97765e+15 1.12158e+15 5.59217e+14)
(-2.5627e+15 4.77832e+14 1.00947e+15)
(-2.48896e+15 8.90822e+14 8.04884e+14)
(-3.14197e+15 2.37739e+14 1.29005e+15)
(-3.10022e+15 5.3331e+14 1.11322e+15)
(-3.79831e+15 -1.77123e+14 1.51531e+15)
(-3.68187e+15 -1.69963e+14 1.31531e+15)
(-4.50666e+15 -9.53595e+14 1.70645e+15)
(-4.35434e+15 -1.03174e+15 1.14632e+15)
(-1.69159e+15 8.09941e+14 7.05152e+14)
(-2.03653e+15 5.05412e+14 1.1794e+15)
(-2.07599e+15 3.79215e+14 1.10031e+15)
(-2.33779e+15 2.28228e+14 1.65911e+15)
(-2.55867e+15 -1.1595e+14 1.65552e+15)
(-2.76211e+15 -2.35266e+14 2.12282e+15)
(-2.9361e+15 -8.44037e+14 1.74872e+15)
(-3.36198e+15 -1.26468e+15 2.5457e+15)
(-3.18194e+15 -1.71461e+15 1.4848e+15)
(-4.00336e+15 -2.40516e+15 3.44362e+15)
(-1.9299e+15 5.96826e+14 6.42863e+14)
(-1.77695e+15 3.69772e+14 6.34513e+14)
(-1.86158e+15 8.04949e+13 1.04542e+15)
(-1.78832e+15 -2.98398e+14 1.13859e+15)
(-2.04949e+15 -6.98822e+14 1.60958e+15)
(-1.67883e+15 -1.2078e+15 1.23718e+15)
(-2.13346e+15 -1.92459e+15 2.3893e+15)
(-1.32426e+15 -2.36787e+15 4.23309e+14)
(-2.00193e+15 -2.79507e+15 3.58353e+15)
(-6.74028e+14 -3.89953e+15 -1.03191e+15)
(-1.59381e+15 6.31076e+14 1.67635e+14)
(-1.76229e+15 4.16104e+14 2.22941e+14)
(-1.55152e+15 1.04845e+14 3.33356e+14)
(-1.92411e+15 -5.07719e+14 2.8283e+14)
(-1.45579e+15 -7.34305e+14 7.06007e+14)
(-2.10129e+15 -1.76595e+15 2.76125e+14)
(-1.26593e+15 -1.79423e+15 4.62333e+13)
(-2.24815e+15 -2.56278e+15 1.22512e+15)
(-1.20274e+15 -3.37454e+15 -1.81393e+15)
(-2.49899e+15 -3.18941e+15 2.0394e+15)
)
;
    }
    procBoundary9to8
    {
        type            processor;
        value           nonuniform List<vector> 
20
(
(-1.54369e+15 1.67489e+15 -1.42922e+14)
(-1.53921e+15 1.39667e+15 1.26883e+15)
(-1.575e+15 1.59685e+15 -7.11289e+14)
(-1.14573e+15 2.01809e+15 1.65719e+15)
(-1.70006e+15 1.13314e+15 9.89528e+14)
(-1.57456e+15 1.48455e+15 -6.72033e+13)
(-1.26489e+15 1.84071e+15 1.42432e+15)
(-1.24069e+15 2.03566e+15 -5.84284e+13)
(-1.48319e+15 1.26373e+15 3.98684e+14)
(-1.33862e+15 1.58441e+15 1.1663e+15)
(-1.05466e+15 2.13139e+15 3.09166e+14)
(-8.46421e+14 1.90155e+15 1.24638e+15)
(-1.49796e+15 1.12431e+15 5.61037e+14)
(-1.18859e+15 1.86549e+15 3.25396e+14)
(-9.11428e+14 1.78265e+15 7.02217e+14)
(-4.84002e+14 3.27242e+15 -9.34532e+12)
(-1.35931e+15 1.15856e+15 1.74996e+14)
(-1.33035e+15 1.4707e+15 2.55919e+14)
(-1.06365e+15 2.34136e+15 -2.37343e+14)
(-6.42886e+14 2.15045e+15 3.36559e+14)
)
;
    }
    procBoundary9to10
    {
        type            processor;
        value           nonuniform List<vector> 
20
(
(-5.56219e+15 -1.04461e+15 5.93653e+14)
(-4.50537e+15 2.027e+14 8.17472e+13)
(-5.36292e+15 -2.8842e+13 7.91475e+14)
(-4.11944e+15 1.54825e+15 -9.1669e+14)
(-5.0345e+15 -1.07955e+15 7.47819e+14)
(-5.41168e+15 -5.65347e+14 1.58179e+15)
(-5.33556e+15 2.92954e+14 3.89148e+14)
(-5.26693e+15 1.07254e+15 1.05057e+15)
(-4.53034e+15 -2.11724e+15 3.33938e+15)
(-5.08929e+15 -1.23275e+15 1.04198e+15)
(-5.46695e+15 4.29999e+14 1.8859e+15)
(-5.4976e+15 1.04936e+15 3.94324e+14)
(-2.84924e+15 -3.5719e+15 -1.32948e+15)
(-4.76033e+15 -1.19447e+15 2.51696e+15)
(-5.1298e+15 5.01657e+12 1.22863e+15)
(-4.88964e+15 3.35508e+15 2.16051e+15)
(-4.15239e+15 -2.76851e+15 2.75384e+15)
(-3.71316e+15 -1.89468e+15 -1.99324e+15)
(-5.04796e+15 1.72305e+15 1.84629e+15)
(-3.80542e+15 1.90595e+15 8.85458e+14)
)
;
    }
    procBoundary9to17
    {
        type            processor;
        value           nonuniform List<vector> 
50
(
(-1.24118e+15 2.01688e+15 1.4585e+15)
(-1.66312e+15 1.75642e+15 -7.58365e+14)
(-1.66051e+15 1.79909e+15 1.53942e+15)
(-1.96373e+15 1.78483e+15 -1.02157e+15)
(-2.09919e+15 1.57445e+15 1.50374e+15)
(-2.17563e+15 1.91645e+15 -1.17796e+15)
(-2.54286e+15 1.36173e+15 1.40972e+15)
(-2.44334e+15 2.06031e+15 -1.37407e+15)
(-3.04363e+15 1.41677e+15 1.1374e+15)
(-2.8332e+15 2.3177e+15 -1.64546e+15)
(-1.23074e+15 3.00142e+15 -4.11013e+14)
(-1.20424e+15 1.92685e+15 1.03095e+15)
(-1.57298e+15 2.95284e+15 -7.90834e+14)
(-1.57078e+15 1.98736e+15 8.86468e+14)
(-1.93755e+15 2.68903e+15 -1.23821e+15)
(-1.98367e+15 2.13111e+15 6.81226e+14)
(-2.41793e+15 2.51647e+15 -1.51018e+15)
(-2.73129e+15 2.1703e+15 5.74171e+14)
(-3.1657e+15 2.2996e+15 -1.82592e+15)
(-3.77645e+15 2.11078e+15 4.74737e+14)
(-3.72893e+14 1.38157e+15 1.00883e+15)
(-1.20676e+15 4.75523e+15 -8.27265e+14)
(-5.78869e+14 1.60205e+15 4.74217e+14)
(-1.63688e+15 3.96911e+15 -1.14694e+15)
(-1.04334e+15 2.2857e+15 -9.21557e+12)
(-1.8299e+15 3.2324e+15 -1.29154e+15)
(-1.78697e+15 2.43863e+15 1.3506e+14)
(-2.68454e+15 2.52186e+15 -1.39298e+15)
(-3.02478e+15 2.81745e+15 2.16287e+14)
(-3.96816e+15 2.13111e+15 -1.12635e+15)
(-7.7114e+14 4.56669e+15 -1.75372e+13)
(-4.59474e+14 2.22685e+15 6.64959e+14)
(-1.82305e+15 3.77741e+15 5.1872e+14)
(-1.1402e+15 3.00437e+15 8.91342e+14)
(-4.78059e+14 5.87412e+14 -6.46218e+14)
(-1.34995e+15 3.01922e+15 5.13496e+14)
(-1.2506e+15 1.45132e+15 -1.84434e+14)
(-2.20589e+15 3.31526e+15 1.14888e+15)
(-2.00845e+15 1.06061e+15 -1.0957e+14)
(-3.13709e+15 3.95438e+15 1.64885e+15)
(-4.01465e+14 2.86834e+15 5.77462e+14)
(-4.30037e+14 3.70997e+15 -4.87809e+13)
(-1.13408e+15 3.17071e+15 7.2872e+14)
(-7.16147e+14 4.17547e+15 5.47165e+11)
(-1.36049e+15 3.46235e+15 8.45421e+14)
(-7.29761e+14 2.38931e+15 4.53652e+13)
(-1.67382e+15 3.33607e+15 9.59119e+14)
(-9.63581e+14 2.04505e+15 -2.95661e+13)
(-2.5927e+15 4.86106e+15 1.67193e+15)
(-2.8859e+15 3.38761e+15 1.09857e+15)
)
;
    }
}


// ************************************************************************* //
