/*--------------------------------*- C++ -*----------------------------------*\
| =========                 |                                                 |
| \\      /  F ield         | OpenFOAM: The Open Source CFD Toolbox           |
|  \\    /   O peration     | Version:  2.4.0                                 |
|   \\  /    A nd           | Web:      www.OpenFOAM.org                      |
|    \\/     M anipulation  |                                                 |
\*---------------------------------------------------------------------------*/
FoamFile
{
    version     2.0;
    format      ascii;
    class       volScalarField;
    location    "0.07";
    object      nut;
}
// * * * * * * * * * * * * * * * * * * * * * * * * * * * * * * * * * * * * * //

dimensions      [0 2 -1 0 0 0 0];

internalField   nonuniform List<scalar> 
200
(
8.78753
6.5585
9.78337
6.60097
7.43222
11.5827
7.29517
6.0977
10.4353
11.2479
5.85357
5.17377
5.86424
4.48033
6.05688
2.73966
11.6823
3.90192
6.4672
6.49683
6.16355
4.95532
4.18497
4.2178
1.31793
4.94625
1.58432
7.59165
1.57434
3.506
10.9516
5.28378
4.26379
1.79365
3.04061
1.39659
4.56112
1.77316
5.7427
2.29893
4.18465
8.93484
4.50768
6.63494
12.4638
7.62345
7.731
13.948
8.54707
19.2953
5.28873
4.48276
6.47076
9.76133
4.1308
16.9801
5.25464
10.2639
16.8091
10.5252
1.62343
6.62859
7.7225
2.71456
9.67257
3.78966
14.173
6.50367
5.31753
14.1118
4.30043
2.61493
4.93794
9.405
1.63089
10.4745
3.83549
10.617
5.28588
1.23795
10.7015
5.1083
9.36699
15.3393
10.8965
8.9947
23.2762
17.0809
27.7527
85.9479
3.12942
10.2576
13.6547
7.11402
14.5602
6.13006
7.67283
31.2879
21.2908
22.9588
13.4015
10.0064
3.50679
14.044
4.87247
16.3426
3.77373
11.8585
28.588
23.7317
3.17352
11.2173
9.6033
1.46475
15.8454
4.89827
14.5452
3.62468
11.4568
18.2526
5.04223
14.4831
17.5332
13.6516
13.5578
18.898
17.8774
40.9565
64.3814
126.366
16.1025
14.6655
16.793
10.8611
6.7141
12.1247
25.6015
10.6982
36.4049
59.3238
12.396
13.3209
10.7054
4.14681
17.3655
6.35375
8.22521
26.6255
15.0156
38.187
15.5468
12.3893
3.06729
11.7018
8.11811
20.6831
4.19427
4.36662
24.2472
13.0581
22.2106
20.7053
25.9026
21.7267
20.4
29.2304
44.7127
58.8847
100.719
89.0186
15.1098
24.8879
9.97481
11.7926
20.0656
22.7496
10.1761
49.5291
44.3832
83.6916
20.7242
14.0963
9.60487
19.6384
14.5576
20.0913
19.0847
8.11232
61.2428
36.7349
11.5636
11.955
19.7823
12.2635
14.079
12.8132
17.4654
18.6846
3.82512
63.231
)
;

boundaryField
{
    inlet
    {
        type            calculated;
        value           nonuniform 0();
    }
    outlet
    {
        type            calculated;
        value           nonuniform 0();
    }
    bottom
    {
        type            calculated;
        value           nonuniform List<scalar> 
40
(
2.12007e-23
1.80588e-24
2.55194e-23
7.60422e-24
1.72999e-24
2.05008e-23
2.19477e-24
2.37415e-23
1.7454e-23
3.18148e-24
1.99131e-23
3.10073e-24
4.49511e-24
1.27191e-23
3.7892e-24
1.74702e-23
1.52558e-23
3.63445e-24
1.09352e-23
3.34776e-24
8.35128e-24
1.15912e-23
3.60603e-24
1.41474e-23
2.36306e-23
4.99652e-24
1.11182e-23
4.8412e-24
9.23759e-24
1.36079e-23
5.7277e-24
1.01744e-23
1.84335e-23
3.95539e-24
1.03875e-23
4.76307e-24
5.73001e-24
1.11686e-23
3.30436e-24
1.0217e-23
)
;
    }
    top
    {
        type            symmetryPlane;
    }
    side1
    {
        type            symmetryPlane;
    }
    side2
    {
        type            symmetryPlane;
    }
    procBoundary3to2
    {
        type            processor;
        value           nonuniform List<scalar> 
20
(
8.1475
6.3751
12.8301
4.26853
7.04293
2.24318
4.45357
11.0033
4.21502
10.5873
1.94246
6.0136
12.8007
2.8892
19.428
4.34407
8.89697
23.5422
10.9082
17.9936
)
;
    }
    procBoundary3to4
    {
        type            processor;
        value           nonuniform List<scalar> 
20
(
27.0284
9.31687
5.73812
4.26486
34.5237
23.1956
6.4169
11.4826
59.9683
56.003
26.852
14.3741
85.1733
235.867
47.7617
34.9937
208.458
72.6985
38.7945
33.736
)
;
    }
    procBoundary3to11
    {
        type            processor;
        value           nonuniform List<scalar> 
50
(
4.73344
8.49467
4.80633
3.06939
1.59244
2.58866
2.77609
1.86414
2.75969
7.0231
9.94513
4.73636
3.7351
5.22714
9.25857
2.56094
12.2488
3.70504
11.5298
3.85345
5.80476
4.64319
10.996
6.96293
3.27131
15.1896
4.05775
11.7655
4.4159
8.65389
6.11528
17.0847
6.8321
3.04476
9.51679
6.22879
20.3777
3.82593
4.75626
23.7301
14.6655
6.7556
7.09999
13.0731
9.67508
10.6033
11.8609
15.2988
19.9644
4.5757
)
;
    }
}


// ************************************************************************* //
