/*--------------------------------*- C++ -*----------------------------------*\
| =========                 |                                                 |
| \\      /  F ield         | OpenFOAM: The Open Source CFD Toolbox           |
|  \\    /   O peration     | Version:  2.4.0                                 |
|   \\  /    A nd           | Web:      www.OpenFOAM.org                      |
|    \\/     M anipulation  |                                                 |
\*---------------------------------------------------------------------------*/
FoamFile
{
    version     2.0;
    format      ascii;
    class       surfaceScalarField;
    location    "0.04";
    object      phia;
}
// * * * * * * * * * * * * * * * * * * * * * * * * * * * * * * * * * * * * * //

dimensions      [0 3 -1 0 0 0 0];

internalField   nonuniform List<scalar> 
490
(
4.07429e-06
-1.42173e-06
-8.55091e-06
1.15782e-05
-1.41117e-06
-8.49037e-06
1.8937e-05
-3.13557e-06
3.50171e-07
1.90737e-05
-3.84705e-06
4.09114e-06
1.88028e-05
-3.7076e-06
3.27747e-06
1.83451e-05
-3.60383e-06
3.05277e-06
1.83451e-05
-3.46866e-06
2.97838e-06
1.87982e-05
-3.60383e-06
3.05269e-06
1.53846e-05
-3.69731e-06
3.10672e-06
4.93504e-06
1.29856e-06
4.21177e-06
-1.41291e-06
-8.57475e-06
4.14881e-06
-1.34397e-06
-8.64278e-06
1.00515e-05
-1.34757e-06
-8.62617e-06
1.63959e-05
-2.40701e-06
-3.42375e-06
1.65562e-05
-2.96719e-06
-1.25134e-06
1.5859e-05
-3.17079e-06
2.68429e-06
1.5859e-05
-2.99523e-06
2.57475e-06
1.65543e-05
-3.17091e-06
2.68794e-06
1.49453e-05
-3.30386e-06
2.77588e-06
2.38674e-06
1.81855e-06
4.72376e-06
-2.16951e-06
-8.42034e-06
4.59143e-06
-1.54045e-06
-8.54802e-06
4.66696e-06
-1.54387e-06
-8.5318e-06
7.93528e-06
-1.54856e-06
-8.5137e-06
1.27913e-05
-2.10287e-06
-5.18079e-06
1.39611e-05
-2.70635e-06
-2.84204e-06
1.39618e-05
-2.63451e-06
2.23256e-06
1.47843e-05
-2.82999e-06
2.39346e-06
1.42204e-05
-2.98437e-06
2.50545e-06
7.63048e-07
2.08325e-06
3.674e-05
4.80125e-06
3.70159e-05
-9.74673e-07
3.70132e-05
-1.21062e-06
3.70025e-05
-1.27422e-06
2.82359e-05
-1.30155e-06
1.57305e-05
-2.61089e-06
1.24684e-05
1.8679e-06
1.33532e-05
2.136e-06
1.33708e-05
2.27562e-06
2.19213e-06
4.00448e-06
-1.38406e-06
-8.63175e-06
1.56504e-06
-1.35362e-06
-8.67589e-06
-3.58224e-06
-1.097e-05
-5.51761e-06
4.21925e-06
-2.24691e-05
-1.71177e-06
1.68915e-05
-6.99548e-06
-1.73276e-06
1.88015e-05
-3.70941e-06
3.09699e-06
1.88025e-05
-3.60378e-06
3.05269e-06
1.91459e-05
-3.7074e-06
3.1091e-06
1.58308e-05
-3.77777e-06
3.11058e-06
4.2934e-06
2.32524e-06
4.02316e-06
-1.4004e-06
-8.62331e-06
3.95364e-06
-1.33935e-06
-8.68057e-06
3.88582e-06
-1.33956e-06
-8.68052e-06
5.51746e-06
-1.61505e-06
-8.58966e-06
1.20341e-05
-2.22917e-06
-6.96025e-06
1.65511e-05
-2.46613e-06
-2.89397e-06
1.65559e-05
-3.16577e-06
2.53632e-06
1.71026e-05
-3.30847e-06
2.74649e-06
1.55537e-05
-3.41452e-06
3.00372e-06
2.12044e-06
2.66249e-06
4.07455e-06
-5.86557e-06
-8.58042e-06
3.95372e-06
-1.58351e-06
-8.68056e-06
3.95368e-06
-1.42269e-06
-8.68059e-06
3.95375e-06
-1.38103e-06
-8.68059e-06
4.28395e-06
-1.36444e-06
-8.6805e-06
9.48409e-06
-1.42036e-06
-8.35204e-06
1.47455e-05
-2.80555e-06
-3.19567e-06
1.54396e-05
-2.98261e-06
-3.06712e-06
1.49385e-05
-3.11164e-06
-6.07475e-07
1.10355e-06
2.8367e-06
1.87658e-05
3.88401e-06
5.11242e-06
-7.93214e-06
4.50062e-06
-8.3741e-06
4.33635e-06
-8.493e-06
4.34822e-06
-8.54132e-06
8.55048e-06
-8.48307e-06
1.31964e-05
-3.41758e-06
1.40456e-05
-3.22315e-06
1.42342e-05
-2.06396e-06
2.92185e-06
4.00585e-06
-1.37347e-06
2.55323e-06
3.95361e-06
-1.33934e-06
-8.62822e-06
3.87059e-06
-1.3396e-06
-8.66974e-06
4.42106e-06
-1.67486e-06
-8.51112e-06
1.21602e-05
-2.35104e-06
-7.43383e-06
1.91324e-05
-2.68261e-06
3.08432e-06
1.91463e-05
-3.67897e-06
3.06339e-06
1.68919e-05
-3.76783e-06
2.84598e-06
1.44752e-05
1.72886e-06
2.96181e-06
2.29121e-06
3.15841e-06
4.01435e-06
-1.39196e-06
-8.59143e-06
3.95368e-06
-1.33934e-06
-8.68055e-06
3.95365e-06
-1.33933e-06
-8.68058e-06
3.95367e-06
-1.33933e-06
-8.68059e-06
4.04832e-06
-1.33934e-06
-8.68056e-06
1.03308e-05
-1.35525e-06
-8.57071e-06
1.68916e-05
-2.38573e-06
2.18727e-06
1.59316e-05
-2.45532e-06
2.81374e-06
1.46665e-05
9.65458e-07
3.12621e-06
2.27939e-06
3.25807e-06
4.05704e-06
-5.71966e-06
-8.53875e-06
3.95369e-06
-1.54266e-06
-8.68054e-06
3.95366e-06
-1.40751e-06
-8.68058e-06
3.95365e-06
-1.37273e-06
-8.68059e-06
3.95365e-06
-1.35883e-06
-8.68059e-06
3.96201e-06
-1.35194e-06
-8.68059e-06
4.01467e-06
-1.34967e-06
-8.66843e-06
6.21313e-06
-1.35585e-06
-4.59579e-06
1.15976e-05
-3.36363e-07
-3.08075e-07
2.27658e-06
3.29413e-06
1.81409e-05
3.25828e-06
4.8016e-06
-7.68704e-06
4.27143e-06
-8.29263e-06
4.11943e-06
-8.46529e-06
4.05449e-06
-8.53964e-06
4.02261e-06
-8.57902e-06
4.01464e-06
-8.59961e-06
4.98986e-06
-6.1881e-06
1.04165e-05
-1.62425e-06
3.31179e-06
3.00583e-05
-4.00586e-07
8.02003e-06
4.09973e-06
-1.33502e-06
-7.18869e-06
3.94499e-06
-1.3386e-06
-8.04768e-06
4.08883e-06
-1.50813e-06
-8.22403e-06
1.17373e-05
-1.86882e-06
-3.96303e-06
1.87674e-05
-2.62213e-06
1.85975e-06
1.50145e-05
-2.88599e-06
1.88276e-06
1.22532e-05
2.17184e-06
1.68032e-06
1.33602e-05
2.25487e-06
1.86819e-06
2.29154e-06
2.06057e-06
3.93073e-06
-1.2796e-06
-3.562e-06
3.9536e-06
-1.33929e-06
-7.01607e-06
3.95362e-06
-1.3393e-06
-7.90373e-06
3.95363e-06
-1.33931e-06
-8.21989e-06
3.98716e-06
-1.33932e-06
-8.36397e-06
9.73387e-06
-1.34453e-06
-4.7425e-06
1.41998e-05
-1.8885e-06
1.2965e-06
1.33475e-05
1.63421e-06
1.79511e-06
1.40712e-05
2.23965e-06
1.92971e-06
2.27002e-06
2.05873e-06
3.88056e-06
9.15665e-07
-3.53938e-06
3.95358e-06
-1.09779e-06
-6.34559e-06
3.9536e-06
-1.24879e-06
-7.45247e-06
3.95361e-06
-1.29126e-06
-7.91668e-06
3.95362e-06
-1.30912e-06
-8.14836e-06
3.95737e-06
-1.31835e-06
-8.27915e-06
7.25539e-06
-1.32392e-06
-5.2528e-06
1.23297e-05
6.14152e-07
1.899e-08
1.43505e-05
2.23588e-06
1.93363e-06
2.26348e-06
2.03155e-06
-8.55013e-07
2.03073e-06
3.28821e-06
-3.09347e-06
3.67027e-06
-3.56752e-06
3.79079e-06
-3.74306e-06
3.84548e-06
-3.84218e-06
3.8763e-06
-3.91025e-06
5.94781e-06
-3.96144e-06
1.11581e-05
-1.58426e-06
1.45012e-05
1.92402e-06
2.00339e-06
-2.18728e-05
1.65384e-05
-3.82551e-06
3.64313e-06
4.32988e-07
7.37024e-07
2.35545e-06
-3.28961e-07
3.4061e-06
3.10899e-07
3.73393e-06
1.25976e-06
4.10518e-06
1.58484e-06
4.57651e-06
1.75781e-06
5.18395e-06
1.97108e-06
2.2417e-06
-2.61432e-05
1.67532e-05
-5.9209e-06
5.10548e-06
-5.96219e-07
1.59129e-06
1.3517e-06
2.94356e-07
2.53968e-06
-3.03577e-07
3.32189e-06
2.84265e-07
3.68812e-06
1.15335e-06
4.07364e-06
1.58633e-06
4.5555e-06
1.7592e-06
1.97194e-06
-2.82582e-05
1.6358e-05
-1.00205e-05
9.94757e-06
-3.12659e-06
7.12279e-06
-2.55785e-07
5.67356e-06
1.16961e-06
4.76359e-06
2.3066e-06
4.11776e-06
3.21754e-06
4.35923e-06
3.67117e-06
1.58559e-06
4.06393e-06
1.5878e-06
1.75945e-06
-3.74835e-05
-3.23609e-05
-2.84535e-05
-2.53717e-05
-2.2876e-05
-2.07903e-05
-8.83474e-06
2.8254e-06
3.66833e-06
)
;

boundaryField
{
    inlet
    {
        type            calculated;
        value           nonuniform 0();
    }
    outlet
    {
        type            calculated;
        value           nonuniform 0();
    }
    bottom
    {
        type            calculated;
        value           uniform 0;
    }
    top
    {
        type            symmetryPlane;
        value           uniform 0;
    }
    side1
    {
        type            symmetryPlane;
        value           nonuniform 0();
    }
    side2
    {
        type            symmetryPlane;
        value           nonuniform 0();
    }
    procBoundary9to1
    {
        type            processor;
        value           nonuniform List<scalar> 
50
(
6.69756e-06
5.97182e-06
6.02829e-06
4.71057e-06
4.21284e-06
4.17205e-06
4.11798e-06
4.17204e-06
4.18776e-06
-8.32613e-06
2.1304e-05
2.19387e-05
3.18879e-05
4.31029e-05
1.52256e-05
4.21821e-06
4.17203e-06
4.21257e-06
4.21613e-06
-7.8217e-06
1.37382e-06
1.35894e-06
1.26281e-05
2.2575e-05
1.47821e-05
4.25529e-06
4.21261e-06
4.23804e-06
-3.23466e-07
-2.62346e-06
-5.05939e-07
1.33178e-06
9.05085e-06
2.23892e-05
1.61344e-05
4.18132e-06
3.78418e-06
-2.16376e-06
-2.38825e-06
-2.59259e-06
-1.48838e-05
-2.87673e-06
5.23681e-06
1.98405e-05
-1.25478e-06
-1.57661e-06
-1.75225e-06
-1.96715e-06
-2.23894e-06
-2.59516e-06
)
;
    }
    procBoundary9to8
    {
        type            processor;
        value           nonuniform List<scalar> 
20
(
4.29711e-05
-1.85166e-05
-2.00584e-05
-3.7027e-05
-1.88024e-05
-1.86273e-05
-1.98318e-05
-3.47613e-05
-2.00057e-05
-1.88353e-05
-1.99399e-05
-3.43268e-05
-5.78358e-05
-5.78173e-06
7.09426e-07
5.11624e-06
3.22784e-05
4.54914e-05
4.50728e-05
4.45031e-05
)
;
    }
    procBoundary9to10
    {
        type            processor;
        value           nonuniform List<scalar> 
20
(
1.00432e-05
1.1294e-05
1.1895e-05
1.20184e-05
1.36414e-05
1.43731e-05
1.45611e-05
1.45224e-05
1.46706e-05
1.48489e-05
1.49068e-05
1.49301e-05
1.42887e-05
1.46288e-05
1.47556e-05
1.48232e-05
5.98927e-06
5.1724e-06
4.55248e-06
4.06629e-06
)
;
    }
    procBoundary9to17
    {
        type            processor;
        value           nonuniform List<scalar> 
50
(
-2.31945e-06
-1.73424e-06
-1.74294e-06
-1.75395e-06
-1.76753e-06
-2.11432e-06
-2.16682e-06
-2.36673e-06
-2.59934e-06
-3.65486e-07
-7.85263e-06
-1.78208e-06
-1.6263e-06
-1.59205e-06
-1.58444e-06
-1.59794e-06
-2.25629e-06
-2.46681e-06
-2.70204e-06
5.17458e-07
-9.3192e-06
-1.91086e-06
-1.53637e-06
-1.43673e-06
-1.39655e-06
-1.37658e-06
-1.36568e-06
-1.36079e-06
-8.6961e-07
2.24681e-06
2.90357e-06
-6.60522e-07
-1.0713e-06
-1.19485e-06
-1.24801e-06
-1.2758e-06
-1.29218e-06
-1.44968e-07
2.20716e-06
2.20973e-06
1.49628e-05
1.2919e-05
1.13606e-05
1.0132e-05
9.1378e-06
8.316e-06
7.61722e-06
1.92763e-06
1.21089e-06
1.04248e-06
)
;
    }
}


// ************************************************************************* //
