/*--------------------------------*- C++ -*----------------------------------*\
| =========                 |                                                 |
| \\      /  F ield         | OpenFOAM: The Open Source CFD Toolbox           |
|  \\    /   O peration     | Version:  2.4.0                                 |
|   \\  /    A nd           | Web:      www.OpenFOAM.org                      |
|    \\/     M anipulation  |                                                 |
\*---------------------------------------------------------------------------*/
FoamFile
{
    version     2.0;
    format      ascii;
    class       volVectorField;
    location    "0.04";
    object      Uc;
}
// * * * * * * * * * * * * * * * * * * * * * * * * * * * * * * * * * * * * * //

dimensions      [0 1 -1 0 0 0 0];

internalField   nonuniform List<vector> 
200
(
(5.5165e-09 -1.64331e-07 -2.95181e-08)
(3.20094e-07 -9.53535e-06 -1.71279e-06)
(1.05352e-05 -0.000313836 -5.6373e-05)
(3.20228e-07 -9.53526e-06 -1.7128e-06)
(9.03966e-09 -1.6217e-07 -2.96085e-08)
(2.04845e-10 -2.03168e-09 -3.83134e-10)
(1.24712e-11 -2.11244e-11 -6.43402e-12)
(6.24286e-10 -1.94448e-11 -1.61943e-10)
(3.2363e-08 -9.98507e-10 -8.39377e-09)
(9.39412e-07 -2.89838e-08 -2.43648e-07)
(2.3374e-11 -6.92373e-10 -1.2433e-10)
(1.19111e-09 -3.51431e-08 -6.3115e-09)
(3.40777e-08 -9.90917e-07 -1.78034e-07)
(4.32551e-08 -9.21005e-09 -7.40013e-09)
(1.24695e-06 7.68054e-07 -3.23955e-08)
(4.20756e-08 2.593e-08 -1.09073e-09)
(7.98933e-10 4.92398e-10 -2.07095e-11)
(1.4196e-11 6.83497e-12 -1.05852e-12)
(1.36474e-10 -4.12624e-12 -3.53657e-11)
(3.46258e-09 -1.0683e-10 -8.9806e-10)
(2.25446e-11 1.16653e-11 -9.7403e-13)
(2.13334e-09 1.21447e-09 -7.28323e-11)
(1.6834e-07 1.01298e-07 -4.79155e-09)
(9.96912e-06 6.14601e-06 -2.58025e-07)
(0.000337604 0.000208138 -8.7374e-06)
(9.96912e-06 6.1461e-06 -2.58007e-07)
(1.6826e-07 1.03733e-07 -4.3548e-09)
(2.13011e-09 1.31318e-09 -5.51364e-11)
(2.29035e-11 1.384e-11 -6.93476e-13)
(9.93302e-12 -1.71416e-13 -2.52752e-12)
(2.12994e-09 1.31313e-09 -5.51252e-11)
(2.24325e-07 1.38299e-07 -5.80571e-09)
(1.99347e-05 1.229e-05 -5.15923e-07)
(0.00134978 0.000832158 -3.49331e-05)
(0.0533226 0.0328741 -0.00138002)
(0.00134978 0.000832158 -3.49331e-05)
(1.99351e-05 1.22899e-05 -5.15961e-07)
(2.24339e-07 1.38295e-07 -5.80716e-09)
(2.13024e-09 1.31305e-09 -5.51565e-11)
(1.80045e-11 1.10808e-11 -4.71717e-13)
(2.04575e-11 -6.18134e-10 -1.10609e-10)
(1.06195e-09 -3.20476e-08 -5.73649e-09)
(3.08684e-08 -9.30319e-07 -1.6658e-07)
(1.35066e-09 -3.20598e-08 -5.72405e-09)
(7.63117e-09 -9.40964e-10 2.17435e-10)
(3.11793e-10 -2.17172e-11 4.9836e-12)
(2.13209e-09 -6.59558e-11 -5.51162e-10)
(1.65348e-07 -5.10156e-09 -4.28853e-08)
(9.59791e-06 -2.96128e-07 -2.48935e-06)
(0.000316 -9.74964e-06 -8.19588e-05)
(-1.03375e-12 -6.21005e-12 3.9477e-11)
(-5.50691e-11 -3.07817e-10 2.08348e-09)
(-1.64929e-09 -8.55115e-09 6.18727e-08)
(1.01653e-10 -2.11864e-10 2.07949e-09)
(4.12759e-09 2.52327e-09 -6.57131e-11)
(1.56977e-10 9.58581e-11 -3.47483e-12)
(1.56149e-11 1.03483e-12 -2.92955e-12)
(6.96548e-10 -2.14849e-11 -1.80631e-10)
(3.53626e-08 -1.09106e-09 -9.17178e-09)
(9.97696e-07 -3.07823e-08 -2.58766e-07)
(9.00348e-14 1.77703e-14 4.17407e-13)
(8.20753e-12 3.33281e-12 1.97037e-11)
(6.08265e-10 3.31124e-10 5.09479e-10)
(3.28103e-08 2.02263e-08 -8.29235e-10)
(9.72565e-07 5.996e-07 -2.51702e-08)
(3.28421e-08 2.02188e-08 -8.52506e-10)
(1.41751e-09 1.42704e-10 -1.01196e-10)
(4.22389e-11 -4.16618e-12 -4.14587e-12)
(1.00051e-10 -3.20628e-12 -2.58225e-11)
(2.45011e-09 -7.55963e-11 -6.35466e-10)
(8.75841e-12 5.3995e-12 -2.24233e-13)
(8.30372e-10 5.11929e-10 -2.13853e-11)
(6.5607e-08 4.04474e-08 -1.69545e-09)
(3.88791e-06 2.39695e-06 -1.00622e-07)
(0.00013169 8.11886e-05 -3.40823e-06)
(3.89533e-06 2.39469e-06 -1.01416e-07)
(2.81233e-07 -2.5028e-08 -2.47814e-08)
(8.25671e-09 -1.74309e-09 -8.16503e-10)
(1.52205e-10 -3.80939e-11 -1.56187e-11)
(7.29043e-12 -7.28782e-13 -1.55627e-12)
(-2.09532e-10 -4.09259e-11 1.97092e-10)
(-1.10307e-08 -2.14898e-09 1.03863e-08)
(-3.26136e-07 -6.35206e-08 3.08007e-07)
(6.66853e-08 -5.53303e-09 1.3746e-08)
(2.30451e-06 -1.00397e-07 9.98292e-08)
(7.7734e-08 -3.38555e-09 3.36327e-09)
(1.4854e-09 -6.48839e-11 6.13848e-11)
(6.43733e-10 -2.01394e-11 -1.60675e-10)
(3.23024e-08 -9.96638e-10 -8.37798e-09)
(9.37834e-07 -2.89351e-08 -2.43239e-07)
(-6.11395e-10 -1.76953e-09 2.15774e-08)
(-3.62135e-08 -1.04882e-07 1.27895e-06)
(-1.22609e-06 -3.55316e-06 4.33291e-05)
(-3.59672e-08 -1.04892e-07 1.27896e-06)
(5.87992e-09 -2.0473e-09 2.18574e-08)
(2.61376e-10 -3.98361e-11 2.81227e-10)
(5.68536e-10 -1.71529e-10 -5.72197e-11)
(2.58553e-11 -7.02715e-12 -3.17885e-12)
(1.36562e-10 -4.35137e-12 -3.53415e-11)
(3.45594e-09 -1.06629e-10 -8.96338e-10)
(-5.79495e-12 -1.67946e-11 2.04805e-10)
(-3.05206e-10 -8.84883e-10 1.07911e-08)
(-9.04474e-09 -2.62339e-08 3.1993e-07)
(-2.41459e-10 -8.4814e-10 1.07893e-08)
(1.77207e-09 9.2181e-10 1.4686e-10)
(8.19143e-09 -2.4315e-09 -8.69013e-10)
(2.29399e-07 -6.96563e-08 -2.45576e-08)
(8.13009e-09 -2.46871e-09 -8.7035e-10)
(1.60531e-10 -4.86282e-11 -1.72507e-11)
(1.20196e-11 -1.0027e-12 -2.76464e-12)
(-1.02973e-14 -7.64617e-14 1.07944e-12)
(3.10273e-13 -3.16077e-12 5.11675e-11)
(8.86316e-11 -3.73292e-11 1.34624e-09)
(6.89198e-09 3.79597e-09 -1.66862e-10)
(2.27869e-07 1.05506e-07 -8.98188e-09)
(2.21297e-06 -6.66081e-07 -2.36385e-07)
(7.26534e-05 -2.20613e-05 -7.77773e-06)
(2.20656e-06 -6.70028e-07 -2.36219e-07)
(3.80127e-08 -1.15427e-08 -4.06937e-09)
(4.88773e-10 -1.48411e-10 -5.23277e-11)
(-1.11666e-07 -1.68512e-08 5.11968e-08)
(-6.61741e-06 -9.9867e-07 3.03455e-06)
(-0.000224143 -3.38286e-05 0.000102805)
(-6.61712e-06 -9.98683e-07 3.03456e-06)
(-1.04069e-07 -1.71821e-08 5.15252e-08)
(-1.12508e-09 -2.25822e-10 6.60321e-10)
(-8.80334e-12 -2.51627e-12 7.08895e-12)
(1.25534e-12 -6.51428e-14 -2.69592e-13)
(6.08517e-11 -1.87769e-12 -1.5782e-11)
(1.5784e-09 -4.86982e-11 -4.09375e-10)
(-1.85898e-07 -5.3694e-07 6.54685e-06)
(-1.25766e-05 -3.63694e-05 0.00044347)
(-0.000496493 -0.00143729 0.0175263)
(-1.25766e-05 -3.63694e-05 0.00044347)
(-1.85874e-07 -5.36941e-07 6.54685e-06)
(-2.09288e-09 -6.04011e-09 7.36414e-08)
(-1.76503e-11 -5.80081e-11 6.98692e-10)
(-6.21605e-14 -5.13932e-13 5.88421e-12)
(2.89491e-13 -1.33623e-14 -2.94544e-14)
(6.64941e-12 -2.05193e-13 -1.72426e-12)
(-1.56511e-09 -4.52979e-09 5.52358e-08)
(-9.27038e-08 -2.68487e-07 3.274e-06)
(-3.13873e-06 -9.09582e-06 0.000110919)
(-9.27037e-08 -2.68487e-07 3.274e-06)
(-1.56239e-09 -4.52878e-09 5.52357e-08)
(1.1546e-11 -6.67691e-11 6.95608e-10)
(7.94417e-10 -2.41894e-10 -7.76961e-11)
(3.12783e-11 -9.50389e-12 -3.28022e-12)
(6.7973e-13 -2.06189e-13 -7.23434e-14)
(3.26346e-14 -4.7149e-15 -6.61443e-15)
(-7.42309e-12 -2.14976e-11 2.62147e-10)
(-3.90914e-10 -1.13268e-09 1.38124e-08)
(-1.15842e-08 -3.35807e-08 4.09507e-07)
(-3.80963e-10 -1.12842e-09 1.3812e-08)
(3.44376e-10 6.36134e-11 2.41418e-10)
(7.43413e-09 -2.25045e-09 -7.9153e-10)
(2.15626e-07 -6.54755e-08 -2.30834e-08)
(7.42633e-09 -2.25503e-09 -7.9501e-10)
(1.43217e-10 -4.34923e-11 -1.53313e-11)
(2.34147e-12 -8.94032e-13 -2.25212e-13)
(-3.34558e-05 -3.74408e-06 -1.22358e-06)
(-0.0022653 -0.000253512 -8.29198e-05)
(-0.0894898 -0.0100149 -0.00327852)
(-0.0022653 -0.000253512 -8.29198e-05)
(-3.34558e-05 -3.74408e-06 -1.22358e-06)
(-3.76478e-07 -4.21321e-08 -1.37569e-08)
(-3.57461e-09 -4.00041e-10 -1.30507e-10)
(-3.01676e-11 -3.37642e-12 -1.10102e-12)
(-1.48685e-13 -2.87358e-14 -3.04315e-14)
(1.98313e-12 -6.13773e-14 -5.13789e-13)
(-2.82994e-07 -3.33743e-08 1.12167e-08)
(-1.67671e-05 -1.97741e-06 6.64847e-07)
(-0.000567816 -6.69655e-05 2.25243e-05)
(-1.67671e-05 -1.97741e-06 6.64847e-07)
(-2.82994e-07 -3.33743e-08 1.12167e-08)
(-3.5825e-09 -4.2249e-10 1.41937e-10)
(-3.77893e-11 -4.45856e-12 1.49627e-12)
(-3.50629e-13 -4.14498e-14 1.38625e-14)
(-2.49839e-15 -3.74422e-16 8.31569e-19)
(9.84298e-15 -7.05963e-16 -2.44492e-15)
(-1.34653e-09 -1.6687e-10 1.55422e-10)
(-7.09189e-08 -8.78889e-09 8.19023e-09)
(-2.10173e-06 -2.60469e-07 2.42855e-07)
(-7.09189e-08 -8.78889e-09 8.19022e-09)
(-1.34652e-09 -1.66869e-10 1.55421e-10)
(-1.88731e-11 -2.36718e-12 2.1778e-12)
(1.3113e-12 -4.92152e-13 -1.38103e-13)
(6.42472e-14 -2.04986e-14 -6.83229e-15)
(5.64461e-15 -4.19628e-15 -2.5924e-16)
(1.94051e-13 -1.76338e-13 -4.42885e-15)
(-4.74597e-12 -6.1646e-13 9.05499e-13)
(-2.24976e-10 -2.92233e-11 4.29486e-11)
(-5.92733e-09 -7.69953e-10 1.1322e-09)
(-2.24963e-10 -2.92196e-11 4.29479e-11)
(-4.25323e-12 -5.87995e-13 8.68567e-13)
(1.39442e-11 -4.25854e-12 -1.4818e-12)
(3.63367e-10 -1.10338e-10 -3.88018e-11)
(1.40288e-11 -4.27162e-12 -1.49603e-12)
(1.67609e-12 -1.34244e-12 -6.32838e-14)
(7.26248e-11 -6.60113e-11 -1.6555e-12)
)
;

boundaryField
{
    inlet
    {
        type            calculated;
        value           nonuniform 0();
    }
    outlet
    {
        type            calculated;
        value           nonuniform 0();
    }
    bottom
    {
        type            calculated;
        value           uniform (0 0 0);
    }
    top
    {
        type            symmetryPlane;
    }
    side1
    {
        type            symmetryPlane;
    }
    side2
    {
        type            symmetryPlane;
    }
    procBoundary9to1
    {
        type            processor;
        value           nonuniform List<vector> 
50
(
(7.48116e-07 -2.22857e-05 -4.00309e-06)
(5.0655e-05 -0.00150897 -0.00027105)
(0.00200111 -0.0596113 -0.0107077)
(5.06551e-05 -0.00150897 -0.00027105)
(7.51096e-07 -2.22859e-05 -4.00297e-06)
(8.54154e-09 -2.50786e-07 -4.50445e-08)
(1.0199e-09 -2.41017e-09 -6.70786e-10)
(7.40774e-08 -2.30561e-09 -1.92164e-08)
(4.38974e-06 -1.35438e-07 -1.13854e-06)
(0.00014868 -4.58727e-06 -3.85621e-05)
(2.46231e-09 -7.33445e-08 -1.31746e-08)
(1.45923e-07 -4.34644e-06 -7.80731e-07)
(4.94325e-06 -0.000147221 -2.64446e-05)
(2.06639e-07 -4.34908e-06 -7.78107e-07)
(1.80306e-06 -1.51749e-07 6.46581e-08)
(6.31587e-08 -3.64671e-09 1.83749e-09)
(2.53505e-07 -7.84588e-09 -6.54028e-08)
(2.24344e-05 -6.92176e-07 -5.81866e-06)
(0.00151963 -4.68858e-05 -0.000394138)
(0.0600546 -0.00185289 -0.015576)
(4.40805e-11 -1.38022e-10 -2.16109e-11)
(4.0821e-09 -7.34566e-09 -1.06818e-09)
(3.15607e-07 -2.26157e-07 -2.34227e-08)
(1.84263e-05 -8.09516e-07 7.95317e-07)
(0.000624258 -2.71826e-05 2.69863e-05)
(1.84262e-05 -8.02344e-07 7.96552e-07)
(3.11805e-07 -1.35652e-08 1.3196e-08)
(7.78733e-08 -2.45257e-09 -1.90072e-08)
(4.38256e-06 -1.35217e-07 -1.13666e-06)
(0.000148466 -4.58066e-06 -3.85066e-05)
(-9.35074e-10 -1.25527e-10 2.28098e-10)
(-4.84792e-08 -6.52569e-09 1.2047e-08)
(-1.40689e-06 -1.90144e-07 3.5827e-07)
(1.2237e-08 -9.16949e-09 1.46717e-08)
(1.79964e-06 -7.85289e-08 7.8066e-08)
(6.07191e-08 -2.64629e-09 2.62863e-09)
(1.15442e-09 -5.02708e-11 4.93656e-11)
(1.53283e-10 -4.93522e-12 -3.48522e-11)
(7.22256e-09 -2.22842e-10 -1.87321e-09)
(2.14111e-07 -6.60605e-09 -5.55327e-08)
(-2.46698e-07 -2.76081e-08 -9.01436e-09)
(-1.43146e-05 -1.60197e-06 -5.23492e-07)
(-0.000471137 -5.27253e-05 -1.72437e-05)
(-1.43145e-05 -1.60197e-06 -5.23487e-07)
(-2.43727e-07 -2.77377e-08 -8.88628e-09)
(-3.06046e-09 -3.60029e-10 -1.10993e-10)
(-3.15191e-11 -3.89744e-12 -1.13491e-12)
(-9.26948e-14 -4.29975e-14 -5.87734e-14)
(8.93398e-12 -2.76035e-13 -2.31303e-12)
(2.3549e-10 -7.26566e-12 -6.09644e-11)
)
;
    }
    procBoundary9to8
    {
        type            processor;
        value           nonuniform List<vector> 
20
(
(7.09571e-11 -2.11364e-09 -3.7965e-10)
(3.37723e-13 -9.99218e-12 -1.79586e-12)
(2.098e-13 9.36099e-14 -1.16898e-14)
(1.79767e-11 1.10828e-11 -4.65265e-13)
(2.90964e-13 -8.76877e-12 -1.57049e-12)
(-1.4372e-14 -9.21308e-14 5.54155e-13)
(8.50402e-16 -7.78653e-17 6.46582e-15)
(8.12955e-14 5.01155e-14 -2.06282e-15)
(-2.94728e-12 -5.77224e-13 2.7707e-12)
(-7.74278e-12 -2.23927e-11 2.73044e-10)
(-8.15118e-14 -2.3613e-13 2.87946e-12)
(-2.68469e-16 -1.24595e-15 1.66873e-14)
(-1.41333e-09 -2.1327e-10 6.47857e-10)
(-2.09399e-09 -6.04003e-09 7.36413e-08)
(-1.98206e-11 -5.73217e-11 6.98953e-10)
(-1.04427e-13 -3.02261e-13 3.68571e-12)
(-3.76478e-07 -4.2132e-08 -1.3757e-08)
(-3.5825e-09 -4.22486e-10 1.41936e-10)
(-1.89396e-11 -2.34709e-12 2.18488e-12)
(-7.34281e-14 -9.53149e-15 1.39955e-14)
)
;
    }
    procBoundary9to10
    {
        type            processor;
        value           nonuniform List<vector> 
20
(
(2.76804e-08 -8.54004e-10 -7.17902e-09)
(1.16585e-10 -3.59759e-12 -3.02407e-11)
(3.7005e-13 -1.0281e-14 -9.55796e-14)
(1.42589e-13 8.55747e-14 -3.50967e-15)
(7.9769e-06 -2.46113e-07 -2.06891e-06)
(2.93788e-08 -9.06426e-10 -7.61976e-09)
(8.24424e-11 -2.54365e-12 -2.13819e-11)
(7.65224e-13 -4.0251e-14 2.33357e-14)
(2.76272e-08 -8.52366e-10 -7.16525e-09)
(1.16333e-10 -3.58916e-12 -3.01717e-11)
(3.9494e-13 -1.96773e-14 -9.82181e-14)
(5.23914e-12 -1.59983e-12 -5.58962e-13)
(5.31474e-11 -1.63966e-12 -1.37837e-11)
(2.5189e-13 -7.81401e-15 -6.53145e-14)
(2.20724e-14 -1.92032e-14 -7.25529e-16)
(8.0038e-12 -7.26106e-12 -1.85202e-13)
(9.23741e-14 3.92791e-15 -2.66764e-14)
(1.14153e-14 -9.75185e-15 -4.39783e-16)
(5.11766e-12 -4.65197e-12 -1.16653e-13)
(2.15526e-09 -1.95917e-09 -4.91679e-11)
)
;
    }
    procBoundary9to17
    {
        type            processor;
        value           nonuniform List<vector> 
50
(
(2.01993e-11 1.24531e-11 -5.22772e-13)
(1.89076e-09 1.16569e-09 -4.89343e-11)
(1.46995e-07 9.06251e-08 -3.80435e-09)
(8.52939e-06 5.2585e-06 -2.20746e-07)
(0.000280727 0.000173072 -7.2654e-06)
(8.53105e-06 5.258e-06 -2.20924e-07)
(1.96277e-07 7.56608e-08 -9.08004e-09)
(3.55323e-09 6.60873e-10 -2.26907e-10)
(5.17566e-11 2.87087e-12 -3.90098e-12)
(6.5306e-13 -1.89443e-14 -4.96399e-14)
(9.24575e-14 5.68363e-14 -2.39693e-15)
(7.89427e-12 4.84753e-12 -2.05609e-13)
(5.55138e-10 3.40164e-10 -1.45426e-11)
(2.88789e-08 1.76064e-08 -7.64866e-10)
(8.49097e-07 5.0784e-07 -2.3355e-08)
(1.03619e-06 -2.88267e-07 -1.08601e-07)
(3.41343e-05 -1.03644e-05 -3.65412e-06)
(1.00754e-06 -3.05934e-07 -1.07859e-07)
(1.69984e-08 -5.1615e-09 -1.8197e-09)
(2.19471e-10 -6.55345e-11 -2.24175e-11)
(3.60356e-14 -1.11092e-14 3.23013e-16)
(4.65811e-12 -1.41419e-12 -3.17677e-13)
(5.51636e-10 -1.66832e-10 -5.47013e-11)
(5.80672e-08 -1.75826e-08 -6.21169e-09)
(5.15888e-06 -1.56522e-06 -5.52159e-07)
(0.000349357 -0.000106083 -3.73996e-05)
(0.0138069 -0.0041925 -0.00147807)
(0.000349357 -0.000106083 -3.73996e-05)
(5.15748e-06 -1.56608e-06 -5.52123e-07)
(5.80134e-08 -1.7616e-08 -6.21048e-09)
(-2.59112e-14 -7.56297e-14 9.21569e-13)
(-1.21561e-12 -3.59036e-12 4.37027e-11)
(-3.0313e-11 -9.51507e-11 1.15171e-09)
(2.13937e-10 -6.8853e-11 2.06764e-11)
(1.69999e-08 -5.16054e-09 -1.81883e-09)
(1.00753e-06 -3.05939e-07 -1.07859e-07)
(3.41337e-05 -1.03648e-05 -3.65411e-06)
(1.00753e-06 -3.05939e-07 -1.07859e-07)
(1.69998e-08 -5.16301e-09 -1.81974e-09)
(3.00024e-10 -1.42515e-10 -2.49706e-11)
(-1.37999e-14 -1.87301e-15 3.66517e-15)
(-5.94697e-13 -8.08025e-14 1.58138e-13)
(-1.40997e-11 -1.91756e-12 3.75221e-12)
(-1.50913e-13 -2.1548e-13 1.10783e-13)
(3.1545e-11 -9.58309e-12 -3.36537e-12)
(1.66247e-09 -5.04814e-10 -1.77533e-10)
(4.92813e-08 -1.49644e-08 -5.26412e-09)
(1.66728e-09 -5.09185e-10 -1.77642e-10)
(4.12028e-10 -3.55444e-10 -1.20396e-11)
(2.2579e-08 -2.05249e-08 -5.15078e-10)
)
;
    }
}


// ************************************************************************* //
