/*--------------------------------*- C++ -*----------------------------------*\
| =========                 |                                                 |
| \\      /  F ield         | OpenFOAM: The Open Source CFD Toolbox           |
|  \\    /   O peration     | Version:  2.4.0                                 |
|   \\  /    A nd           | Web:      www.OpenFOAM.org                      |
|    \\/     M anipulation  |                                                 |
\*---------------------------------------------------------------------------*/
FoamFile
{
    version     2.0;
    format      ascii;
    class       surfaceScalarField;
    location    "0.03";
    object      phia;
}
// * * * * * * * * * * * * * * * * * * * * * * * * * * * * * * * * * * * * * //

dimensions      [0 3 -1 0 0 0 0];

internalField   nonuniform List<scalar> 
490
(
-6.4316e-06
2.58311e-07
6.08775e-07
-6.4316e-06
2.58312e-07
6.08775e-07
-6.4316e-06
2.58312e-07
6.08776e-07
-6.4316e-06
2.58312e-07
6.08775e-07
-6.43159e-06
2.58311e-07
6.08775e-07
-6.43158e-06
2.58311e-07
6.08774e-07
-6.43157e-06
2.58311e-07
6.08774e-07
-6.40379e-06
2.53996e-07
6.12331e-07
-4.23918e-06
-2.899e-07
9.60231e-07
-4.96258e-07
1.06786e-06
-6.43162e-06
2.58312e-07
6.08777e-07
-6.43162e-06
2.58312e-07
6.08778e-07
-6.43162e-06
2.58312e-07
6.08778e-07
-6.43162e-06
2.58312e-07
6.08778e-07
-6.43162e-06
2.58312e-07
6.08777e-07
-6.43161e-06
2.58312e-07
6.08778e-07
-6.42157e-06
2.5452e-07
6.16078e-07
-4.55179e-06
-1.91169e-06
1.11479e-06
-2.48861e-06
-2.72788e-06
1.18273e-06
-2.70527e-06
1.08755e-06
-6.43163e-06
2.58313e-07
6.08779e-07
-6.43163e-06
2.58312e-07
6.08778e-07
-6.43163e-06
2.58313e-07
6.08779e-07
-6.43163e-06
2.58312e-07
6.08778e-07
-6.43163e-06
2.58313e-07
6.08782e-07
-6.43238e-06
2.58964e-07
6.30628e-07
-6.98708e-06
9.68492e-07
1.56211e-06
-7.71017e-06
-1.04295e-06
1.8754e-06
-7.97546e-06
-1.32426e-06
1.55147e-06
-1.44135e-06
1.28881e-06
-6.43164e-06
6.08779e-07
-6.43163e-06
6.08779e-07
-6.43163e-06
6.08779e-07
-6.43163e-06
6.08791e-07
-6.42987e-06
6.67403e-07
-4.49804e-06
4.34426e-06
-2.15812e-06
7.49031e-06
-1.75139e-06
8.14972e-06
-1.76607e-06
8.14432e-06
8.12445e-06
-6.43159e-06
2.58311e-07
6.08774e-07
-6.4316e-06
2.58311e-07
6.08775e-07
-6.4316e-06
2.58312e-07
6.08775e-07
-6.43159e-06
2.58311e-07
6.08775e-07
-6.43158e-06
2.58311e-07
6.0877e-07
-6.43158e-06
2.58308e-07
6.03071e-07
-6.43753e-06
2.3333e-07
6.39876e-07
-7.2266e-06
-2.10968e-06
1.19346e-06
-8.07053e-06
-4.71758e-06
1.39149e-06
-4.88578e-06
1.23381e-06
-6.43162e-06
2.58312e-07
6.08777e-07
-6.43162e-06
2.58312e-07
6.08777e-07
-6.43162e-06
2.58312e-07
6.08778e-07
-6.43162e-06
2.58312e-07
6.08777e-07
-6.43161e-06
2.58309e-07
6.08799e-07
-6.4375e-06
2.28046e-07
7.37266e-07
-7.08806e-06
-1.67964e-06
1.5732e-06
-7.8449e-06
-4.25283e-06
1.83164e-06
-8.03193e-06
-4.59642e-06
1.51244e-06
-4.83166e-06
1.27523e-06
-6.43163e-06
2.58125e-07
6.08775e-07
-6.43163e-06
2.58312e-07
6.08778e-07
-6.43163e-06
2.58312e-07
6.08778e-07
-6.43163e-06
2.58315e-07
6.08894e-07
-6.43185e-06
2.718e-07
1.04657e-06
-6.67458e-06
1.08681e-06
2.38163e-06
-7.13931e-06
-7.87051e-07
2.98086e-06
-7.55341e-06
-1.03812e-06
2.39134e-06
-7.88845e-06
-1.24697e-06
1.83646e-06
-1.40809e-06
1.39619e-06
-6.43159e-06
5.98083e-07
-6.43163e-06
6.08837e-07
-6.43162e-06
6.09535e-07
-6.39519e-06
1.9506e-06
-4.07524e-06
4.44008e-06
-1.76703e-06
8.11545e-06
-1.74307e-06
8.15518e-06
-1.7455e-06
8.15398e-06
-1.75327e-06
8.15125e-06
8.14157e-06
-6.43158e-06
2.58311e-07
6.08774e-07
-6.43159e-06
2.58311e-07
6.08774e-07
-6.43159e-06
2.58311e-07
6.08774e-07
-6.43156e-06
2.58311e-07
6.08181e-07
-6.39295e-06
2.5825e-07
3.24834e-07
-6.28435e-06
2.49041e-08
2.32785e-07
-6.91149e-06
-1.9641e-06
5.72783e-07
-7.74689e-06
-4.19992e-06
4.94502e-06
-7.98358e-06
-4.55752e-06
4.8155e-06
-4.81819e-06
4.70623e-06
-6.43162e-06
2.57764e-07
6.08768e-07
-6.43162e-06
2.58312e-07
6.08777e-07
-6.43162e-06
2.58312e-07
6.08777e-07
-6.4316e-06
2.58282e-07
6.09142e-07
-6.42426e-06
7.68805e-08
1.51211e-06
-6.66825e-06
-1.06815e-06
3.64515e-06
-7.14054e-06
-3.13164e-06
5.3397e-06
-7.55339e-06
-3.72448e-06
5.10115e-06
-7.88844e-06
-4.27508e-06
4.89217e-06
-4.71194e-06
4.73524e-06
-6.43148e-06
-1.10948e-06
5.97792e-07
-6.43163e-06
2.50541e-07
6.09426e-07
-6.43158e-06
2.58483e-07
6.13728e-07
-6.26989e-06
5.67298e-07
3.56566e-06
-5.78425e-06
9.45702e-07
4.82093e-06
-5.76518e-06
-9.51747e-09
6.13441e-06
-6.39727e-06
-3.39521e-07
5.80349e-06
-7.04293e-06
-6.92757e-07
5.44774e-06
-7.62325e-06
-1.03709e-06
5.10127e-06
-1.32209e-06
4.81604e-06
-6.03235e-06
5.86846e-07
-6.42882e-06
6.17566e-07
-5.59708e-06
4.19714e-06
-3.25242e-06
5.72528e-06
-1.74057e-06
8.15621e-06
-1.73992e-06
8.15754e-06
-1.74036e-06
8.15734e-06
-1.74129e-06
8.15696e-06
-1.74424e-06
8.15612e-06
8.15318e-06
-6.43158e-06
2.56955e-07
5.96794e-07
-6.43158e-06
2.58309e-07
5.84914e-07
-6.42757e-06
2.58307e-07
5.40509e-07
-4.50753e-06
2.52523e-07
2.39042e-07
-2.00689e-06
-2.61521e-06
-4.54239e-08
-1.43356e-06
-2.48754e-06
-1.31828e-07
-1.59166e-06
-1.44192e-06
1.71425e-07
-1.73967e-06
1.97969e-06
4.01225e-06
-1.74259e-06
1.9956e-06
7.834e-06
1.99253e-06
8.13501e-06
-6.43123e-06
-1.14656e-06
6.0472e-07
-6.43161e-06
2.41651e-07
6.01013e-07
-6.43007e-06
2.59443e-07
5.84976e-07
-4.97083e-06
9.38143e-07
2.43264e-07
-2.59332e-06
4.31593e-07
1.14196e-06
-1.70627e-06
1.22215e-06
3.14671e-06
-1.73914e-06
1.99676e-06
4.53358e-06
-1.73951e-06
1.99709e-06
8.12874e-06
-1.74064e-06
1.99666e-06
8.13998e-06
1.99515e-06
8.13944e-06
-6.01871e-06
-2.58071e-06
5.84941e-07
-6.42317e-06
-1.17947e-06
6.0866e-07
-4.59037e-06
1.07005e-06
6.26091e-07
-2.2471e-06
1.80908e-06
4.46994e-06
-1.7388e-06
1.99754e-06
6.31302e-06
-1.7387e-06
1.99763e-06
7.52942e-06
-1.73875e-06
1.9976e-06
8.13918e-06
-1.73888e-06
1.99754e-06
8.14108e-06
-1.73927e-06
1.9974e-06
8.14242e-06
1.99692e-06
8.14298e-06
-5.58849e-06
5.84743e-07
-3.77036e-06
6.26067e-07
-1.85013e-06
7.86647e-06
-1.73852e-06
8.13613e-06
-1.73848e-06
8.13806e-06
-1.73847e-06
8.13979e-06
-1.73846e-06
8.14145e-06
-1.73845e-06
8.14306e-06
-1.7384e-06
8.14461e-06
8.14589e-06
-6.19642e-06
1.38906e-07
-5.81434e-06
2.40513e-08
-3.47445e-06
-4.41204e-07
-1.42853e-06
-5.38253e-06
-1.42126e-06
-5.42325e-06
-1.42126e-06
-5.42299e-06
-1.42197e-06
-4.95442e-06
-1.56956e-06
-1.70553e-06
-1.72917e-06
1.72369e-06
1.99426e-06
-6.35859e-06
-1.20095e-06
-6.22543e-06
1.05774e-07
-3.79763e-06
-1.19502e-09
-1.4501e-06
-4.19425e-06
-1.4213e-06
-3.35339e-06
-1.44133e-06
-2.25997e-06
-1.59976e-06
-1.24435e-06
-1.73868e-06
1.98814e-06
-1.73975e-06
1.99703e-06
1.996e-06
-5.97193e-06
-2.60457e-06
-6.29509e-06
-1.26097e-06
-3.93304e-06
1.01033e-06
-1.60768e-06
-5.16563e-07
-1.64505e-06
3.57002e-07
-1.71518e-06
1.45024e-06
-1.73861e-06
1.9973e-06
-1.7387e-06
1.9976e-06
-1.73893e-06
1.99749e-06
1.99712e-06
-5.58721e-06
-3.70254e-06
-1.78358e-06
-1.73847e-06
-1.73847e-06
-1.73846e-06
-1.73845e-06
-1.73843e-06
-1.73837e-06
)
;

boundaryField
{
    inlet
    {
        type            calculated;
        value           nonuniform 0();
    }
    outlet
    {
        type            calculated;
        value           nonuniform 0();
    }
    bottom
    {
        type            calculated;
        value           uniform 0;
    }
    top
    {
        type            symmetryPlane;
        value           uniform 0;
    }
    side1
    {
        type            symmetryPlane;
        value           nonuniform 0();
    }
    side2
    {
        type            symmetryPlane;
        value           nonuniform 0();
    }
    procBoundary19to11
    {
        type            processor;
        value           nonuniform List<scalar> 
50
(
-2.4199e-07
-2.39659e-07
-2.36553e-07
-2.39659e-07
-2.4199e-07
-2.43803e-07
-2.45253e-07
-2.46439e-07
-2.3934e-07
3.91979e-07
-2.43801e-07
-2.41987e-07
-2.39658e-07
-2.41987e-07
-2.43798e-07
-2.41882e-07
-2.33015e-07
-1.86947e-07
4.67301e-06
4.90585e-06
-2.45252e-07
-2.43801e-07
-2.41989e-07
-2.43455e-07
3.2049e-07
2.61892e-06
2.87939e-06
4.84213e-06
4.67314e-06
4.85932e-06
-2.36157e-07
-2.23633e-07
-1.73096e-07
2.51696e-06
4.75974e-06
5.42258e-06
5.15158e-06
1.72122e-06
-1.52402e-06
-1.98869e-06
2.66489e-06
2.75962e-06
3.10275e-06
5.4151e-06
5.4233e-06
5.42328e-06
5.42328e-06
5.40658e-06
1.9858e-06
9.42937e-07
)
;
    }
    procBoundary19to18
    {
        type            processor;
        value           nonuniform List<scalar> 
20
(
6.43159e-06
6.43164e-06
6.43168e-06
6.43171e-06
6.4316e-06
6.43166e-06
6.4317e-06
6.27801e-06
6.43163e-06
6.43168e-06
6.16897e-06
5.61769e-06
6.43159e-06
6.09479e-06
5.6071e-06
5.59774e-06
6.31012e-06
6.01322e-06
5.60023e-06
5.59779e-06
)
;
    }
    procBoundary19to20
    {
        type            processor;
        value           nonuniform List<scalar> 
20
(
-2.02795e-06
-2.16261e-06
-8.11742e-06
-4.59375e-06
-8.15629e-06
-8.14522e-06
-8.10847e-06
-4.42769e-06
-8.13369e-06
-8.10847e-06
-8.03515e-06
-4.0252e-06
-3.43569e-06
-3.0921e-06
-2.55419e-06
-1.59195e-06
-2.87512e-06
-2.57416e-06
-2.1733e-06
-1.61286e-06
)
;
    }
    procBoundary19to27
    {
        type            processor;
        value           nonuniform List<scalar> 
50
(
2.58237e-07
2.58314e-07
2.58313e-07
2.58313e-07
2.58313e-07
2.6153e-07
1.71298e-06
1.89763e-06
1.88292e-06
1.85152e-06
-9.78636e-07
2.55858e-07
2.58311e-07
2.58329e-07
3.22425e-07
1.89938e-06
1.90259e-06
1.89209e-06
1.87787e-06
1.85308e-06
-2.54434e-06
-1.17942e-06
1.05447e-07
1.11378e-06
1.91221e-06
1.9048e-06
1.89532e-06
1.88357e-06
1.86835e-06
1.8461e-06
-2.61259e-06
-2.59823e-06
-3.49092e-07
1.89628e-06
1.9059e-06
1.89671e-06
1.88548e-06
1.87144e-06
1.85337e-06
1.82924e-06
-2.61261e-06
-2.59893e-06
-3.25622e-07
1.90114e-06
1.9135e-06
1.90591e-06
1.89673e-06
1.88548e-06
1.87142e-06
1.85328e-06
)
;
    }
}


// ************************************************************************* //
