/*--------------------------------*- C++ -*----------------------------------*\
| =========                 |                                                 |
| \\      /  F ield         | OpenFOAM: The Open Source CFD Toolbox           |
|  \\    /   O peration     | Version:  2.4.0                                 |
|   \\  /    A nd           | Web:      www.OpenFOAM.org                      |
|    \\/     M anipulation  |                                                 |
\*---------------------------------------------------------------------------*/
FoamFile
{
    version     2.0;
    format      ascii;
    class       volVectorField;
    location    "0.03";
    object      Ua;
}
// * * * * * * * * * * * * * * * * * * * * * * * * * * * * * * * * * * * * * //

dimensions      [0 1 -1 0 0 0 0];

internalField   nonuniform List<vector> 
200
(
(-2.38483 -0.00311139 0.740913)
(-2.38482 -0.00311139 0.740913)
(-2.38482 -0.00311163 0.740912)
(-2.38534 -0.00489424 0.741147)
(-3.26006 -3.00271 1.11584)
(-3.59826 -4.25721 1.11158)
(-0.626591 -1.2233 -11.3369)
(-0.540299 -1.13519 -11.6983)
(-0.540259 -1.13513 -11.6981)
(-0.540227 -1.13506 -11.6973)
(-2.38484 -0.0031114 0.740916)
(-2.38484 -0.0031114 0.740916)
(-2.38483 -0.0031122 0.740908)
(-2.36959 -0.0132262 0.636908)
(-0.573852 -1.14437 -11.5188)
(-0.543981 -1.13896 -11.6831)
(-0.540279 -1.13518 -11.6986)
(-0.540273 -1.13516 -11.6985)
(-0.540263 -1.13514 -11.6982)
(-0.540234 -1.13508 -11.6976)
(-2.38484 -0.0031114 0.740917)
(-2.38484 -0.0031121 0.74091)
(-2.37071 -0.0117802 0.645663)
(-0.557637 -1.12454 -11.5817)
(-0.540286 -1.13519 -11.6987)
(-0.540283 -1.13518 -11.6987)
(-0.54028 -1.13518 -11.6986)
(-0.540276 -1.13517 -11.6985)
(-0.540268 -1.13515 -11.6983)
(-0.540244 -1.1351 -11.6978)
(-2.38481 -0.00311686 0.740924)
(-2.38482 -0.00311666 0.740892)
(-2.33971 -0.0308061 0.436617)
(-0.546588 -1.13132 -11.6562)
(-0.540283 -1.13518 -11.6987)
(-0.540281 -1.13518 -11.6986)
(-0.540278 -1.13517 -11.6986)
(-0.540273 -1.13516 -11.6985)
(-0.540263 -1.13514 -11.6982)
(-0.540234 -1.13508 -11.6976)
(-2.38482 -0.00311139 0.740913)
(-2.38482 -0.00311471 0.740912)
(-2.3921 -0.0279018 0.744308)
(-3.6202 -4.20701 1.31692)
(-3.65083 -4.31127 1.3312)
(-3.65082 -4.31129 1.33119)
(-3.6498 -4.31022 1.32694)
(-2.0696 -2.68379 -5.05979)
(-0.580534 -1.11183 -10.3695)
(-0.670441 -1.05495 -7.31648)
(-2.38484 -0.0031114 0.740916)
(-2.38483 -0.00311283 0.740916)
(-2.38749 -0.0121418 0.742143)
(-3.5537 -3.98565 1.27797)
(-3.64499 -4.30523 1.30672)
(-3.62665 -4.28658 1.22987)
(-0.722954 -1.32169 -10.9333)
(-0.540334 -1.13522 -11.6981)
(-0.540261 -1.13513 -11.6981)
(-0.540233 -1.13506 -11.6971)
(-2.38476 -0.0031233 0.74093)
(-2.3848 -0.00311887 0.740914)
(-2.37096 -0.0173118 0.638592)
(-0.727621 -1.29744 -10.8686)
(-0.599727 -1.19588 -11.4497)
(-0.552378 -1.14753 -11.648)
(-0.540284 -1.13518 -11.6985)
(-0.540273 -1.13516 -11.6985)
(-0.540263 -1.13514 -11.6982)
(-0.540234 -1.13508 -11.6976)
(-1.07781 -0.211171 0.96223)
(-1.82982 -0.0914644 0.834859)
(-2.07517 -0.0772453 0.463836)
(-0.582087 -1.16744 -11.5041)
(-0.552344 -1.14749 -11.6482)
(-0.542707 -1.13765 -11.6885)
(-0.540277 -1.13517 -11.6985)
(-0.54027 -1.13516 -11.6984)
(-0.540258 -1.13513 -11.6981)
(-0.540224 -1.13506 -11.6974)
(-2.38484 -0.00315793 0.740918)
(-2.47413 -0.307028 0.782554)
(-3.6486 -4.30366 1.33016)
(-3.65083 -4.31128 1.3312)
(-3.65082 -4.31129 1.33119)
(-3.65082 -4.31129 1.33119)
(-3.65082 -4.31129 1.33119)
(-3.65079 -4.31126 1.33107)
(-3.54564 -4.19951 0.96941)
(-0.767429 -1.03537 -4.77512)
(-2.38484 -0.00313149 0.740918)
(-2.41877 -0.118596 0.75674)
(-3.64358 -4.28639 1.32782)
(-3.65086 -4.31127 1.33121)
(-3.65084 -4.31128 1.3312)
(-3.65082 -4.31129 1.33119)
(-3.65036 -4.31081 1.32925)
(-2.67303 -3.31287 -2.76458)
(-0.542471 -1.13738 -11.6886)
(-0.54024 -1.13503 -11.6964)
(-2.38465 -0.00315443 0.740951)
(-2.40325 -0.066067 0.749545)
(-3.6348 -4.25724 1.32243)
(-3.65018 -4.31055 1.32828)
(-3.64906 -4.30947 1.32373)
(-3.64341 -4.30372 1.30013)
(-1.06858 -1.67461 -9.48552)
(-0.540477 -1.13537 -11.6975)
(-0.540258 -1.13513 -11.6981)
(-0.540224 -1.13506 -11.6974)
(0.225177 -0.419429 1.18275)
(-1.25147 -0.223698 0.939832)
(-3.6069 -4.21257 1.3116)
(-3.64681 -4.30709 1.31406)
(-3.64036 -4.30057 1.28719)
(-3.60687 -4.2664 1.14706)
(-0.662554 -1.26002 -11.1863)
(-0.540317 -1.1352 -11.6981)
(-0.540253 -1.13512 -11.698)
(-0.540214 -1.13504 -11.6972)
(-2.38487 -0.00329226 0.740936)
(-2.6364 -0.859173 0.858214)
(-3.65006 -4.30849 1.33085)
(-3.65085 -4.31127 1.33121)
(-3.65084 -4.31128 1.3312)
(-3.65082 -4.31129 1.33119)
(-3.65082 -4.31129 1.33119)
(-3.65081 -4.31127 1.33115)
(-3.61088 -4.26807 1.20769)
(-0.849771 -1.05039 -3.18712)
(-2.38486 -0.00318801 0.740926)
(-2.4883 -0.355176 0.78916)
(-3.64827 -4.30222 1.33002)
(-3.65089 -4.31127 1.33123)
(-3.65085 -4.31128 1.33121)
(-3.65082 -4.31129 1.33119)
(-3.65064 -4.3111 1.33042)
(-3.23857 -3.89034 -0.395635)
(-0.548209 -1.14322 -11.6642)
(-0.540258 -1.135 -11.6953)
(-2.38227 -0.0163274 0.73975)
(-2.44104 -0.203455 0.767129)
(-3.64509 -4.29162 1.32803)
(-3.65065 -4.311 1.3301)
(-3.65017 -4.31057 1.32828)
(-3.64786 -4.30826 1.31876)
(-1.72358 -2.34341 -6.74179)
(-0.541014 -1.13591 -11.6952)
(-0.540254 -1.13512 -11.698)
(-0.540214 -1.13504 -11.6972)
(-1.99045 -2.03149 0.559761)
(-1.99498 -1.99936 0.563863)
(-3.44914 -4.02022 1.23543)
(-3.64934 -4.30965 1.32465)
(-3.6468 -4.30713 1.31412)
(-3.63339 -4.29348 1.25815)
(-0.88056 -1.48261 -10.2731)
(-0.540441 -1.13532 -11.6975)
(-0.540249 -1.13511 -11.6979)
(-0.540205 -1.13502 -11.697)
(-2.38495 -0.003574 0.739508)
(-2.82605 -1.50446 0.943831)
(-3.65046 -4.30974 1.3263)
(-3.65088 -4.31126 1.32685)
(-3.65085 -4.31128 1.32719)
(-3.65082 -4.31129 1.32754)
(-3.65082 -4.31129 1.32718)
(-3.65082 -4.31128 1.32678)
(-3.62843 -4.28666 1.2644)
(-0.926034 -1.08755 -2.13157)
(-2.37074 -0.0864527 0.731462)
(-2.5788 -0.711872 0.82857)
(-3.64951 -4.30633 1.3255)
(-3.65092 -4.31126 1.32651)
(-3.65087 -4.31128 1.32684)
(-3.65082 -4.31129 1.32718)
(-3.65072 -4.31117 1.32636)
(-3.43029 -4.0861 0.404801)
(-0.559003 -1.15422 -11.5957)
(-0.540291 -1.13496 -11.6727)
(-2.03711 -2.04785 0.545715)
(-2.03833 -2.04452 0.545905)
(-3.23707 -3.72691 1.12534)
(-3.65072 -4.31102 1.32547)
(-3.65048 -4.31087 1.32478)
(-3.64907 -4.3095 1.31949)
(-2.2556 -2.88665 -4.50461)
(-0.542032 -1.13695 -11.6678)
(-0.540249 -1.13511 -11.6767)
(-0.540205 -1.13502 -11.6777)
(-2.03667 -2.05029 0.545921)
(-2.03666 -2.05028 0.54547)
(-2.0369 -2.05061 0.545134)
(-2.88257 -3.23524 0.952211)
(-3.6483 -4.30854 1.3162)
(-3.64066 -4.30091 1.28398)
(-1.15452 -1.76235 -9.10493)
(-0.540675 -1.13556 -11.6715)
(-0.540244 -1.1351 -11.6747)
(-0.540195 -1.135 -11.6756)
)
;

boundaryField
{
    inlet
    {
        type            calculated;
        value           nonuniform 0();
    }
    outlet
    {
        type            calculated;
        value           nonuniform 0();
    }
    bottom
    {
        type            calculated;
        value           uniform (0 0 0);
    }
    top
    {
        type            symmetryPlane;
    }
    side1
    {
        type            symmetryPlane;
    }
    side2
    {
        type            symmetryPlane;
    }
    procBoundary19to11
    {
        type            processor;
        value           nonuniform List<vector> 
50
(
(-2.08349 -0.00271817 0.647304)
(-2.117 -0.00276238 0.657716)
(-2.14514 -0.00659677 0.666632)
(-3.44304 -3.70849 1.23908)
(-3.65078 -4.31117 1.33117)
(-3.65082 -4.3113 1.33119)
(-3.6486 -4.30903 1.32188)
(-1.51503 -2.13047 -7.6152)
(-0.540719 -1.13559 -11.696)
(-0.540224 -1.13503 -11.6968)
(-2.11693 -0.00276887 0.657699)
(-2.16099 -0.0520955 0.673641)
(-3.63375 -4.26178 1.32363)
(-3.65082 -4.31129 1.33119)
(-3.65082 -4.3113 1.33119)
(-3.65082 -4.3113 1.33119)
(-3.65082 -4.3113 1.33119)
(-3.65075 -4.31122 1.33093)
(-3.40988 -4.05168 0.573486)
(-0.731356 -0.938415 -3.6238)
(-2.35372 -0.60316 0.75871)
(-3.64951 -4.30748 1.33061)
(-3.65082 -4.3113 1.33119)
(-3.65082 -4.3113 1.33119)
(-3.65082 -4.3113 1.33119)
(-3.65082 -4.3113 1.33119)
(-3.65082 -4.3113 1.33119)
(-3.65082 -4.3113 1.33119)
(-3.65082 -4.3113 1.33118)
(-3.63453 -4.29188 1.31445)
(-2.68011 -1.49527 0.900892)
(-3.65036 -4.3099 1.33099)
(-3.65082 -4.31129 1.33119)
(-3.65082 -4.3113 1.33119)
(-3.65082 -4.3113 1.33119)
(-3.65082 -4.3113 1.33119)
(-3.65082 -4.3113 1.33119)
(-3.65082 -4.3113 1.33119)
(-3.65082 -4.3113 1.33119)
(-3.64278 -4.30157 1.32536)
(-2.9681 -2.30602 1.02402)
(-3.65058 -4.31053 1.32635)
(-3.65082 -4.31129 1.32682)
(-3.65082 -4.31129 1.32718)
(-3.65082 -4.3113 1.32754)
(-3.65082 -4.3113 1.32791)
(-3.65082 -4.3113 1.32754)
(-3.65082 -4.3113 1.32718)
(-3.65082 -4.3113 1.32681)
(-3.64535 -4.30463 1.32341)
)
;
    }
    procBoundary19to18
    {
        type            processor;
        value           nonuniform List<vector> 
20
(
(-2.38483 -0.0031114 0.740914)
(-2.38484 -0.00311141 0.740916)
(-2.38484 -0.00311141 0.740917)
(-2.38475 -0.00312609 0.740933)
(-2.38483 -0.0031114 0.740913)
(-2.38483 -0.00311141 0.740916)
(-2.38464 -0.00314345 0.740951)
(1.22608 -0.577915 1.35233)
(-2.38482 -0.0031114 0.740912)
(-2.38483 -0.00311141 0.740915)
(-2.38431 -0.00319493 0.741005)
(3.97323 -1.01712 1.81725)
(-2.38482 -0.00311142 0.740911)
(-2.38483 -0.00311313 0.740915)
(-2.37722 -0.0422643 0.737419)
(-1.99108 -2.04636 0.55798)
(-2.38481 -0.00312638 0.739567)
(-2.34545 -0.23467 0.717511)
(-2.0368 -2.04961 0.54599)
(-2.03667 -2.0503 0.54637)
)
;
    }
    procBoundary19to20
    {
        type            processor;
        value           nonuniform List<vector> 
20
(
(-0.480701 -0.989905 -9.99955)
(-0.462234 -0.971195 -10.0087)
(-0.449232 -0.94388 -9.72717)
(-0.462234 -0.971195 -10.0087)
(-0.92212 -0.900064 1.15219)
(-0.499325 -0.986085 -9.52845)
(-0.462219 -0.971163 -10.0083)
(-0.47197 -0.991651 -10.2195)
(-0.922263 -0.90004 1.15572)
(-0.535207 -0.994055 -8.93296)
(-0.471969 -0.991642 -10.2193)
(-0.479551 -1.00758 -10.3836)
(-0.922316 -0.900037 1.15689)
(-0.569364 -0.997247 -8.27665)
(-0.479555 -1.00757 -10.3834)
(-0.48578 -1.02002 -10.5137)
(-0.922351 -0.900043 1.15463)
(-0.601378 -0.997203 -7.58479)
(-0.48563 -1.02032 -10.4955)
(-0.491416 -1.02921 -10.5952)
)
;
    }
    procBoundary19to27
    {
        type            processor;
        value           nonuniform List<vector> 
50
(
(-2.38476 -0.00313663 0.741001)
(-2.38482 -0.00312977 0.740898)
(-2.29033 -0.061125 0.103524)
(-0.543691 -1.13309 -11.6761)
(-0.540288 -1.13517 -11.6989)
(-0.540284 -1.13517 -11.6988)
(-0.540279 -1.13516 -11.6986)
(-0.540271 -1.13515 -11.6984)
(-0.540259 -1.13513 -11.6981)
(-0.540224 -1.13506 -11.6974)
(1.86226 -0.67158 1.43749)
(-0.352828 -0.323221 1.07496)
(-1.30707 -0.218016 0.267983)
(-0.554743 -1.14512 -11.6241)
(-0.544303 -1.13926 -11.6824)
(-0.541097 -1.13599 -11.6956)
(-0.540282 -1.13516 -11.6988)
(-0.540271 -1.13514 -11.6985)
(-0.540256 -1.13512 -11.6981)
(-0.540215 -1.13504 -11.6972)
(4.71787 -1.12431 1.90829)
(1.43108 -0.628908 1.37342)
(-3.50875 -4.14303 1.2934)
(-3.63691 -4.29687 1.27244)
(-3.61475 -4.27433 1.17975)
(-3.50146 -4.15874 0.705419)
(-0.582279 -1.17803 -11.523)
(-0.540292 -1.13515 -11.6985)
(-0.540253 -1.13511 -11.6981)
(-0.540205 -1.13502 -11.697)
(-1.83806 -1.8974 0.518237)
(-1.84505 -1.89804 0.522192)
(-2.82826 -3.20307 0.957815)
(-3.64551 -4.30553 1.30904)
(-3.6371 -4.29713 1.27328)
(-3.59151 -4.25068 1.08266)
(-0.663531 -1.26098 -11.1828)
(-0.540341 -1.13519 -11.6983)
(-0.54025 -1.1351 -11.6981)
(-0.540196 -1.135 -11.6968)
(-1.87832 -1.89077 0.503044)
(-1.88965 -1.90215 0.505666)
(-1.8995 -1.91207 0.507898)
(-2.16072 -2.26734 0.626419)
(-3.6411 -4.30045 1.29228)
(-3.61672 -4.27642 1.18353)
(-0.778857 -1.37872 -10.6735)
(-0.540432 -1.13528 -11.6711)
(-0.540247 -1.13508 -11.673)
(-0.540187 -1.13498 -11.6735)
)
;
    }
}


// ************************************************************************* //
