/*--------------------------------*- C++ -*----------------------------------*\
| =========                 |                                                 |
| \\      /  F ield         | OpenFOAM: The Open Source CFD Toolbox           |
|  \\    /   O peration     | Version:  2.4.0                                 |
|   \\  /    A nd           | Web:      www.OpenFOAM.org                      |
|    \\/     M anipulation  |                                                 |
\*---------------------------------------------------------------------------*/
FoamFile
{
    version     2.0;
    format      ascii;
    class       volVectorField;
    location    "0.03";
    object      Ub;
}
// * * * * * * * * * * * * * * * * * * * * * * * * * * * * * * * * * * * * * //

dimensions      [0 1 -1 0 0 0 0];

internalField   nonuniform List<vector> 
200
(
(-3.23628 -5.46909 -14.2144)
(3.16538 -9.13914 -2.84957)
(4.82621 -7.73008 -0.283397)
(3.67262 -7.41681 -3.7609)
(2.66762 -9.16885 -2.97078)
(0.139894 -8.4428 -4.6739)
(0.0801814 -6.15564 -3.80335)
(-2.40698 -4.19323 -5.4134)
(-2.26155 -4.9768 -3.81715)
(-4.58852 -5.27891 -5.47816)
(10.3082 20.2451 -11.7722)
(1.16634 -7.2443 -6.27347)
(4.05076 -6.82351 -4.34902)
(3.88424 -4.95528 -0.177647)
(2.53723 -3.85693 -2.46292)
(0.247503 -3.58754 -2.7957)
(0.633585 1.05572 -4.15696)
(-0.69178 -1.32392 -3.15204)
(-2.38182 1.93018 -4.30324)
(-5.32187 -2.31535 -1.94114)
(-2.37622 -1.61542 -6.90894)
(10.8307 13.0866 -9.31426)
(2.94419 -4.86797 -5.1716)
(5.76287 -3.80091 -4.19035)
(5.03201 -1.44758 -0.733517)
(4.20459 0.53469 -3.63416)
(-1.45993 -5.46093 -2.49426)
(1.28229 12.856 -4.16757)
(-2.78763 4.94999 -0.43624)
(-3.71323 10.5899 -4.03714)
(4.21629 8.86518 -6.37858)
(1.21046 -0.362525 -5.29907)
(8.45789 7.72379 -7.37025)
(3.44415 -0.384312 -3.70933)
(7.74708 7.59326 -4.2847)
(7.25784 6.94612 -3.44113)
(7.54101 5.83752 -5.36345)
(2.22988 4.64664 1.6688)
(10.2435 16.1957 -5.58253)
(1.77857 4.17381 8.21036)
(10.9004 21.2654 -47.5916)
(-7.62974 -8.71529 -21.9797)
(2.75534 -12.2948 -12.7091)
(1.51516 -12.6029 -1.80637)
(3.16733 -10.1736 -2.6764)
(0.78997 -8.2482 -2.50684)
(-1.94135 -9.50624 -5.8618)
(-1.86665 -9.56648 -2.72454)
(-5.10385 -11.5785 -7.096)
(-5.36028 -13.002 -3.48789)
(-6.63337 -2.72442 -17.217)
(10.7515 13.946 -14.1664)
(0.748518 -7.27446 -8.00345)
(2.44066 -7.52247 -13.3515)
(1.33075 -5.39255 -2.48058)
(-0.771988 -5.86867 -4.69539)
(-1.78889 -6.05765 -2.65996)
(-5.44283 -5.19297 -5.39957)
(-6.67169 -8.55986 -2.8513)
(-9.3817 -6.17933 -4.75791)
(5.82532 22.8969 -11.4174)
(-2.80372 -1.81412 -8.42982)
(7.93018 5.85259 -11.635)
(0.183567 -4.82209 -6.72254)
(1.57823 -3.66436 -11.6692)
(0.117743 -1.64747 -3.20141)
(-4.11007 0.793029 -5.63661)
(-6.65777 -5.3774 -2.49872)
(-7.93584 -0.672283 -6.22344)
(-10.7594 -9.16961 -1.08784)
(-3.51365 -1.99997 -7.33183)
(7.38807 9.04913 -9.51655)
(0.943496 -1.96165 -6.49225)
(5.67732 5.50535 -9.60678)
(0.522165 0.994127 -3.28519)
(0.283252 4.37787 -6.87586)
(-3.61803 1.01366 -3.07799)
(-3.93624 6.45809 -10.0741)
(-8.64739 -2.93193 -1.40256)
(-7.58753 2.91741 -11.962)
(16.9073 -10.777 -1.21539)
(8.53827 21.2089 -58.4207)
(-3.38674 -9.69977 -14.8853)
(4.73725 -11.4727 -12.979)
(3.41966 -11.4298 -1.59997)
(-0.418931 -10.7888 -4.04166)
(0.151903 -11.1155 1.20989)
(-5.34626 -12.8396 -6.05118)
(-3.59489 -13.4847 0.0884955)
(-8.58028 -16.8463 -6.55131)
(8.92726 -1.79282 -45.0954)
(-5.81793 -3.33761 -20.5709)
(9.23995 9.15764 -16.3147)
(1.60766 -6.25995 -3.48318)
(-0.497158 -6.7855 -6.35082)
(-1.64724 -7.60734 1.20641)
(-6.26492 -8.99793 -4.39811)
(-5.38707 -10.3108 0.708207)
(-9.99453 -11.6902 -4.08154)
(-8.4945 -14.7088 1.05829)
(-8.86763 -4.18071 -17.167)
(1.65593 14.7685 -12.7565)
(-3.21329 -2.62108 -5.96993)
(-0.0188874 -0.464999 -7.7868)
(-4.02017 -4.36185 1.09186)
(-8.0871 -4.73823 -3.27422)
(-7.93589 -7.50761 1.24535)
(-11.6233 -7.60083 -2.48661)
(-11.0618 -12.0429 2.12078)
(-13.0794 -11.986 -2.70868)
(-1.53939 7.3308 -9.18627)
(-5.79952 -4.46507 -5.77717)
(0.58551 3.3693 -9.42767)
(-4.91715 -1.51086 1.79037)
(-8.45737 -0.345219 -2.38456)
(-9.30482 -4.7412 2.94537)
(-11.7742 -3.89997 -2.60036)
(-12.4065 -9.90454 2.12296)
(-13.4579 -6.92465 -4.88592)
(-15.0933 -15.1883 2.13345)
(13.5735 3.63576 71.3936)
(47.9739 -17.5041 5.37535)
(14.6087 20.9853 -72.91)
(6.9366 -9.45894 -14.3692)
(14.4591 -11.1778 -15.0031)
(10.846 -11.8881 0.282195)
(7.96383 -10.3713 -4.87539)
(8.25998 -13.2827 6.09953)
(1.41472 -14.9673 -8.77697)
(3.78606 -15.2802 4.87643)
(17.6649 -21.9888 -11.138)
(12.4269 -6.1545 -48.5521)
(-2.66057 -0.257988 -16.7476)
(12.8134 11.846 -16.4022)
(6.22653 -5.99344 -0.0684239)
(5.94361 -6.62831 -6.7994)
(5.58435 -9.31646 4.84283)
(1.53617 -10.6163 -4.96764)
(2.5487 -12.8761 4.48737)
(-3.39476 -15.0309 -11.7983)
(3.33063 -17.9407 -18.0939)
(-7.74682 -5.48609 -13.0976)
(0.943678 11.9917 -12.3767)
(-2.25941 -2.42551 -0.73558)
(2.45805 0.264711 -7.49943)
(-0.0900898 -6.4716 5.16434)
(-2.80131 -7.09406 -3.79198)
(-1.56032 -10.59 4.64451)
(-5.84359 -12.233 -10.1417)
(-3.66407 -13.5845 1.91867)
(-4.93143 -12.023 -3.74473)
(-4.27475 0.232819 -9.67053)
(-6.81043 -5.31576 1.59112)
(-5.4371 -0.328331 -2.37093)
(-5.56393 -4.63576 7.55685)
(-7.56976 -3.99865 -3.3758)
(-6.5271 -8.57514 4.81475)
(-9.46208 -9.23042 -8.84263)
(-7.77761 -12.1509 1.65967)
(-11.3561 -13.5679 -10.302)
(39.0585 -9.90243 -37.2388)
(29.9795 -5.95263 153.686)
(72.29 -19.352 4.19152)
(39.282 13.2151 -61.0301)
(18.5273 -10.2312 -3.14679)
(16.9871 -10.2404 -8.77949)
(13.0716 -13.6014 12.4648)
(9.69365 -11.1981 -3.94832)
(12.5483 -16.2469 20.0009)
(8.27492 -13.5533 -6.28923)
(18.534 -15.2892 29.6358)
(37.2908 -16.6872 -7.4921)
(23.1556 -5.95498 -39.8573)
(3.44 4.84183 -9.75047)
(11.834 8.40912 -11.0459)
(6.99998 -7.04296 9.49692)
(5.86667 -6.24708 -2.89933)
(8.53576 -12.3993 16.6011)
(5.79978 -10.7556 -2.93504)
(10.0152 -15.9655 22.1803)
(2.24134 -16.9859 4.87924)
(3.48676 -14.0212 -14.7173)
(-7.49593 -2.35424 -5.14315)
(-4.33111 5.85246 -7.32321)
(-2.42337 -5.2941 9.68665)
(-0.541418 -3.35928 -1.78913)
(1.87183 -9.67692 13.4762)
(0.695846 -7.9865 -1.79841)
(3.73568 -13.9817 16.9616)
(0.882563 -12.3313 -3.63996)
(-4.27653 -4.40377 -5.11717)
(-6.20568 -10.5635 13.2218)
(-8.02912 -2.96899 -1.51089)
(-5.95788 -6.2351 13.919)
(-5.12169 -1.88739 -0.749534)
(-3.4233 -7.68577 13.4143)
(-3.59753 -4.87606 -2.52938)
(-2.84098 -11.3687 12.2971)
(-3.84693 -9.70571 -3.92155)
(-2.65489 -15.3318 14.9021)
)
;

boundaryField
{
    inlet
    {
        type            fixedValue;
        value           nonuniform 0();
    }
    outlet
    {
        type            zeroGradient;
    }
    bottom
    {
        type            fixedValue;
        value           uniform (0 0 0);
    }
    top
    {
        type            symmetryPlane;
    }
    side1
    {
        type            symmetryPlane;
    }
    side2
    {
        type            symmetryPlane;
    }
    procBoundary19to11
    {
        type            processor;
        value           nonuniform List<vector> 
50
(
(-2.19733 -12.6141 0.107652)
(0.0916755 -11.4156 2.64335)
(0.750584 -11.3466 -0.328326)
(1.29257 -12.7875 -1.51679)
(-0.128286 -11.1243 -5.02317)
(2.71039 -13.2974 -2.48961)
(-0.732314 -10.3299 -4.55861)
(0.51145 -11.6621 -3.53248)
(-2.40089 -9.56026 -6.0004)
(-0.0888805 -11.6305 -4.39251)
(-10.825 -5.63144 -24.3305)
(0.0204295 -21.1464 -26.8103)
(-0.00654613 -12.1955 -0.799067)
(3.61431 -8.97932 -4.96532)
(3.44433 -12.6664 -0.788767)
(0.377863 -12.429 -3.894)
(2.44478 -11.8505 -0.705109)
(-2.578 -13.0986 -6.60783)
(-0.181347 -13.1474 -2.77009)
(-4.5557 -15.4369 -7.80674)
(7.32906 27.3046 -46.0685)
(-9.12376 -7.37534 -18.0668)
(0.934999 -14.9408 -12.4121)
(1.54089 -14.2685 -1.76528)
(1.75165 -12.5362 -3.23137)
(2.71046 -13.6404 1.58451)
(-1.80431 -13.6414 -4.69412)
(-0.140753 -13.4357 2.10616)
(-4.98224 -15.656 -8.26422)
(-3.32616 -17.046 -0.360073)
(25.1273 -3.69674 -8.57103)
(22.4212 53.4784 -69.4348)
(-2.17189 -12.8871 -20.1685)
(9.59412 -17.6006 -15.2585)
(8.83095 -15.81 -0.370053)
(8.0148 -12.6198 -6.10391)
(9.02567 -14.7379 5.08997)
(4.14321 -15.6453 -6.03998)
(5.9031 -17.5015 5.46747)
(-0.119056 -18.7098 -11.3091)
(24.506 -7.74354 104.452)
(51.501 -25.9265 -8.32686)
(37.9655 25.9797 -56.5629)
(12.9796 -17.4773 -10.212)
(14.9481 -18.5723 -10.9513)
(11.9193 -18.1702 9.37359)
(9.83342 -14.0651 -5.11733)
(12.1524 -18.2386 17.1398)
(8.5647 -14.8549 -6.34682)
(11.5843 -18.792 17.802)
)
;
    }
    procBoundary19to18
    {
        type            processor;
        value           nonuniform List<vector> 
20
(
(6.39033 13.1442 -28.8686)
(-6.90178 -2.64785 -13.0946)
(3.16978 19.5662 -8.34115)
(-4.38 0.175341 -5.51717)
(-1.45952 -3.55718 -8.62022)
(6.70775 5.30205 -33.812)
(-8.83402 -1.61953 -14.843)
(1.4544 14.9718 -6.55606)
(7.80787 9.31895 -11.2326)
(7.09957 -18.7243 -11.7473)
(4.04065 -11.3676 -18.473)
(-6.21372 -7.82614 -12.4177)
(24.3877 -10.5002 -6.90892)
(13.5944 -25.8448 21.4882)
(3.18947 -19.4047 -5.94719)
(-0.0207683 -9.21619 -3.66828)
(15.7074 -4.25475 109.624)
(25.7862 -5.95931 -16.9632)
(7.65593 -11.0483 -1.84271)
(1.43261 -9.91559 6.65761)
)
;
    }
    procBoundary19to20
    {
        type            processor;
        value           nonuniform List<vector> 
20
(
(-4.63198 -7.96035 -2.29206)
(-6.58764 0.621353 -3.11374)
(-8.26386 -1.57012 6.17609)
(8.79389 7.05974 -4.56599)
(-7.80061 -14.4806 -5.66452)
(-10.6403 -14.5755 -0.762843)
(-11.7892 -5.55101 -5.7997)
(-13.9805 -12.4371 5.05854)
(-6.59674 -18.2376 -0.985192)
(-11.587 -17.3677 -3.28783)
(-12.8915 -17.1491 2.18204)
(-16.7785 -9.9889 -5.40577)
(-2.80213 -18.6139 -12.9391)
(-0.043261 -14.7768 3.40917)
(-8.02859 -15.8722 -10.5492)
(-9.77469 -15.6967 -0.215116)
(12.6556 -17.3905 21.3662)
(5.82331 -14.0601 -6.89047)
(5.45384 -17.1153 21.7406)
(-5.43748 -14.2696 -6.6689)
)
;
    }
    procBoundary19to27
    {
        type            processor;
        value           nonuniform List<vector> 
50
(
(0.0166203 1.07874 -3.96957)
(4.01227 6.65902 -4.54971)
(3.56354 1.33568 -3.08488)
(7.70604 5.74939 -5.08826)
(7.27998 -1.1527 -2.56965)
(10.0215 7.4737 -3.4248)
(11.3775 9.30435 -3.73208)
(13.3118 16.3523 -6.21095)
(11.13 9.40781 -1.54754)
(16.8725 21.2881 -11.4305)
(4.12757 5.35157 -5.2467)
(1.89808 -1.42522 -6.02992)
(6.32956 6.59833 -10.234)
(3.82186 -0.16537 -5.14985)
(6.33467 6.57638 -11.8435)
(4.2457 0.90946 -6.50273)
(5.19916 8.46794 -8.75931)
(0.537918 1.64061 -1.81433)
(7.75515 8.54763 -15.3916)
(-4.25342 -3.17635 2.87148)
(-0.682347 -6.13854 -4.32138)
(0.58386 0.211769 -8.41647)
(-1.22352 -2.30561 -2.1841)
(-3.88259 3.15995 -4.69577)
(-7.19759 -2.99173 2.85353)
(-8.8011 -0.460387 -6.30602)
(-11.8392 -8.23855 0.47755)
(-10.2545 -3.77037 -9.89666)
(-14.3447 -11.929 -0.92441)
(-12.7543 -5.21672 -12.1598)
(0.629946 -6.51457 -0.342907)
(-1.33261 -7.64592 0.294435)
(-3.56105 0.0290922 -4.81966)
(-5.58641 -3.41535 8.95468)
(-7.43289 -0.621811 -3.55128)
(-8.79538 -7.06603 5.69728)
(-10.0972 -6.04862 -7.98506)
(-10.4297 -10.8601 0.751082)
(-13.2287 -11 -11.2194)
(-13.2701 -13.7005 -2.30939)
(-2.38783 -6.88244 10.5352)
(-4.33105 -1.36687 -2.42763)
(-5.01713 -4.7826 14.8229)
(-5.47634 0.712568 -1.12441)
(-5.52381 -5.87116 14.5454)
(-5.01506 -2.07333 -2.83253)
(-5.51004 -9.15979 12.1688)
(-5.45243 -6.6637 -4.80623)
(-6.765 -13.2118 13.1708)
(-8.19 -12.0912 -8.24208)
)
;
    }
}


// ************************************************************************* //
