/*--------------------------------*- C++ -*----------------------------------*\
| =========                 |                                                 |
| \\      /  F ield         | OpenFOAM: The Open Source CFD Toolbox           |
|  \\    /   O peration     | Version:  2.4.0                                 |
|   \\  /    A nd           | Web:      www.OpenFOAM.org                      |
|    \\/     M anipulation  |                                                 |
\*---------------------------------------------------------------------------*/
FoamFile
{
    version     2.0;
    format      ascii;
    class       volScalarField;
    location    "0.15";
    object      p;
}
// * * * * * * * * * * * * * * * * * * * * * * * * * * * * * * * * * * * * * //

dimensions      [1 -1 -2 0 0 0 0];

internalField   nonuniform List<scalar> 
200
(
-6.43088e+29
-6.41228e+29
-6.46892e+29
-6.64988e+29
-7.04125e+29
-7.54664e+29
-8.74946e+29
-9.35452e+29
-1.06702e+30
-1.01604e+30
-6.4032e+29
-6.39517e+29
-6.42849e+29
-6.56186e+29
-6.67343e+29
-6.96677e+29
-7.16732e+29
-7.495e+29
-7.38098e+29
-7.20605e+29
-6.28424e+29
-6.25061e+29
-6.24232e+29
-6.23162e+29
-6.29363e+29
-6.31197e+29
-6.39186e+29
-6.38479e+29
-6.34062e+29
-6.20979e+29
-6.14516e+29
-6.11197e+29
-6.05117e+29
-6.02766e+29
-5.97245e+29
-5.9551e+29
-5.90062e+29
-5.85069e+29
-5.76981e+29
-5.67088e+29
-6.57983e+29
-6.54353e+29
-6.62826e+29
-6.84703e+29
-7.1399e+29
-7.61708e+29
-7.85758e+29
-8.3307e+29
-7.97359e+29
-7.75364e+29
-6.4636e+29
-6.4696e+29
-6.49988e+29
-6.59861e+29
-6.72629e+29
-6.81843e+29
-6.93393e+29
-6.90549e+29
-6.73924e+29
-6.45958e+29
-6.29727e+29
-6.26978e+29
-6.2476e+29
-6.25486e+29
-6.2532e+29
-6.26018e+29
-6.24084e+29
-6.19707e+29
-6.10892e+29
-6.00525e+29
-6.19427e+29
-6.11115e+29
-6.06753e+29
-6.01027e+29
-5.96428e+29
-5.90463e+29
-5.84415e+29
-5.76955e+29
-5.68516e+29
-5.59885e+29
-6.54926e+29
-6.61358e+29
-6.59761e+29
-6.66281e+29
-6.70376e+29
-6.70961e+29
-6.69559e+29
-6.54765e+29
-6.6189e+29
-6.6752e+29
-6.41462e+29
-6.37648e+29
-6.37329e+29
-6.36058e+29
-6.36964e+29
-6.35634e+29
-6.33511e+29
-6.33157e+29
-6.27447e+29
-6.26488e+29
-6.29387e+29
-6.22062e+29
-6.16639e+29
-6.10798e+29
-6.0566e+29
-6.01553e+29
-5.96942e+29
-5.92267e+29
-5.88599e+29
-5.78131e+29
-6.17014e+29
-6.08816e+29
-5.9975e+29
-5.92547e+29
-5.84584e+29
-5.7765e+29
-5.69905e+29
-5.6256e+29
-5.54318e+29
-5.45682e+29
-6.66713e+29
-6.6541e+29
-6.70016e+29
-6.66923e+29
-6.66953e+29
-6.60617e+29
-6.64449e+29
-6.71991e+29
-6.64226e+29
-6.61814e+29
-6.42263e+29
-6.4229e+29
-6.39896e+29
-6.39772e+29
-6.3462e+29
-6.29815e+29
-6.26448e+29
-6.22773e+29
-6.31747e+29
-6.31748e+29
-6.302e+29
-6.24626e+29
-6.1649e+29
-6.10108e+29
-6.03519e+29
-5.95701e+29
-5.8806e+29
-5.80887e+29
-5.6845e+29
-5.79334e+29
-6.16995e+29
-6.06427e+29
-5.99278e+29
-5.87973e+29
-5.79601e+29
-5.69595e+29
-5.59973e+29
-5.49433e+29
-5.37257e+29
-5.25721e+29
-6.66798e+29
-6.58475e+29
-6.5537e+29
-6.50562e+29
-6.41684e+29
-6.41404e+29
-6.35975e+29
-6.27293e+29
-6.31964e+29
-6.2194e+29
-6.47638e+29
-6.41459e+29
-6.34597e+29
-6.26464e+29
-6.20161e+29
-6.09593e+29
-6.0478e+29
-6.09225e+29
-6.18483e+29
-6.00713e+29
-6.31911e+29
-6.2376e+29
-6.13924e+29
-6.05507e+29
-5.94924e+29
-5.86584e+29
-5.80576e+29
-5.7604e+29
-5.70418e+29
-5.46602e+29
-6.14832e+29
-6.05334e+29
-5.93081e+29
-5.82448e+29
-5.72482e+29
-5.61367e+29
-5.50127e+29
-5.35078e+29
-5.11117e+29
-5.03259e+29
)
;

boundaryField
{
    inlet
    {
        type            zeroGradient;
    }
    outlet
    {
        type            fixedValue;
        value           nonuniform 0();
    }
    bottom
    {
        type            zeroGradient;
    }
    top
    {
        type            symmetryPlane;
    }
    side1
    {
        type            symmetryPlane;
    }
    side2
    {
        type            symmetryPlane;
    }
    procBoundary19to11
    {
        type            processor;
        value           nonuniform List<scalar> 
50
(
-6.54587e+29
-6.53987e+29
-6.75788e+29
-7.11213e+29
-7.90179e+29
-9.48672e+29
-1.1196e+30
-1.48364e+30
-1.92033e+30
-2.25078e+30
-6.82392e+29
-6.85921e+29
-7.28372e+29
-7.96013e+29
-8.49364e+29
-9.22876e+29
-1.1034e+30
-1.34094e+30
-1.66388e+30
-1.35053e+30
-6.9413e+29
-6.95281e+29
-6.90594e+29
-6.95689e+29
-7.24942e+29
-7.37429e+29
-7.22153e+29
-7.73479e+29
-7.88553e+29
-8.02491e+29
-7.25415e+29
-7.15738e+29
-7.1179e+29
-7.12962e+29
-7.10216e+29
-7.19019e+29
-7.33105e+29
-7.2993e+29
-7.27339e+29
-7.0596e+29
-6.97005e+29
-6.85734e+29
-6.79511e+29
-6.82034e+29
-6.92444e+29
-6.87226e+29
-6.86053e+29
-6.91485e+29
-6.72241e+29
-6.62493e+29
)
;
    }
    procBoundary19to18
    {
        type            processor;
        value           nonuniform List<scalar> 
20
(
-6.49668e+29
-6.43516e+29
-6.33914e+29
-6.21406e+29
-6.64554e+29
-6.50473e+29
-6.35267e+29
-6.23437e+29
-6.47691e+29
-6.43432e+29
-6.35752e+29
-6.27773e+29
-6.61377e+29
-6.43955e+29
-6.36989e+29
-6.23304e+29
-6.78021e+29
-6.54426e+29
-6.40831e+29
-6.26074e+29
)
;
    }
    procBoundary19to20
    {
        type            processor;
        value           nonuniform List<scalar> 
20
(
-9.39253e+29
-6.77267e+29
-6.0679e+29
-5.56957e+29
-7.11432e+29
-6.27517e+29
-5.89543e+29
-5.51286e+29
-6.63975e+29
-6.23086e+29
-5.7795e+29
-5.35184e+29
-6.50632e+29
-6.18495e+29
-5.62379e+29
-5.34927e+29
-5.94154e+29
-5.6884e+29
-5.34454e+29
-4.75693e+29
)
;
    }
    procBoundary19to27
    {
        type            processor;
        value           nonuniform List<scalar> 
50
(
-6.03614e+29
-5.93757e+29
-5.91376e+29
-5.83458e+29
-5.77883e+29
-5.69938e+29
-5.62556e+29
-5.53937e+29
-5.44199e+29
-5.34757e+29
-6.05638e+29
-6.01469e+29
-5.91351e+29
-5.84697e+29
-5.7643e+29
-5.68298e+29
-5.59533e+29
-5.501e+29
-5.40664e+29
-5.30427e+29
-6.08173e+29
-5.96895e+29
-5.87621e+29
-5.77811e+29
-5.69124e+29
-5.59057e+29
-5.49704e+29
-5.39171e+29
-5.28927e+29
-5.17955e+29
-6.08503e+29
-5.97128e+29
-5.84956e+29
-5.75055e+29
-5.6197e+29
-5.51329e+29
-5.39299e+29
-5.2758e+29
-5.14789e+29
-5.0235e+29
-6.01427e+29
-5.87602e+29
-5.76752e+29
-5.64139e+29
-5.5505e+29
-5.43663e+29
-5.31122e+29
-5.16335e+29
-4.97949e+29
-4.74976e+29
)
;
    }
}


// ************************************************************************* //
