/*--------------------------------*- C++ -*----------------------------------*\
| =========                 |                                                 |
| \\      /  F ield         | OpenFOAM: The Open Source CFD Toolbox           |
|  \\    /   O peration     | Version:  2.4.0                                 |
|   \\  /    A nd           | Web:      www.OpenFOAM.org                      |
|    \\/     M anipulation  |                                                 |
\*---------------------------------------------------------------------------*/
FoamFile
{
    version     2.0;
    format      ascii;
    class       volVectorField;
    location    "0.04";
    object      Ur;
}
// * * * * * * * * * * * * * * * * * * * * * * * * * * * * * * * * * * * * * //

dimensions      [0 1 -1 0 0 0 0];

internalField   nonuniform List<vector> 
200
(
(170.202 279.363 1.96859)
(-17.8724 24.5496 583.326)
(53.9316 198.483 -16.4687)
(-15.7163 18.6073 273.506)
(0.502666 133.45 -53.7359)
(-25.3032 43.8509 167.468)
(-5.23715 167.89 -86.0968)
(-34.9301 72.7167 117.125)
(-15.5685 168.124 -73.4598)
(1.24536 83.1498 0.773446)
(0.921814 -20.6868 1085.02)
(91.1516 181.7 -24.6842)
(-4.57092 -15.8959 406.587)
(24.6681 143.277 -61.4446)
(-12.4062 44.5199 214.271)
(-15.0205 133.017 -89.706)
(-19.3382 74.5993 125.532)
(-20.6151 162.044 -89.9186)
(-7.02005 111.207 14.2095)
(-12.9252 178.863 -3.74557)
(123.873 183.877 -59.9624)
(13.7812 3.69685 513.709)
(23.8337 170.471 -84.0134)
(-7.32973 53.2783 408.799)
(-25.9027 133.74 -100.962)
(-24.5711 80.1505 198.869)
(-30.5102 150.486 -101.712)
(-20.8661 112.537 53.6246)
(-24.2541 183.734 13.1089)
(-4.88685 93.3112 -3.40493)
(31.9116 33.2518 690.739)
(39.453 140.166 -107.09)
(0.751395 45.3279 448.73)
(-18.0343 121.511 -110.288)
(-21.9932 83.532 275.881)
(-28.4579 130.709 -108.038)
(-22.662 109.344 99.3866)
(-22.6636 172.714 25.5552)
(3.74091 79.6213 -8.10675)
(-30.4075 215.685 60.6563)
(-105.939 -31.342 -67.6223)
(-60.384 6.7866 -43.3028)
(-63.0771 -40.8992 7.49402)
(-55.2923 -3.83692 -48.2996)
(-62.2202 -13.676 -3.63233)
(-110.377 21.2221 -80.6395)
(-123.199 -63.2441 126.659)
(-83.2092 93.5199 -97.6703)
(-71.175 29.4216 -79.1494)
(-113.218 -13.1344 -48.7362)
(29.8432 97.2473 -31.3512)
(-33.0786 -30.7403 111.616)
(14.6132 14.0703 -32.4731)
(15.4962 -20.464 46.2354)
(-17.8539 27.6572 -68.2345)
(-38.7904 1.84145 29.2872)
(-43.9904 67.3099 -86.421)
(-53.8735 38.6887 11.8927)
(-58.2509 88.3896 -80.6478)
(-51.8873 10.6585 -38.2234)
(-67.4104 -35.8756 270.71)
(47.5109 27.8763 -32.3311)
(85.8215 0.0468766 148.664)
(57.5106 56.2016 -41.5324)
(2.43788 11.8737 57.3079)
(-26.4765 77.1667 -77.4826)
(-30.5511 33.6813 -2.24013)
(-69.7549 99.7117 -57.7105)
(-52.8873 38.9939 -28.3558)
(-78.5112 116.395 -37.001)
(49.4575 70.6483 -61.2953)
(80.0276 58.0644 156.331)
(56.9929 86.9055 -48.1786)
(37.1773 55.8369 78.1707)
(-2.69338 100.34 -66.8398)
(-21.2728 40.3815 27.1189)
(-58.1051 106.209 -44.8832)
(-44.2481 39.2497 -11.5901)
(-78.5529 130.709 -18.1277)
(-49.7592 20.0988 -14.6876)
(-80.8851 -9.07297 5.28799)
(-85.5241 -7.88069 41.5836)
(-74.9876 -15.1954 20.6504)
(-79.0428 -16.4476 39.1982)
(-86.8466 -9.63604 6.39526)
(-115.408 -39.0558 48.9413)
(-124.694 -14.3212 -44.3392)
(-87.2611 27.1316 -77.8064)
(-110.295 -17.3878 -31.0817)
(-134.199 -62.4364 -29.1819)
(-85.9902 -22.1251 40.303)
(-70.0807 -14.8004 38.3331)
(-66.8392 -16.4928 53.4631)
(-66.624 -14.114 23.2616)
(-74.3095 -17.2927 43.1095)
(-96.7875 -0.986951 -6.39886)
(-136.866 -15.4944 2.44973)
(-118.765 2.95865 -41.4117)
(-104.923 -39.1133 -39.8548)
(-120.532 -23.7893 -52.2142)
(-73.8059 0.572915 64.8684)
(-57.5474 -13.6776 79.07)
(-61.703 -1.65313 42.6781)
(-55.8035 -14.2463 76.2517)
(-61.3487 -1.47693 37.023)
(-95.6977 -27.7154 32.3777)
(-122.64 -7.74197 -18.4532)
(-114.709 -15.8557 8.53991)
(-120.388 6.07197 -48.2801)
(-114.702 -28.2244 -47.1028)
(-51.9044 5.76854 108.691)
(-71.43 22.2995 71.3025)
(-50.8597 -0.899934 111.378)
(-63.8953 20.1124 69.0455)
(-61.9192 -12.7641 88.2396)
(-94.0937 -4.06722 38.5455)
(-115.993 -19.3955 55.9042)
(-129.9 18.1599 2.36895)
(-131.693 -12.4802 34.6756)
(-135.329 23.9389 -27.5803)
(-77.4892 9.01509 38.4711)
(-70.773 3.24899 27.2269)
(-92.6827 3.57244 46.9622)
(-75.6381 16.7042 50.9198)
(-95.9274 -3.03641 74.3545)
(-89.4779 -33.1029 25.5181)
(-89.7268 -38.7859 -9.15558)
(-86.7457 -37.6031 31.4145)
(-107.998 -98.3845 6.52003)
(-122.17 -69.1324 -10.7353)
(-74.0183 5.44792 28.2274)
(-81.3085 3.73038 39.3653)
(-72.0432 11.2984 29.0283)
(-92.5336 -1.36058 49.6032)
(-83.8435 -23.2371 34.5176)
(-113.326 -27.3535 56.5375)
(-101.818 -21.753 30.3326)
(-144.283 -52.2475 -111.366)
(-136.389 -52.4811 11.4012)
(-97.4826 -95.4294 8.79702)
(-83.1083 -1.18726 38.0992)
(-80.9113 12.3791 40.3244)
(-85.2492 7.7685 39.7048)
(-73.0407 58.1496 15.6231)
(-100.736 28.4374 75.2989)
(-95.1571 -15.3168 33.78)
(-119.029 -30.0181 -1.89392)
(-154.234 -34.79 6.89976)
(-145.338 -51.9658 -111.076)
(-145.616 -49.7318 1.81862)
(-86.447 17.5022 36.5591)
(-82.9836 6.32772 39.7845)
(-96.559 36.9417 49.0095)
(-87.6391 25.1789 46.7763)
(-91.0718 5.99425 29.6439)
(-96.4655 -7.04703 25.57)
(-122.518 -2.05241 21.6226)
(-172.391 -25.6802 -21.0368)
(-171.49 -5.81776 -1.96531)
(-165.134 -35.9023 -162.98)
(-83.61 4.59149 -6.89935)
(-83.2676 11.7005 86.3815)
(-71.1083 -10.4897 18.2836)
(-79.1178 -11.7428 0.321892)
(-47.5134 -10.2529 46.7163)
(-70.926 -7.90566 -51.3733)
(-27.7413 -28.8894 60.2424)
(-86.9725 61.4024 -395.733)
(-170.548 3.10599 35.4802)
(-167.094 -17.0211 50.8548)
(-77.723 7.43222 30.984)
(-71.5241 8.96006 13.2836)
(-76.2741 6.80586 38.618)
(-62.0526 -10.2788 37.5166)
(-80.1342 -17.9601 3.84415)
(-41.3795 -19.7972 59.4209)
(-88.0883 -0.981313 -157.065)
(-88.8109 -46.7395 57.038)
(-154.011 61.6573 -564.822)
(-198.976 0.367738 46.4982)
(-89.0473 11.2046 26.6132)
(-82.9825 12.5004 30.0515)
(-71.0163 5.54779 33.311)
(-79.5846 5.03649 28.9701)
(-59.398 -7.97643 51.7937)
(-79.4294 -15.0397 -37.0761)
(-54.0046 -21.4038 62.9574)
(-153.51 -20.3635 -220.832)
(-96.8074 -45.7188 62.6146)
(-175.588 47.0023 -632.022)
(-140.799 57.5517 14.4844)
(-144.731 30.5259 26.125)
(-123.157 38.1296 17.4831)
(-108.589 33.7218 21.9893)
(-118.124 20.9459 7.08679)
(-105.828 13.5908 31.268)
(-132.534 8.31053 -60.6085)
(-117.165 -29.5416 37.5325)
(-178.243 -22.2528 -243.234)
(-116.958 -43.7423 65.3834)
)
;

boundaryField
{
    inlet
    {
        type            calculated;
        value           nonuniform 0();
    }
    outlet
    {
        type            calculated;
        value           nonuniform 0();
    }
    bottom
    {
        type            calculated;
        value           uniform (0 0 0);
    }
    top
    {
        type            symmetryPlane;
    }
    side1
    {
        type            symmetryPlane;
    }
    side2
    {
        type            symmetryPlane;
    }
    procBoundary12to4
    {
        type            processor;
        value           nonuniform List<vector> 
50
(
(-44.1491 26.3763 -88.3029)
(-10.402 105.19 -69.0363)
(-59.1162 0.961195 28.3355)
(-49.2278 81.146 -73.9872)
(-68.3134 8.60356 69.6592)
(-67.6695 124.008 -56.1137)
(-86.1142 35.0635 99.5889)
(-71.5426 134.266 -68.8544)
(-41.8625 84.5822 -64.9735)
(-74.7349 85.096 -52.5098)
(-110.941 3.8597 -80.2342)
(-99.5104 -10.8788 -45.5723)
(-92.1973 -2.87801 -77.3583)
(-78.5786 -29.8683 -42.3006)
(-83.5172 -9.70577 -76.8944)
(-81.4459 40.998 -49.7018)
(-132.331 18.8776 -81.5497)
(-32.9522 178.905 -196.047)
(-107.071 30.0034 -86.9617)
(-165.352 -100.726 -54.2789)
(-84.6577 18.263 36.0501)
(-78.6895 -0.990217 -9.22154)
(-77.555 9.26437 27.094)
(-76.1466 -9.64396 -18.034)
(-73.8713 -33.0266 6.65304)
(-90.0781 -13.0956 -63.9611)
(-25.0557 192.567 -202.743)
(-53.7068 77.071 -133.91)
(-171.755 -103.171 -59.7491)
(-137.331 -68.2879 -28.0593)
(-65.7527 5.73498 21.7517)
(-74.8902 13.8727 52.8871)
(-64.4994 -4.23985 28.1668)
(-63.9123 -0.213426 66.8584)
(-65.1267 -26.529 13.1444)
(-69.8507 -1.28634 9.67607)
(-63.5745 -11.06 -4.10567)
(-93.5492 -56.2391 5.31032)
(-130.672 -59.0335 -13.9869)
(-132.124 -57.5878 -21.769)
(-90.5742 -9.04866 41.7809)
(-75.9823 -16.1278 18.1991)
(-76.7712 -5.31851 40.5661)
(-69.3647 -3.72316 -1.11511)
(-65.3148 -3.27121 70.9685)
(-50.2151 -27.9655 21.0274)
(-68.7284 6.08512 -106.603)
(-93.5156 8.77455 36.7695)
(-146.727 -24.7005 16.1369)
(-118.784 -14.7829 3.99398)
)
;
    }
    procBoundary12to11
    {
        type            processor;
        value           nonuniform List<vector> 
20
(
(-36.0527 161.365 -235.948)
(317.829 362.014 35.6013)
(59.1721 -4.131 1567.25)
(146.31 158.463 -87.7205)
(-75.482 -17.6776 -80.5232)
(-128.878 4.0611 -132.478)
(96.4444 166.616 -42.9652)
(-80.0441 -9.9653 236.741)
(-86.0331 -1.31282 3.19614)
(-85.4085 -14.2448 6.01764)
(-87.9938 -8.66954 62.2614)
(-125.974 52.9983 69.2846)
(-73.2541 6.85794 13.7958)
(-81.2078 3.2269 21.466)
(-79.19 5.6343 26.3239)
(-129.29 34.0283 27.8256)
(-83.4631 -0.452803 30.1315)
(-78.5334 4.76924 11.8125)
(-131.024 38.7537 33.9814)
(-122.92 101.242 25.3833)
)
;
    }
    procBoundary12to13
    {
        type            processor;
        value           nonuniform List<vector> 
20
(
(-33.6862 85.9622 -36.6432)
(7.36242 99.8673 -18.2441)
(-32.2986 206.25 47.6964)
(27.0673 61.4243 25.1525)
(-124.45 -104.526 -32.6696)
(-96.6125 21.643 -72.9805)
(-61.5467 26.7107 -34.3348)
(-89.0867 131.847 -31.7446)
(-142.547 -50.1205 -39.58)
(-137.483 -45.4607 -48.8351)
(-132.522 -0.77977 -68.6983)
(-122.52 -17.0422 -2.33916)
(-131.352 -71.7964 -13.0074)
(-128.355 -63.5647 -19.3443)
(-100.94 -83.7823 1.174)
(-163.454 -43.3871 1.08419)
(-144.204 -27.0682 22.6887)
(-176.125 -35.2969 42.0603)
(-224.16 -20.1151 43.2747)
(-208.065 -18.4919 -582.824)
)
;
    }
    procBoundary12to20
    {
        type            processor;
        value           nonuniform List<vector> 
50
(
(67.7086 106.419 -101.13)
(14.0193 50.5193 500.844)
(5.48451 82.2541 -102.456)
(2.56656 68.5366 257.102)
(-6.71629 115.649 -115.989)
(-10.5448 104.655 126.196)
(-5.91708 155.056 58.4869)
(31.2632 43.9769 -16.1382)
(-19.1649 211.822 72.5208)
(46.48 40.4501 34.8599)
(61.0017 91.4664 141.749)
(66.1976 101.189 -37.988)
(44.8685 60.4233 94.9207)
(34.8378 126.768 -60.4374)
(36.638 66.3267 49.1909)
(-19.6373 90.9517 -15.4815)
(-10.6331 23.4293 12.3909)
(-67.5736 133.402 5.38657)
(-25.3809 -10.8613 19.3409)
(-88.2819 147.374 -35.0205)
(-118.052 81.932 84.0582)
(-82.4569 53.2222 100.222)
(-90.5245 72.8627 79.8257)
(-75.9049 35.9442 96.2194)
(-69.0324 21.0634 66.5021)
(-70.7761 -13.8083 88.9326)
(-79.1656 30.1735 50.5668)
(-83.8285 -22.0332 87.6234)
(-118.321 63.9934 16.8172)
(-116.746 -11.4108 40.0916)
(-113.648 66.3118 23.2273)
(-117.998 57.7193 14.9756)
(-116.603 54.5004 26.4192)
(-115.108 63.9099 12.1464)
(-113.935 50.119 32.9518)
(-98.9048 24.0378 21.631)
(-124.432 -5.83626 32.6285)
(-129.31 15.94 15.9038)
(-174.19 -9.47626 -1.59303)
(-166.83 20.6098 -0.903862)
(-105.5 107.077 68.7805)
(-126.124 79.2224 -17.3414)
(-140.825 2.05932 46.3618)
(-116.908 59.1114 18.5419)
(-127.764 65.1601 -11.449)
(-134.337 23.0392 25.5578)
(-115.933 22.4644 26.8074)
(-148.135 4.92064 -25.8047)
(-132.596 -24.4626 34.4188)
(-197.636 -48.7542 -174.52)
)
;
    }
}


// ************************************************************************* //
