/*--------------------------------*- C++ -*----------------------------------*\
| =========                 |                                                 |
| \\      /  F ield         | OpenFOAM: The Open Source CFD Toolbox           |
|  \\    /   O peration     | Version:  2.4.0                                 |
|   \\  /    A nd           | Web:      www.OpenFOAM.org                      |
|    \\/     M anipulation  |                                                 |
\*---------------------------------------------------------------------------*/
FoamFile
{
    version     2.0;
    format      ascii;
    class       volVectorField;
    location    "0.01";
    object      gradp;
}
// * * * * * * * * * * * * * * * * * * * * * * * * * * * * * * * * * * * * * //

dimensions      [1 -2 -2 0 0 0 0];

internalField   nonuniform List<vector> 
40
(
(1.15095e+17 -4.52755e+16 -1.69195e+15)
(1.03076e+17 -1.95948e+16 7.50787e+15)
(7.88662e+16 -6.79523e+15 6.31195e+15)
(5.60552e+16 -2.30748e+15 3.44919e+15)
(5.03008e+16 -2.01192e+14 1.04088e+15)
(1.48922e+17 -1.23187e+16 2.10949e+16)
(1.49904e+17 6.34655e+15 1.75931e+16)
(1.06943e+17 3.30373e+15 9.30456e+15)
(6.45866e+16 1.70706e+15 4.51325e+15)
(4.66398e+16 1.51361e+15 1.32119e+15)
(2.20475e+17 2.64981e+16 2.2313e+16)
(1.34321e+17 2.56732e+16 1.38562e+16)
(6.95872e+16 1.69158e+16 9.22475e+15)
(5.24749e+16 1.00137e+16 5.06818e+15)
(4.38594e+16 3.04388e+15 1.15392e+15)
(2.19354e+17 1.21783e+16 2.91817e+16)
(1.30739e+17 6.07789e+15 1.32729e+16)
(7.56236e+16 1.03874e+16 2.60391e+15)
(3.68427e+16 9.09608e+15 -1.75542e+15)
(2.05247e+16 2.57129e+15 -1.40387e+15)
(1.68127e+17 -1.25565e+16 2.59926e+16)
(1.28689e+17 -4.69982e+15 2.28744e+16)
(6.58784e+16 -1.29489e+15 1.37579e+16)
(3.91877e+16 3.8076e+14 6.55579e+15)
(3.59325e+16 3.30683e+14 1.62897e+15)
(1.57444e+17 2.60893e+16 4.64251e+16)
(1.12175e+17 1.65039e+16 3.28943e+16)
(6.50871e+16 7.96421e+15 1.58044e+16)
(3.90398e+16 4.29745e+15 6.102e+15)
(2.79696e+16 1.69448e+15 1.08361e+15)
(1.71945e+17 3.9437e+16 4.14696e+16)
(9.24386e+16 1.87609e+16 2.11207e+16)
(4.14655e+16 6.19477e+15 1.23099e+16)
(2.66483e+16 -1.61798e+13 5.98752e+15)
(2.39487e+16 -1.31621e+15 1.02199e+15)
(1.13131e+17 2.31681e+16 3.15661e+16)
(4.56905e+16 5.14461e+15 1.64629e+16)
(2.75329e+16 -2.05946e+14 4.89941e+15)
(2.40178e+16 -1.82169e+15 -2.02554e+14)
(3.06344e+16 -1.52116e+15 -5.82297e+14)
)
;

boundaryField
{
    inlet
    {
        type            zeroGradient;
    }
    outlet
    {
        type            zeroGradient;
    }
    bottom
    {
        type            zeroGradient;
    }
    top
    {
        type            symmetryPlane;
    }
    side1
    {
        type            symmetryPlane;
    }
    side2
    {
        type            symmetryPlane;
    }
    procBoundary63to47
    {
        type            processor;
        value           nonuniform List<vector> 10((6.38882e+16 -3.52974e+16 6.45481e+14) (7.29433e+16 -2.05612e+16 8.28371e+15) (7.23679e+16 -1.37558e+16 5.86685e+15) (5.13985e+16 -8.86808e+15 2.8331e+15) (4.16225e+16 -3.10919e+15 9.88771e+14) (1.32834e+17 -3.35587e+16 6.53758e+15) (8.96517e+16 -9.79613e+15 1.70676e+16) (5.49259e+16 -5.1511e+15 9.90423e+15) (3.57886e+16 -3.45646e+15 3.92203e+15) (2.93925e+16 -1.46694e+15 8.79895e+14));
    }
    procBoundary63to62
    {
        type            processor;
        value           nonuniform List<vector> 8((1.34088e+17 -6.21116e+16 -9.06451e+15) (1.27912e+17 -4.63436e+16 1.49297e+16) (2.2943e+17 -9.54304e+15 2.90219e+16) (2.40314e+17 6.63856e+15 4.64676e+16) (1.70342e+17 -1.70052e+16 7.03532e+15) (1.84137e+17 1.45946e+16 3.4004e+16) (2.38178e+17 4.09175e+16 5.68156e+16) (1.95726e+17 3.45516e+16 5.12274e+16));
    }
    procBoundary63to127
    {
        type            processor;
        value           nonuniform List<vector> 
20
(
(1.6578e+17 1.85445e+16 2.2225e+16)
(6.39254e+16 5.72782e+15 8.18102e+15)
(2.66465e+16 2.64496e+15 2.89202e+15)
(1.72425e+16 1.18047e+15 9.6982e+14)
(2.41095e+16 1.24755e+14 3.8111e+14)
(1.4537e+17 1.24446e+16 1.66327e+16)
(5.19175e+16 3.54064e+15 1.14754e+16)
(2.12073e+16 9.86912e+14 2.78694e+15)
(1.74802e+16 7.9781e+14 -1.41829e+15)
(2.36458e+16 5.42435e+14 -1.08465e+15)
(1.06252e+17 2.72371e+15 4.47054e+15)
(4.101e+16 -6.16938e+14 -9.73808e+14)
(2.11609e+16 -5.321e+14 -1.34492e+15)
(1.63536e+16 -7.36033e+13 -6.09041e+14)
(2.1429e+16 3.78428e+14 -1.42168e+14)
(1.08108e+17 -3.66735e+15 -3.55747e+15)
(4.54059e+16 -1.37458e+15 -2.03974e+15)
(2.2294e+16 -1.4694e+15 1.51525e+14)
(1.93012e+16 -8.08032e+14 1.93941e+14)
(2.30362e+16 4.44058e+12 -1.98423e+14)
)
;
    }
}


// ************************************************************************* //
