/*--------------------------------*- C++ -*----------------------------------*\
| =========                 |                                                 |
| \\      /  F ield         | OpenFOAM: The Open Source CFD Toolbox           |
|  \\    /   O peration     | Version:  2.4.0                                 |
|   \\  /    A nd           | Web:      www.OpenFOAM.org                      |
|    \\/     M anipulation  |                                                 |
\*---------------------------------------------------------------------------*/
FoamFile
{
    version     2.0;
    format      ascii;
    class       volVectorField;
    location    "0";
    object      Ub;
}
// * * * * * * * * * * * * * * * * * * * * * * * * * * * * * * * * * * * * * //

dimensions      [0 1 -1 0 0 0 0];

internalField   uniform (0 0 0);

boundaryField
{
    inlet
    {
        type            fixedValue;
        value           nonuniform 0();
    }
    outlet
    {
        type            zeroGradient;
    }
    bottom
    {
        type            fixedValue;
        value           uniform (0 0 0);
    }
    top
    {
        type            symmetryPlane;
    }
    side1
    {
        type            symmetryPlane;
    }
    side2
    {
        type            symmetryPlane;
    }
    procBoundary38to22
    {
        type            processor;
        value           uniform (0 0 0);
    }
    procBoundary38to37
    {
        type            processor;
        value           uniform (0 0 0);
    }
    procBoundary38to39
    {
        type            processor;
        value           uniform (0 0 0);
    }
    procBoundary38to54
    {
        type            processor;
        value           uniform (0 0 0);
    }
    procBoundary38to102
    {
        type            processor;
        value           uniform (0 0 0);
    }
    procBoundary38to103
    {
        type            processor;
        value           uniform (0 0 0);
    }
    procBoundary38to118
    {
        type            processor;
        value           uniform (0 0 0);
    }
}


// ************************************************************************* //
