/*--------------------------------*- C++ -*----------------------------------*\
| =========                 |                                                 |
| \\      /  F ield         | OpenFOAM: The Open Source CFD Toolbox           |
|  \\    /   O peration     | Version:  2.4.0                                 |
|   \\  /    A nd           | Web:      www.OpenFOAM.org                      |
|    \\/     M anipulation  |                                                 |
\*---------------------------------------------------------------------------*/
FoamFile
{
    version     2.0;
    format      ascii;
    class       volVectorField;
    location    "0.03";
    object      A_Source_unsmoothed;
}
// * * * * * * * * * * * * * * * * * * * * * * * * * * * * * * * * * * * * * //

dimensions      [1 -2 -2 0 0 0 0];

internalField   nonuniform List<vector> 
200
(
(-759372 24007 788454)
(-132281 -28644.3 -28010.4)
(-0 0 -0)
(0 0 0)
(-72028.1 -536.86 -20559.4)
(-48057.1 1866.53 -8295.82)
(0 0 0)
(-0 0 0)
(0 0 0)
(-33445.6 5814.28 -250.531)
(-43702.4 -22677.4 -11562)
(0 0 0)
(-0 0 0)
(0 0 0)
(0 0 0)
(0 0 0)
(-0 -0 -0)
(0 -0 0)
(0 0 0)
(0 -0 0)
(0 0 0)
(-0 0 0)
(0 0 0)
(-61647.5 16588.3 -560.099)
(-0 -0 0)
(0 0 0)
(0 0 0)
(0 0 0)
(0 0 0)
(0 0 0)
(0 0 0)
(0 0 0)
(-29109.7 -5840.94 -1566.61)
(0 0 0)
(-0 -0 -0)
(0 0 0)
(0 -0 -0)
(0 0 0)
(0 0 0)
(-0 -0 0)
(-0 0 -0)
(0 0 0)
(-53235.8 3177.21 -100230)
(-0 0 -0)
(-0 0 -0)
(0 0 0)
(0 0 0)
(0 0 0)
(-77763.7 36131.6 -60357.2)
(-61232.3 1223.88 -8283.76)
(-18329.9 12141.1 -17326.1)
(0 0 0)
(-0 0 -0)
(0 0 0)
(0 0 0)
(0 0 0)
(0 0 0)
(0 -0 0)
(0 -0 0)
(0 0 0)
(0 0 0)
(0 -0 0)
(0 0 0)
(0 0 0)
(-62780.6 18506.7 2328.46)
(0 0 0)
(0 -0 -0)
(0 0 0)
(0 0 0)
(-15562 -14164.2 -59.8783)
(0 0 0)
(-0 0 0)
(0 0 0)
(-37697.6 15344.6 23521.9)
(-0 -0 0)
(0 0 0)
(0 0 0)
(0 0 0)
(588.96 -16023.2 -3823.86)
(0 -0 0)
(-0 -0 -0)
(0 0 0)
(0 0 0)
(-0 0 -0)
(0 0 0)
(-30285.4 -16760.4 -12146.5)
(0 0 0)
(0 0 0)
(-0 -0 0)
(0 0 0)
(-0 0 0)
(0 0 0)
(-0 0 0)
(0 0 0)
(0 0 0)
(0 0 0)
(-35263.9 7857.15 -10092)
(0 0 0)
(0 0 0)
(-36386.3 -4365.23 -5223.54)
(-0 -0 0)
(-38976.2 12922.4 -19657.7)
(0 0 0)
(0 0 0)
(0 0 0)
(0 0 0)
(-0 -0 0)
(0 -0 -0)
(-0 -0 0)
(0 0 0)
(-29378.9 5395.03 -11440.8)
(0 0 0)
(-0 -0 -0)
(0 0 0)
(-0 0 -0)
(0 0 0)
(0 0 0)
(-0 0 0)
(0 0 0)
(0 0 0)
(0 0 0)
(0 0 0)
(0 0 0)
(0 0 0)
(0 0 0)
(0 0 0)
(0 0 0)
(0 0 0)
(-0 0 0)
(0 0 0)
(0 0 0)
(0 0 0)
(-0 -0 0)
(0 0 0)
(0 0 0)
(-15588 -6452.98 3011.03)
(0 0 0)
(0 0 0)
(0 0 0)
(0 0 0)
(0 0 0)
(0 -0 0)
(0 0 0)
(-85234.5 -145841 187760)
(0 0 0)
(0 0 0)
(0 0 0)
(-0 0 0)
(0 0 0)
(0 0 0)
(0 0 0)
(-0 -0 -0)
(0 0 0)
(0 0 0)
(0 0 0)
(0 0 0)
(0 0 0)
(0 0 0)
(-0 -0 0)
(0 0 0)
(-0 -0 0)
(0 0 0)
(-0 0 0)
(0 -0 0)
(0 0 0)
(0 0 0)
(-3129.39 67027.9 -19058.2)
(-0 0 -0)
(0 0 0)
(-45570.9 7455.13 2871.45)
(-51183 -1764.86 -4522.72)
(0 0 0)
(0 0 0)
(-88517 -78575.2 80279.8)
(0 0 0)
(0 0 0)
(0 0 0)
(0 0 0)
(-0 -0 0)
(0 0 0)
(-58263.5 -1388.01 471.523)
(-67721.9 1745.66 -19020.1)
(0 0 0)
(-53974.2 9664.23 -6808.36)
(-0 -0 0)
(-0 0 0)
(-21399.5 30751.3 -12369.8)
(0 0 0)
(0 0 0)
(0 0 0)
(0 0 0)
(0 0 0)
(0 0 0)
(-0 0 0)
(0 0 0)
(0 0 0)
(-0 -0 -0)
(-50593.9 72446.5 -30828.6)
(0 0 0)
(0 0 0)
)
;

boundaryField
{
    inlet
    {
        type            zeroGradient;
    }
    outlet
    {
        type            zeroGradient;
    }
    bottom
    {
        type            zeroGradient;
    }
    top
    {
        type            symmetryPlane;
    }
    side1
    {
        type            symmetryPlane;
    }
    side2
    {
        type            symmetryPlane;
    }
    procBoundary7to6
    {
        type            processor;
        value           uniform (0 0 0);
    }
    procBoundary7to15
    {
        type            processor;
        value           uniform (0 0 0);
    }
}


// ************************************************************************* //
