/*--------------------------------*- C++ -*----------------------------------*\
| =========                 |                                                 |
| \\      /  F ield         | OpenFOAM: The Open Source CFD Toolbox           |
|  \\    /   O peration     | Version:  2.4.0                                 |
|   \\  /    A nd           | Web:      www.OpenFOAM.org                      |
|    \\/     M anipulation  |                                                 |
\*---------------------------------------------------------------------------*/
FoamFile
{
    version     2.0;
    format      ascii;
    class       volVectorField;
    location    "0.03";
    object      Ub;
}
// * * * * * * * * * * * * * * * * * * * * * * * * * * * * * * * * * * * * * //

dimensions      [0 1 -1 0 0 0 0];

internalField   nonuniform List<vector> 
200
(
(355.811 -12.7885 -370.156)
(164.06 37.2504 44.1296)
(221.319 25.1298 85.2123)
(115.599 14.2525 238.484)
(107.9 -0.95403 33.5379)
(102.697 -3.8246 15.0962)
(97.8357 1.90474 4.7596)
(99.2513 -8.87354 7.67999)
(88.8865 2.57957 4.44711)
(83.6646 -13.4694 4.1729)
(90.2082 44.626 30.4326)
(82.1945 30.6193 -22.5191)
(98.9661 -12.021 31.2358)
(99.2221 -35.3978 40.821)
(99.3973 -21.6746 20.333)
(92.8631 -12.5723 10.3053)
(96.1113 -18.5562 15.6765)
(88.9323 -8.09863 6.28056)
(84.1928 -19.2041 8.57891)
(77.2048 11.2308 -6.72378)
(6.94755 8.83457 -9.60807)
(45.2714 -14.8664 55.8283)
(-5.43257 96.958 -269.437)
(118.825 -34.8719 8.82738)
(122.993 -24.437 16.1886)
(108.342 -25.8796 14.0499)
(94.0063 -19.3657 4.35377)
(84.8613 -13.5234 20.5534)
(74.7923 5.68497 -10.4522)
(68.6266 -0.0250138 3.17976)
(36.9227 17.3234 2.81065)
(17.5207 35.4422 -37.7261)
(68.4515 11.5136 8.94416)
(105.625 5.54693 3.79092)
(98.2615 -8.7262 2.18309)
(84.2459 -5.79221 -12.9908)
(81.029 -1.81848 17.1229)
(56.2635 7.51438 -20.101)
(50.1437 12.87 3.89147)
(49.3183 38.7021 6.25412)
(29.9395 25.9289 42.8398)
(91.4713 0.66024 94.0039)
(58.562 -6.1744 137.236)
(69.7109 47.2653 63.849)
(76.7024 29.3568 42.5387)
(80.41 -4.01249 28.9151)
(93.9996 -5.84639 30.2115)
(79.4841 -7.79526 26.1338)
(123.12 -53.634 90.2043)
(99.1441 -1.95177 14.6475)
(38.4815 -34.844 40.7748)
(71.6554 -34.4264 117.352)
(13.8506 111.03 -198.923)
(68.8492 -8.57429 30.723)
(47.8203 -35.4521 57.3926)
(82.968 -25.8795 34.8262)
(72.7281 -44.9965 20.3404)
(101.545 -53.4732 47.0388)
(84.1696 17.3412 12.3889)
(62.7154 17.3635 -2.40243)
(60.1348 -45.0724 62.8147)
(20.0652 59.3788 -157.201)
(85.5033 -41.8143 61.5361)
(-65.1936 262.665 -560.578)
(103.336 -40.0992 12.6485)
(101.543 -60.0812 39.244)
(111.633 -39.1484 22.9928)
(105.223 22.7935 22.6962)
(67.6238 21.8948 12.283)
(54.4242 39.2509 0.0458746)
(-0.968363 -5.28606 -13.8829)
(56.5184 -18.0508 70.693)
(-116.339 247.124 -450.135)
(90.4673 -42.8419 -31.4949)
(86.6212 -37.5019 -10.3449)
(55.4776 -4.92399 22.9106)
(0.647257 6.32192 -25.0844)
(-0.505455 25.2545 -5.90903)
(8.00808 50.5979 14.041)
(12.3603 28.2393 -10.8052)
(47.7436 -1.58075 40.7701)
(55.8495 -7.63744 81.0252)
(73.5388 17.2745 25.778)
(76.8234 -0.131826 48.6388)
(63.1217 41.798 -2.00701)
(58.1012 38.96 30.4723)
(70.0386 -3.94478 14.9361)
(72.8886 -6.72765 32.3313)
(77.6745 1.08625 18.404)
(80.8302 -1.70144 19.6502)
(75.2103 -28.4837 70.6907)
(88.8447 8.63083 -6.62395)
(100.841 -10.3627 46.7124)
(23.6713 130.503 -169.398)
(57.2652 -10.7102 16.0272)
(34.8808 -24.0785 27.0175)
(69.974 -16.3207 24.715)
(59.5154 -6.09976 -1.1169)
(72.2155 6.2268 25.1378)
(73.2886 7.25855 14.9696)
(66.9746 -9.21455 -17.2467)
(89.0207 -30.9176 49.4888)
(62.0891 104.307 -159.776)
(67.5588 -15.5127 39.8388)
(-50.1983 309.013 -492.042)
(82.0945 -36.4364 -15.4346)
(90.941 -27.2412 40.9511)
(98.8802 2.55878 37.4084)
(79.8925 5.58544 37.1747)
(81.6505 18.5639 56.6646)
(79.9401 -14.0738 31.2558)
(34.3003 16.0513 -48.6744)
(77.0975 -27.2573 43.015)
(-40.5147 162.843 -317.461)
(86.6319 -44.8539 4.92494)
(120.492 -7.18933 6.43481)
(100.842 21.7767 41.9677)
(78.685 -9.0476 16.6282)
(77.9269 13.9149 44.4017)
(63.7119 5.92599 -11.2929)
(73.3744 -8.45912 58.266)
(81.0704 7.98819 0.945985)
(88.5697 -8.73676 30.8474)
(92.7661 57.8914 -52.2189)
(62.3244 -11.128 22.5789)
(71.7106 68.7829 -77.9416)
(41.4015 48.1868 24.4864)
(57.7646 -1.41255 -20.2674)
(60.4785 7.20189 21.3602)
(68.978 5.26802 4.87222)
(82.2002 0.372888 -5.79943)
(94.6665 -3.31447 23.1971)
(97.5927 30.8432 -37.4877)
(81.8817 -18.28 34.7231)
(68.6631 135.373 -158.682)
(43.7419 18.3714 4.0092)
(45.7329 -20.6426 14.7484)
(64.1404 16.4391 29.5606)
(42.1294 4.20363 -95.9365)
(62.9951 13.4587 -3.65811)
(97.9002 -0.23209 4.34563)
(94.3676 4.83668 -28.525)
(102.01 -19.9325 38.8583)
(79.8008 144.459 -181.939)
(75.3815 -13.6118 49.6302)
(-22.589 339.921 -541.928)
(65.4484 -38.2705 -114.26)
(60.6816 -6.94474 17.9327)
(78.2037 -2.38055 70.3641)
(16.4651 13.2854 -42.6225)
(85.8949 -11.6201 7.79332)
(97.0102 -9.94336 36.0443)
(64.9713 31.8936 -70.4325)
(76.0598 -16.3034 27.0741)
(19.9365 203.264 -298.765)
(101.736 -48.497 11.6318)
(126.015 -32.0274 9.23908)
(97.1639 -5.91031 25.7528)
(79.7427 -11.5354 -23.8864)
(70.5208 4.68575 44.8467)
(94.7042 8.021 -0.635495)
(97.8487 -2.15805 20.6526)
(96.4827 30.4054 -31.2767)
(82.8691 -32.6416 31.7342)
(56.8154 100.626 -108.216)
(-4.80628 3.42323 -31.3462)
(11.903 -81.5955 18.1547)
(45.5034 31.3626 -11.1815)
(112.747 -37.3349 -12.0015)
(101.082 -13.7179 -7.5225)
(99.7451 10.1711 9.23895)
(92.2567 13.2083 -11.4601)
(98.1824 -10.1067 31.8204)
(100.001 95.2952 -101.453)
(48.5097 -3.74682 23.6008)
(35.3693 38.2288 -53.9488)
(22.762 17.0373 -22.4036)
(-1.72105 -380.436 208.655)
(103.556 71.6974 -7.69995)
(156.821 9.22992 -14.0164)
(97.4365 3.41703 -1.96544)
(110.986 -0.285972 19.1115)
(109.293 30.6113 -37.6593)
(103.648 -19.2858 28.4603)
(97.8692 140.367 -154.742)
(59.5856 -15.3484 -3.97286)
(58.5584 -70.3804 31.6873)
(18.7034 22.5331 -49.9166)
(-6.63569 -709.721 415.489)
(92.5902 22.1403 191.116)
(89.8697 -11.2236 1.28718)
(95.6939 -2.00877 -2.57269)
(116.321 -3.03273 30.804)
(104.066 28.5899 -47.0395)
(104.692 -39.1615 7.94837)
(90.0037 16.5331 -41.9972)
(85.3259 -76.9367 -3.37541)
(87.505 -108.314 46.4174)
(42.2908 29.9684 74.0111)
(-19.5203 13.603 2.81775)
)
;

boundaryField
{
    inlet
    {
        type            fixedValue;
        value           nonuniform 0();
    }
    outlet
    {
        type            zeroGradient;
    }
    bottom
    {
        type            fixedValue;
        value           uniform (0 0 0);
    }
    top
    {
        type            symmetryPlane;
    }
    side1
    {
        type            symmetryPlane;
    }
    side2
    {
        type            symmetryPlane;
    }
    procBoundary7to6
    {
        type            processor;
        value           nonuniform List<vector> 
20
(
(-32.7463 -43.6924 -1063.01)
(151.675 49.4074 -147.081)
(33.3537 1.71018 24.6073)
(35.4312 -1.03603 10.5749)
(294.617 -212.822 -608.613)
(60.9799 -47.8652 55.7889)
(39.1687 -51.3372 27.3813)
(45.7924 -17.0478 17.256)
(88.0299 -13.0407 15.6648)
(66.9597 -37.6931 20.6327)
(78.0032 -30.4122 46.9949)
(65.0585 -13.1298 18.6109)
(69.5575 2.52564 11.8739)
(82.1653 -8.92966 47.2694)
(85.7824 0.0619628 -14.6413)
(78.9306 -3.25282 -60.71)
(88.8268 -4.26823 56.8004)
(92.0387 13.3297 -6.4452)
(99.0488 10.2557 -7.21158)
(98.9 2.45205 -3.94863)
)
;
    }
    procBoundary7to15
    {
        type            processor;
        value           nonuniform List<vector> 
50
(
(54.5611 -14.2744 14.7345)
(67.6606 25.9333 -14.9416)
(70.2508 24.8074 1.74751)
(74.5905 3.06075 6.76976)
(66.15 8.52057 -13.7778)
(62.0166 19.5129 18.5642)
(33.5999 17.4167 -41.7409)
(27.4663 47.1404 30.5356)
(2.53358 29.0689 -25.3838)
(12.4503 26.464 4.2871)
(45.833 27.316 -37.9521)
(36.3948 10.3905 19.2884)
(67.7161 4.09566 24.2471)
(84.1719 -10.5048 -2.59608)
(44.8207 39.0095 41.3467)
(-14.1876 17.3542 -41.4957)
(-24.1808 54.2316 21.7001)
(-52.6325 15.567 -44.4298)
(-53.22 35.901 -4.88999)
(-35.8491 34.1418 -20.7993)
(63.9593 -2.85409 23.0296)
(62.1006 29.9031 24.6112)
(40.9247 20.6906 -39.8271)
(90.8411 -9.62759 28.5239)
(89.6576 33.0817 11.7047)
(86.9333 2.47642 40.567)
(67.5422 14.5802 19.5742)
(54.2847 52.8026 41.7909)
(22.3441 17.4233 -31.4097)
(37.579 34.2633 -9.71692)
(82.7781 -3.21006 14.189)
(76.8247 -1.19263 9.89332)
(78.5858 21.1086 30.5429)
(57.691 36.7301 -67.8487)
(99.1671 -19.7829 17.1882)
(111.331 14.8299 11.1029)
(88.7303 22.9949 28.4759)
(81.6371 17.2669 2.99328)
(67.1676 30.7772 29.4994)
(56.2755 -8.1308 8.64239)
(87.6211 6.07681 -1.86622)
(71.5958 -18.469 21.7494)
(88.2967 -15.4167 -4.68965)
(88.4067 -1.54359 26.0868)
(88.9659 -10.8794 -22.5606)
(82.7834 -6.5403 9.90069)
(90.0472 -26.1692 17.1158)
(49.2946 -11.3074 19.5819)
(51.1784 -52.723 9.71827)
(42.3696 -1.09374 12.8248)
)
;
    }
}


// ************************************************************************* //
