/*--------------------------------*- C++ -*----------------------------------*\
| =========                 |                                                 |
| \\      /  F ield         | OpenFOAM: The Open Source CFD Toolbox           |
|  \\    /   O peration     | Version:  2.4.0                                 |
|   \\  /    A nd           | Web:      www.OpenFOAM.org                      |
|    \\/     M anipulation  |                                                 |
\*---------------------------------------------------------------------------*/
FoamFile
{
    version     2.0;
    format      ascii;
    class       volVectorField;
    location    "0.03";
    object      Uc;
}
// * * * * * * * * * * * * * * * * * * * * * * * * * * * * * * * * * * * * * //

dimensions      [0 1 -1 0 0 0 0];

internalField   nonuniform List<vector> 
200
(
(-0.0150465 -0.000763613 -0.00917916)
(0.013063 0.000564783 0.000890715)
(0.000288712 1.50129e-05 2.3386e-05)
(-0.000296421 -6.03541e-05 0.000193897)
(-0.0117102 -0.00239408 0.00762874)
(0.013673 -4.63349e-05 -0.00101798)
(0.000349773 -5.30452e-07 -2.78152e-05)
(1.10001e-05 3.06313e-07 2.00091e-06)
(0.000341069 2.17742e-05 0.000153558)
(0.0114735 0.000894539 0.00569245)
(0.0122384 -0.000137924 0.000835849)
(0.000394227 1.18396e-07 2.79995e-05)
(9.16191e-06 -5.34214e-07 6.36682e-07)
(8.47211e-05 -1.90979e-05 4.466e-06)
(-7.12517e-05 -1.57743e-05 4.83065e-05)
(8.60543e-05 -3.68381e-07 -6.22041e-06)
(2.52563e-06 -2.54531e-11 -1.90408e-07)
(9.11724e-08 2.7102e-09 1.72909e-08)
(2.52487e-06 1.59471e-07 1.13404e-06)
(7.2992e-05 5.64008e-06 3.61313e-05)
(7.77563e-05 -8.95146e-07 5.451e-06)
(6.77467e-06 -1.44984e-06 7.08409e-07)
(0.00031316 -8.58668e-05 2.34101e-05)
(0.0137167 -0.00294592 0.000479403)
(0.000314302 -7.8161e-05 2.25706e-05)
(4.47999e-06 -1.20735e-06 4.60205e-07)
(5.23042e-08 -1.42029e-08 6.41713e-09)
(3.09065e-08 -4.41637e-09 1.45408e-09)
(1.51709e-06 -2.15003e-07 5.70303e-08)
(4.2178e-05 -6.0307e-06 1.10053e-06)
(-1.70274e-06 -6.69533e-07 6.94489e-07)
(-0.000137643 -4.49993e-05 4.50798e-05)
(-0.00542322 -0.00178034 0.00178129)
(-1.43591e-05 -7.44411e-05 5.71286e-05)
(8.70623e-07 -5.29085e-06 1.2133e-05)
(1.64944e-08 -1.36471e-07 3.51441e-07)
(1.8136e-08 -4.93244e-09 7.83985e-09)
(1.14296e-06 -1.58018e-07 9.6787e-08)
(3.86792e-05 -5.34293e-06 3.2717e-06)
(1.47358e-06 -2.05438e-07 1.05871e-07)
(-9.99188e-05 -4.17456e-05 -2.88203e-05)
(-0.000398813 1.47214e-05 -4.42002e-05)
(-0.0169469 0.000574418 -0.00182175)
(-0.000430155 1.43433e-05 -4.55791e-05)
(-3.64233e-05 -5.72646e-06 1.85098e-05)
(9.95482e-07 -1.77471e-07 5.93774e-06)
(7.82557e-06 -7.39054e-08 1.86593e-06)
(0.000541504 -6.65063e-06 0.000111265)
(0.0212487 -0.000278249 0.00442351)
(-0.011826 -0.00144794 0.00306821)
(-0.00888184 -0.00635576 -0.000855338)
(-0.000227286 -0.000160722 -2.18932e-05)
(-0.000110297 1.26062e-06 -1.18e-05)
(-5.07917e-06 -3.41519e-07 5.24679e-07)
(-8.38064e-05 -9.05965e-06 2.63009e-05)
(-3.40896e-06 -1.52727e-07 1.07892e-06)
(-3.14214e-05 3.4453e-06 7.81929e-06)
(3.10322e-06 3.82224e-08 1.05984e-06)
(0.000136484 -2.57024e-06 2.85519e-05)
(5.90624e-06 -3.38439e-05 3.72824e-05)
(-5.48503e-05 -4.02818e-05 -5.14789e-06)
(3.27501e-05 -2.79275e-06 7.01629e-06)
(-7.15403e-07 -1.6406e-06 2.43331e-06)
(-0.000207955 -7.06909e-05 0.000127994)
(-0.013196 -0.00142538 0.00413389)
(-0.000333937 -3.60572e-05 0.000104597)
(-5.04402e-06 -5.23676e-07 1.60765e-06)
(9.07127e-06 -1.30304e-06 4.11931e-07)
(0.000521049 -7.45322e-05 1.81639e-05)
(0.0168567 -0.00243431 0.0003889)
(3.3182e-05 -1.96373e-06 5.94392e-06)
(6.2706e-06 -1.81503e-06 1.6678e-06)
(0.00035497 -0.000113847 9.31729e-05)
(0.0145575 -0.00432603 0.00350869)
(0.000284685 -0.00011847 0.000114972)
(3.01835e-06 -1.8914e-06 2.09223e-06)
(5.45026e-06 -8.40219e-07 5.92246e-07)
(0.000395239 -5.4598e-05 3.34384e-05)
(0.0156055 -0.00215428 0.00131988)
(0.000508143 -7.08639e-05 3.63979e-05)
(8.45611e-07 -1.85263e-07 -2.15448e-06)
(-8.57593e-07 2.39759e-08 -9.40017e-08)
(-4.19858e-05 1.41794e-06 -4.49236e-06)
(-6.18463e-06 3.54479e-08 1.13293e-06)
(-0.000334612 -4.05566e-07 8.55889e-05)
(-0.0132085 -1.56681e-05 0.00337815)
(-0.000415182 8.40216e-06 0.000105512)
(-5.79871e-06 2.23053e-07 2.19419e-06)
(5.03491e-05 -1.37756e-06 1.21437e-05)
(-9.81444e-05 -2.69182e-05 4.67935e-05)
(0.000113814 -2.60867e-05 -0.000276592)
(8.91086e-05 -4.63999e-06 1.47573e-05)
(2.29611e-06 -1.18716e-07 4.77047e-07)
(-6.13315e-08 -1.49525e-08 1.93307e-07)
(-7.90398e-06 7.59702e-07 2.55379e-06)
(-0.000420465 4.42977e-05 0.000123625)
(-0.0127232 0.00139591 0.00315225)
(-0.000325885 3.39612e-05 8.20142e-05)
(-0.000275325 -9.17615e-05 0.000154967)
(-0.0108201 -0.00368477 0.00613788)
(0.000442691 -2.08174e-05 8.71961e-05)
(0.0139199 -0.00063969 0.00289072)
(0.000352403 -1.61641e-05 7.36717e-05)
(1.18392e-05 4.29413e-07 1.92156e-05)
(-3.26087e-05 -3.48386e-06 1.07976e-05)
(-3.76015e-06 2.24116e-07 1.14562e-06)
(-8.04693e-05 8.8298e-06 1.9963e-05)
(-2.37796e-06 2.45658e-07 6.09392e-07)
(-5.39071e-07 -8.9358e-07 1.19957e-06)
(-2.69125e-05 -2.94584e-05 3.99696e-05)
(0.0134635 -0.00072785 0.00240418)
(0.000428714 -2.24675e-05 7.91182e-05)
(8.63923e-06 -7.10995e-07 1.70859e-06)
(3.4156e-05 -1.05878e-05 9.03834e-06)
(-6.45573e-05 3.14275e-06 7.35278e-06)
(-1.98707e-06 1.01096e-07 2.23473e-07)
(-3.15166e-07 3.83509e-08 7.83241e-08)
(1.06714e-06 3.86802e-08 6.908e-08)
(3.86125e-05 -5.33137e-06 3.27078e-06)
(1.21545e-06 -2.91828e-07 2.49888e-07)
(4.55022e-08 1.90492e-07 -1.78735e-08)
(2.83678e-10 6.77519e-09 -2.046e-09)
(-6.5446e-08 -2.30839e-09 2.39439e-09)
(-1.71012e-07 -1.25893e-07 2.85972e-07)
(-2.09202e-06 6.79413e-07 1.94713e-06)
(-6.9795e-05 2.32272e-05 6.50926e-05)
(6.66584e-05 3.85222e-06 -4.10863e-05)
(2.01917e-06 1.06883e-07 -1.24135e-06)
(1.33807e-06 1.09281e-07 -2.16231e-07)
(4.20776e-05 3.73208e-06 -7.23899e-06)
(5.97217e-06 2.59187e-05 -2.27602e-06)
(3.7674e-07 8.43599e-07 -3.84274e-07)
(-2.71034e-07 -4.86871e-07 1.70838e-06)
(-1.09379e-05 -1.61973e-05 6.03987e-05)
(-0.000156206 9.24763e-05 0.000232749)
(-0.00616353 0.00367525 0.00913201)
(-0.000186545 9.64496e-05 0.000238576)
(-3.21385e-06 1.4712e-06 3.6391e-06)
(-8.13003e-07 -2.48549e-07 4.84605e-07)
(-2.65473e-05 -9.1185e-06 1.51825e-05)
(-2.71209e-05 3.97075e-06 -3.72803e-06)
(2.89967e-05 1.19638e-05 -4.58985e-05)
(7.57423e-05 9.43255e-06 0.000180876)
(0.00295791 0.00035602 0.00719981)
(7.37323e-05 9.76499e-06 0.000184032)
(-3.65826e-05 2.33283e-05 6.06497e-05)
(4.33787e-05 -1.54172e-06 7.27003e-06)
(1.49897e-06 2.08348e-07 1.6362e-07)
(2.44987e-08 5.62459e-09 5.92605e-09)
(-1.36805e-07 -7.62763e-08 1.14148e-07)
(2.57199e-05 -5.60621e-06 7.6987e-06)
(1.11392e-06 -7.66278e-09 -1.40547e-07)
(5.77942e-07 6.87698e-08 1.33839e-06)
(1.87823e-05 2.25786e-06 4.56113e-05)
(3.562e-07 8.0792e-08 1.37541e-06)
(-1.30031e-07 1.23545e-07 2.33014e-07)
(3.63516e-07 2.1243e-06 -2.52678e-07)
(2.62641e-06 7.06494e-05 -9.88203e-06)
(9.58148e-08 2.13004e-06 -2.95848e-07)
(1.79491e-09 3.65745e-08 -4.59828e-09)
(1.46798e-05 6.63004e-05 -3.70315e-06)
(3.43579e-07 2.05735e-06 -6.20791e-07)
(-2.0694e-06 -1.45269e-06 8.52303e-07)
(-7.01673e-05 -5.05041e-05 2.9444e-05)
(8.3766e-06 -1.01226e-06 -5.62891e-06)
(0.000707167 3.22704e-05 -0.000440335)
(0.0279147 0.00127455 -0.0173991)
(0.000713661 3.2794e-05 -0.000441621)
(0.000437994 3.89151e-05 -8.06821e-05)
(0.0170476 0.00153594 -0.00296011)
(0.0022798 0.0105149 -0.000587171)
(3.87019e-05 0.000297313 -0.000155316)
(-0.000278967 -0.000197058 0.000114339)
(-0.0110435 -0.00798762 0.00468194)
(-0.000279685 -0.000201727 0.000119373)
(-1.07872e-05 6.18619e-06 2.14734e-05)
(0.000290443 2.52877e-06 -9.50794e-05)
(9.07932e-06 1.655e-07 -2.8202e-06)
(3.31283e-06 2.89157e-07 -5.93462e-07)
(0.000108055 9.77733e-06 -1.87316e-05)
(-0.0114724 0.00161084 -0.00153059)
(-0.00259155 0.00542627 -0.022514)
(9.63991e-05 0.000324402 -0.000250232)
(0.00629133 0.00741773 0.012599)
(0.000165771 0.000187189 0.000319808)
(0.000460892 -2.03645e-05 6.08572e-05)
(0.0181202 -0.000916169 0.00221351)
(0.000578026 8.77634e-07 5.72597e-05)
(1.03129e-05 3.69708e-07 8.61473e-07)
(5.37466e-07 4.44822e-08 -5.92203e-08)
(-7.27114e-05 1.01518e-05 -1.02578e-05)
(-1.67074e-05 3.43946e-05 -0.000142441)
(7.14277e-07 2.40119e-06 -1.84915e-06)
(4.00244e-05 4.71036e-05 7.96267e-05)
(1.31728e-06 1.40301e-06 2.35944e-06)
(1.04581e-05 1.27468e-06 5.29024e-07)
(0.00059217 9.05023e-05 1.91192e-05)
(0.0188657 0.00380436 0.000202654)
(0.000477528 9.63047e-05 5.12188e-06)
(7.13288e-06 1.43845e-06 7.62171e-08)
)
;

boundaryField
{
    inlet
    {
        type            calculated;
        value           nonuniform 0();
    }
    outlet
    {
        type            calculated;
        value           uniform (0 0 0);
    }
    bottom
    {
        type            calculated;
        value           uniform (0 0 0);
    }
    top
    {
        type            symmetryPlane;
    }
    side1
    {
        type            symmetryPlane;
    }
    side2
    {
        type            symmetryPlane;
    }
    procBoundary7to6
    {
        type            processor;
        value           nonuniform List<vector> 
20
(
(-0.000310349 -1.56181e-05 -0.000193386)
(0.000257186 -2.98778e-06 1.72932e-05)
(1.97804e-06 -2.24419e-08 1.38359e-07)
(1.12261e-09 -6.28801e-09 9.20276e-09)
(2.91094e-06 -1.87725e-06 -1.98181e-06)
(-0.000171046 -0.000134931 -5.0296e-05)
(3.98465e-06 -8.68842e-07 3.6042e-07)
(5.14447e-06 3.55956e-07 4.137e-07)
(4.52137e-05 -2.17422e-06 -8.37311e-05)
(0.00631599 -0.000488788 -0.0130745)
(0.000355097 7.33862e-06 -1.62149e-05)
(0.000284417 -1.63145e-05 5.22949e-05)
(1.33771e-07 -2.89661e-10 -2.42208e-07)
(1.57418e-05 -5.5994e-07 -3.23551e-05)
(-3.36628e-06 -1.79749e-06 7.59309e-07)
(-0.000497506 -0.000259928 0.000121121)
(3.70232e-07 1.67419e-06 -9.39136e-08)
(4.77074e-05 0.000221361 -1.2402e-05)
(-0.000241066 3.33243e-05 -2.86307e-05)
(-3.272e-06 -5.01342e-07 1.24374e-07)
)
;
    }
    procBoundary7to15
    {
        type            processor;
        value           nonuniform List<vector> 
50
(
(-4.83721e-06 8.36478e-07 -1.22394e-07)
(-0.000327454 5.66869e-05 -8.33983e-06)
(-0.0129291 0.00224118 -0.0003309)
(-0.000200039 4.2734e-05 4.54723e-05)
(-9.47036e-05 -0.00070846 0.00209791)
(-2.37252e-06 -1.79466e-05 5.31088e-05)
(-3.3567e-07 -2.77445e-07 8.40967e-07)
(1.13222e-06 -2.56165e-07 1.19503e-07)
(3.86899e-05 -8.56251e-06 3.68319e-06)
(1.16407e-06 -2.57416e-07 1.10707e-07)
(1.94658e-07 -9.1475e-09 3.72368e-08)
(-8.9536e-07 1.508e-07 -1.26711e-08)
(-2.96295e-05 4.84004e-06 -2.4922e-07)
(7.51218e-05 -2.25913e-05 1.86899e-05)
(-2.8988e-05 -8.38046e-07 9.14425e-06)
(-4.08985e-06 -1.13423e-07 8.29244e-07)
(-0.000105018 -4.08663e-06 1.95258e-05)
(0.000392116 -8.75507e-05 3.81943e-05)
(0.0156109 -0.00345622 0.00148625)
(0.000401657 -8.88596e-05 3.82069e-05)
(7.08401e-05 -3.82969e-06 1.26501e-05)
(2.42681e-06 -1.24934e-07 4.61016e-07)
(-4.51543e-06 3.48541e-07 6.18482e-07)
(-0.000314159 1.669e-05 3.3799e-05)
(-0.012425 0.000662132 0.00133343)
(-0.000314411 1.6768e-05 3.37393e-05)
(-5.55342e-06 1.08487e-06 4.10547e-07)
(-1.95786e-05 2.8529e-05 -4.76238e-06)
(3.80239e-05 -7.70065e-06 3.53386e-06)
(1.15101e-06 -2.42723e-07 1.08471e-07)
(1.55138e-07 -3.95133e-08 5.05685e-08)
(7.26805e-09 -3.57056e-10 9.0875e-11)
(-1.24503e-08 1.43716e-09 7.66407e-09)
(-8.37389e-07 5.71457e-08 2.65797e-07)
(-3.07503e-05 1.68621e-06 3.29388e-06)
(-4.03985e-06 4.3999e-06 -6.42166e-07)
(-0.000211785 0.000294637 -5.00212e-05)
(-0.00835585 0.0116408 -0.00197341)
(-0.00021137 0.000294536 -4.9928e-05)
(-3.15438e-06 4.39685e-06 -7.45261e-07)
(-2.68762e-07 3.77396e-08 -3.99939e-08)
(-6.28084e-08 1.27193e-07 -5.2572e-07)
(2.97828e-09 1.01455e-08 -7.79738e-09)
(1.46585e-07 1.74244e-07 2.93916e-07)
(-3.8545e-08 8.53958e-09 1.46727e-08)
(5.45411e-08 2.43251e-08 2.12908e-10)
(2.82891e-06 1.43825e-06 -6.00798e-08)
(7.86315e-05 4.8848e-05 -3.8061e-06)
(2.40678e-06 1.45937e-06 -1.11432e-07)
(4.22395e-08 2.51616e-08 -1.89217e-09)
)
;
    }
}


// ************************************************************************* //
