/*--------------------------------*- C++ -*----------------------------------*\
| =========                 |                                                 |
| \\      /  F ield         | OpenFOAM: The Open Source CFD Toolbox           |
|  \\    /   O peration     | Version:  2.4.0                                 |
|   \\  /    A nd           | Web:      www.OpenFOAM.org                      |
|    \\/     M anipulation  |                                                 |
\*---------------------------------------------------------------------------*/
FoamFile
{
    version     2.0;
    format      ascii;
    class       volSymmTensorField;
    location    "0.01";
    object      B;
}
// * * * * * * * * * * * * * * * * * * * * * * * * * * * * * * * * * * * * * //

dimensions      [0 2 -2 0 0 0 0];

internalField   nonuniform List<symmTensor> 
200
(
(0.715007 0.00692057 -0.397245 0.731035 -0.0132917 0.721879)
(0.683054 0.00577891 -0.379818 0.696073 -0.0123785 0.691004)
(0.796898 0.00564545 -0.387344 0.800261 -0.000984581 0.788171)
(0.7345 0.00144425 -0.360644 0.726516 -0.0114994 0.692833)
(0.63603 0.000542625 -0.369792 0.623642 -0.00676528 0.613877)
(0.534485 0.000380323 -0.424828 0.575673 -0.00581772 0.49606)
(1.22943 0.00207038 -0.430023 1.47125 0.000928838 1.73864)
(1.05634 -0.00440107 -0.388537 1.12774 -0.0159083 1.18569)
(1.01136 0.018717 -0.433435 0.633498 -0.0478692 0.215105)
(0.18347 -0.0111609 -0.229908 0.110136 -0.0250634 -0.0426645)
(0.74309 0.0011303 -0.397968 0.754908 -0.0110789 0.741775)
(0.668645 0.00295807 -0.374916 0.682833 -0.0248324 0.671567)
(0.778707 0.00417299 -0.384335 0.77999 -0.00473443 0.770499)
(0.732079 0.00915469 -0.359814 0.703978 -0.0174364 0.688505)
(0.640963 0.0256772 -0.368776 0.6152 -0.0120065 0.61626)
(0.549856 0.0195001 -0.434151 0.588541 -0.00577307 0.505355)
(1.30613 0.00192549 -0.425983 1.58422 -0.0029385 1.85441)
(1.12974 0.0340466 -0.391543 1.23749 0.0209488 1.26952)
(1.07626 0.0516273 -0.460531 0.728438 0.0747054 0.249038)
(0.205784 -0.0463161 -0.21071 0.123592 -0.00302389 -0.0562352)
(0.868853 -0.00434096 -0.438415 0.861563 -0.00536188 0.850075)
(0.713634 0.00189578 -0.384777 0.714248 -0.00643529 0.72281)
(0.809779 -0.00563495 -0.371683 0.814757 -0.00409427 0.807721)
(0.879849 -0.00223216 -0.370083 0.836572 -0.00824061 0.791125)
(0.565679 0.0181878 -0.327818 0.514254 -0.0122022 0.508535)
(0.46746 0.0536096 -0.354933 0.534737 0.00482131 0.546455)
(0.653939 0.0248085 -0.312697 0.770694 -0.0177696 0.856423)
(0.627716 -0.0265108 -0.396337 0.669538 -0.0213256 0.626657)
(0.594107 -0.0225113 -0.734449 0.467084 -0.0246623 0.0897529)
(0.545705 0.0285225 -0.251299 0.448464 0.00146955 0.393414)
(0.76571 -0.00141104 -0.410793 0.745464 0.0013731 0.739981)
(0.639981 0.00264792 -0.362436 0.654995 0.0127569 0.643317)
(0.83433 -0.00511018 -0.391634 0.826024 -0.000984158 0.840041)
(0.757567 -0.00763522 -0.360525 0.731774 0.0133897 0.655547)
(0.776225 -0.00529832 -0.38607 0.681971 -0.00231254 0.639013)
(0.504854 0.0453003 -0.470901 0.514115 0.0100603 0.264072)
(3.99359 0.0260847 -0.496938 4.34594 -0.0302386 5.12031)
(0.924948 -0.0572824 -0.398109 1.02414 -0.0370656 1.14054)
(1.29433 -0.0512457 -0.353746 0.77011 -0.0893004 0.28055)
(0.523466 0.0560889 -0.229979 0.23479 0.0008302 0.0186885)
(-0.00040161 -0.000708279 0.000900257 -0.000939722 0.00210863 0.00131283)
(0.00839835 0.00263274 -0.00329437 0.00192208 0.000424243 0.0115233)
(0.0127917 0.0064073 -0.014234 0.00446693 -0.00138979 0.00935408)
(-0.00196857 0.00152276 0.0032933 -0.000804895 0.000215267 0.0059309)
(0.0655661 -0.00147703 -0.054077 0.0547143 0.000660707 0.0600839)
(0.890939 0.010457 0.428528 0.925529 0.00158508 0.917575)
(0.402272 0.00564594 0.21391 0.338525 -0.0239105 0.433196)
(2.52265 -0.02167 -0.846494 2.39793 -0.0098144 2.23973)
(0.437317 -0.0160665 -0.726157 0.51405 0.00195156 0.508481)
(3.0309 0.00234614 0.249891 3.01792 -0.0100448 3.00135)
(0.0308312 -0.0092396 0.00255307 0.0314186 -0.000259747 0.0307478)
(0.0222029 -0.000554422 -0.00175259 0.0185778 0.00276242 0.0192774)
(0.0279768 0.0173132 -0.00611362 0.02487 -0.000575581 0.0255448)
(-0.000445828 0.011242 0.00271302 0.00341758 7.6812e-05 0.0137134)
(0.0739828 0.00172515 -0.0560108 0.0643512 -0.00121706 0.0734785)
(1.0743 -0.0133318 0.497781 1.08102 0.0574339 1.08013)
(0.552537 0.0143861 0.25432 0.49011 -0.145096 0.537365)
(3.58078 0.00401919 -1.03822 3.50221 -0.139893 3.49605)
(0.438134 0.0134192 -0.776468 0.62498 0.032012 0.708915)
(3.0537 0.0181994 0.458397 3.03347 0.0103179 3.03177)
(0.0866724 -0.000641037 0.00783522 0.08941 -0.000964359 0.0977262)
(0.43583 0.000493039 0.00152432 0.410252 -0.00497973 0.238023)
(0.0961771 0.000278067 -0.0169313 0.089167 0.00397665 0.0716666)
(-0.0138564 -0.00206709 -0.000612799 0.0284148 -0.0149608 0.0415934)
(-0.00724849 -0.00441107 0.000973187 0.00351073 -0.00444808 0.0115503)
(0.237189 -0.0122028 0.195127 0.221489 -0.165263 0.220024)
(0.663143 -0.0111303 -0.049182 0.640788 0.251279 0.652265)
(1.00628 0.0251798 -0.700321 0.998933 0.0437625 0.925662)
(0.164504 0.0154393 -0.116277 0.163124 -0.122862 0.129839)
(2.64525 0.00283395 0.295763 2.57298 -0.028838 2.53841)
(0.0167727 0.0138523 -0.00180346 0.013397 0.000148114 0.0170097)
(0.0128585 0.0051372 0.00367215 0.00556242 -0.00906186 0.0130616)
(0.0618506 -0.0105888 -0.0287179 0.0536765 0.00418785 0.0578183)
(0.00773218 -0.0245316 -0.0519405 0.0273762 -0.0301272 0.0470832)
(0.530374 -0.0233914 -0.269539 0.565072 -0.00883017 0.555416)
(6.85265 -0.0329911 1.72454 7.01388 -0.275718 6.92543)
(3.78489 -0.0264609 0.722341 3.76756 0.621183 3.74372)
(13.7526 0.0796689 -2.42581 13.5158 0.199005 13.1943)
(2.22954 -0.00427131 -1.15175 2.28707 -0.285576 2.80899)
(4.32488 -0.0426125 0.809607 4.32364 -0.10088 4.36809)
(0.633489 -0.000785654 0.00344611 0.67806 -0.0229013 0.639568)
(-0.00547501 -0.00443989 -0.00120051 0.00362985 -3.98828e-05 0.00132189)
(0.0120811 0.00182777 -0.00624675 0.00735537 0.000987173 0.00984558)
(0.0574502 0.00764962 -0.000293367 0.0388505 0.00186531 0.0442113)
(0.0333487 0.000612885 0.00193386 0.00969119 0.00387748 0.00491152)
(0.0137897 0.00141823 0.0289681 0.0356723 0.00208075 0.0617842)
(0.980663 -0.0106008 -0.104752 0.8196 -0.00415687 0.738603)
(1.1225 -0.0357119 -0.0811714 0.959171 0.000381035 0.93744)
(0.333071 0.0202061 0.140805 0.472214 0.00719885 0.573146)
(0.136735 -0.00390432 0.115146 0.0906864 0.0961137 0.242381)
(0.00440994 -0.00101312 -0.000880339 0.00356431 0.00825698 0.00741179)
(1.25005 0.00336322 9.30309e-06 1.24395 -0.0712564 1.25084)
(0.0119573 0.000269165 -0.000958219 0.020443 -0.00250077 0.0150218)
(-0.000851489 0.00172232 -0.00123803 0.0017082 0.00520525 0.0029733)
(-0.00349807 -0.00237585 -0.00307314 -0.00174672 0.00318699 -0.00347873)
(0.0866878 -0.014859 0.0024389 0.0730468 0.000581999 0.10147)
(0.1389 0.000515098 -0.0196051 0.0755106 -0.0148894 -0.0253218)
(0.797679 -0.0497007 -0.0251557 0.660994 0.0556819 0.645479)
(-0.00421854 -0.0417778 0.0411453 -0.00129054 0.0325536 0.0255291)
(0.00720678 0.102831 -0.00573131 0.0146872 -0.0533635 0.137329)
(6.22648 -0.0396129 -0.535177 6.17593 0.00104273 6.16706)
(0.132052 0.00303666 -0.0310646 0.135628 0.00106639 0.132326)
(4.93937 0.0077969 0.157521 4.96468 0.000404021 4.96426)
(0.0415287 -0.00347968 0.0116418 0.0418261 0.000503558 0.042089)
(-0.0023842 -0.00775996 -0.00661369 0.00851345 -4.08557e-05 0.00498555)
(0.0376601 -0.0152988 -0.00623288 0.0342788 -0.00179551 0.031688)
(0.20194 -0.0439358 -0.0325064 0.127549 -0.00824527 0.0490304)
(0.325509 -0.0391802 -0.00197214 0.308589 -0.0705463 0.316665)
(0.740699 -0.0598115 -0.0780593 0.404616 0.186765 0.704118)
(0.222415 0.148614 -0.0963665 0.318583 0.0305876 0.357639)
(0.00786513 0.00201827 0.00142887 0.0164199 -0.00805436 0.0128592)
(1.48551 -0.00828276 -0.000611679 1.5056 0.112264 1.49263)
(0.00333659 -0.000329358 -0.00177408 0.00186545 0.00629279 0.000241006)
(0.000589834 -0.000216186 -0.00535224 0.0229842 -0.00393527 0.0394783)
(-0.0487676 -0.0087959 -0.0166625 0.0166898 -0.00302271 0.0195743)
(0.547588 -0.0338704 -0.0164689 0.599746 -0.00677478 0.780268)
(1.07188 -0.0215534 -0.152645 1.01725 0.00144984 0.654941)
(3.11485 -0.0519167 0.116121 2.98383 -0.0935551 3.01568)
(2.69409 0.0186708 0.285286 2.73574 0.0883305 1.70095)
(0.936158 0.0637417 -0.218969 0.967134 0.119486 0.852945)
(0.00640156 0.000660845 -0.000556445 0.00266594 0.000895572 0.00292273)
(0.00496993 -0.000110688 -0.00128602 0.00646389 -0.0010248 0.00296844)
(0.00735599 -0.000448596 0.00246515 0.00803469 -0.000947622 0.00313237)
(0.0083501 0.00234806 -0.00730456 0.00857266 0.00110171 0.00674821)
(0.00396257 -0.000645713 -0.0027858 0.00185335 0.00145773 0.000992021)
(0.0816314 -0.010292 0.0219229 0.0606836 0.00318178 0.0645953)
(0.0144504 -0.00685339 0.0116524 0.00391424 0.00392514 -0.00958693)
(0.293071 0.00852917 -0.0401425 0.300171 0.0179628 0.348351)
(0.232119 0.000792054 -0.0727427 0.279997 -0.0519641 0.256026)
(0.0455469 0.0158455 -0.0294067 0.0388669 0.00282713 0.00132051)
(0.0412871 0.0130212 0.0140533 0.0542233 -0.000179747 0.0547643)
(0.00798721 0.00311793 -0.000125185 0.00621812 0.00377895 0.0070191)
(0.00326119 -0.00589303 -0.0016469 0.00696943 0.00541351 0.00594566)
(0.00472843 -0.00364259 -0.000873844 0.0031264 0.00218089 0.00282711)
(0.0146144 -0.00447955 0.00161365 0.0071243 0.00500816 0.00944714)
(0.00705781 -0.00288375 0.00213592 0.00141367 0.00648074 0.00409809)
(0.07262 -0.00612178 0.0160952 0.0654732 -0.00211538 0.0627193)
(0.617201 0.0292753 -0.135345 0.673968 0.00235074 0.686736)
(0.379876 0.0132435 -0.0785766 0.366486 0.00414927 0.371741)
(1.07833 -0.0323214 0.109542 0.989505 0.0217174 0.982045)
(-0.00405289 0.00223348 0.00658176 0.00101086 0.000840945 -0.00660826)
(2.52195 0.00091028 0.0030943 2.54984 0.0036186 2.66282)
(-0.00461548 0.000137529 -0.00414971 -0.000119816 0.000233243 0.00837464)
(0.0766762 -0.000493894 -0.00242406 0.0596802 0.00185363 0.0606266)
(0.0134966 -0.000957698 0.001192 0.0067993 0.00278049 0.00692217)
(0.0249482 -0.00747272 0.00135525 0.0154836 0.0155511 0.0151146)
(0.0338495 -0.0142645 -0.0210259 0.0144735 -0.0275488 0.0187645)
(0.359049 -0.0102161 -0.0302224 0.350858 0.079802 0.363045)
(7.67381 -0.0202656 -0.00864488 7.70409 -0.54554 7.68746)
(-0.123699 0.193705 0.0685583 0.0260336 -0.109784 0.16842)
(0.00312588 -0.00481887 0.000916334 0.00696386 0.000786521 0.00462963)
(-0.00051869 -0.000930405 0.00151362 0.00723358 -0.00244522 0.00336904)
(0.00418978 0.00600287 0.00171637 0.0085984 -0.00130629 0.0061425)
(-1.75639e-05 0.00216523 0.00131623 0.00216046 0.000348103 -0.00188229)
(0.00419705 0.00103928 0.0388404 0.0197104 0.00220215 0.0195793)
(0.0297967 -0.00619859 -0.155544 0.0667293 0.0432962 0.087579)
(1.24392 -0.0395807 0.631858 1.24137 -0.0511944 1.27163)
(40.6177 0.262057 -5.97127 41.2876 0.553098 41.5984)
(14.0346 -0.0244489 -0.453973 13.8345 -0.758191 13.8219)
(44.6848 -0.032119 1.4426 44.5329 -0.0684601 44.5447)
(0.00158221 0.000254801 0.000407015 0.00604298 -0.0103572 0.0111167)
(0.0400576 -0.00727598 -0.00341092 0.0335343 -0.00355071 0.0331459)
(0.02733 0.00878763 -0.00501821 0.0283057 -0.00323892 0.032669)
(0.0143596 0.0115303 0.00133565 0.0221133 0.000117515 0.0241254)
(0.00484153 -0.000139961 0.00017781 0.00261133 0.000815199 0.00936771)
(0.00173137 0.00146218 -0.00104348 -0.00206951 0.001922 0.00415145)
(0.00478798 0.00813289 -0.00937731 0.0152905 0.00307505 0.00343745)
(0.0943506 0.0235178 -0.0200543 0.107901 0.00674855 0.100097)
(0.0124639 0.0181443 -0.0449039 0.0621489 0.011474 0.0992584)
(0.00788165 -0.0370907 0.00350143 0.0736921 0.00794198 0.146753)
(0.00243422 0.0025971 0.00492657 0.0049317 -0.000532651 0.00505488)
(0.0135353 0.00399331 -7.84034e-05 0.0217196 -0.00378827 0.0157242)
(0.0140042 5.12405e-05 -0.00143944 0.0284235 0.000256443 0.0213255)
(-0.00264181 -0.000374982 0.000537629 0.000345996 0.000595152 0.00178832)
(0.000114459 0.0010069 0.000591952 -8.23139e-05 0.00101954 0.00146697)
(-0.00094527 0.00231051 0.0026479 0.00349902 0.00161848 0.00131831)
(0.0192194 0.00702419 0.00226784 0.0128412 0.00151706 0.0104396)
(0.01367 0.00796615 -0.014681 0.0156286 0.00650119 0.00181365)
(0.336328 -0.00856766 -0.0093803 0.383507 0.00696169 0.506408)
(0.0868152 -0.0322962 -0.00982033 0.161905 0.0205929 0.187826)
(0.00735534 -0.00116755 -0.00445348 0.0080505 3.46064e-05 0.00951165)
(-0.00287758 -0.00215551 -0.00317846 -3.13847e-05 -0.000565703 -0.00138067)
(0.00262755 0.00119676 0.00433565 0.000480973 -0.000278341 0.00277545)
(0.00547507 0.00224198 0.0036482 0.00365316 -0.000785412 0.00449319)
(0.000499463 0.00232826 0.000799702 -0.000988391 0.00153267 -5.95659e-05)
(0.000423152 0.0033262 -0.000145165 3.86955e-05 0.00194133 -0.000105062)
(0.00548627 0.0107855 -0.00183933 0.00849177 0.00454027 0.00835282)
(0.0127483 0.0327093 -0.00249643 0.0289956 -0.0210996 0.0351803)
(-0.0357834 0.0510176 -0.0125609 0.0487466 0.027496 0.0815036)
(0.173588 -0.174951 -0.0592647 0.32766 0.141594 0.311566)
(-0.00063877 0.000280881 -8.51812e-05 -3.3545e-06 0.000337727 0.000320442)
(0.00218052 0.000773594 -0.000234086 0.00159579 0.00203998 0.0014551)
(-0.000250703 0.00167413 -0.00271106 0.00254136 0.00178631 0.00202683)
(0.000304511 -0.000253208 0.00223872 -0.000197585 -0.00109919 0.0027049)
(0.0327109 0.00163583 0.00904406 0.0189619 0.00122619 0.018508)
(0.0344469 0.00588109 0.00953255 0.0162451 0.00203606 0.0121455)
(0.176694 0.0556624 -0.13488 0.0896956 0.0290393 0.171454)
(0.0416063 0.00688467 0.000141315 0.00304447 -0.0112847 -0.0486871)
(18.2029 0.0306018 0.169216 18.6609 -0.0114328 19.5095)
(-0.0696051 -0.0376173 -0.0705807 0.0469116 0.0603146 0.167365)
)
;

boundaryField
{
    inlet
    {
        type            calculated;
        value           nonuniform 0();
    }
    outlet
    {
        type            calculated;
        value           nonuniform 0();
    }
    bottom
    {
        type            calculated;
        value           nonuniform List<symmTensor> 
40
(
(-0.000745653 0.000778473 -0.0869343 0.00105733 -0.00237962 -0.000476451)
(-2.56761e-05 0.000127688 -0.0867515 0.00130938 -0.00121585 -0.000751893)
(0.00163073 -0.000472571 -0.0879887 0.000837125 -0.000600555 -0.00172425)
(0.00236919 -0.000152569 -0.0860297 0.000180087 -2.07385e-05 -0.00222853)
(-0.00092441 0.000670794 -0.0862224 0.000586837 -0.00194439 -0.00196371)
(-0.000914877 0.000345324 -0.0856578 0.000741357 -0.00200916 -0.00228668)
(0.000753363 0.000209988 -0.0835934 0.000821343 -0.000715602 -0.00641179)
(-0.00116748 0.000316083 -0.0847151 0.000624781 0.000704664 -0.00242414)
(0.000472429 0.000679929 -0.0894333 0.000877407 -0.000914406 3.37287e-05)
(0.000617286 0.000498756 -0.0887144 0.000770709 -0.000645962 3.0233e-05)
(0.00064533 -0.000699962 -0.0892819 0.00126371 -0.000623872 0.0024177)
(0.000960988 -0.000608745 -0.0890306 -2.84521e-05 -0.000223176 -0.000982567)
(0.00184774 0.000180571 -0.0871703 0.000849415 -0.00163284 -0.00802781)
(0.00264505 0.00114386 -0.0867697 -0.000866216 -0.00277168 -0.00707637)
(0.00619532 -0.000282438 -0.0886898 0.000719499 -0.00194877 -0.0157515)
(0.00481946 -0.000955246 -0.0864463 0.00159254 0.00112182 -0.00850462)
(0.00238997 5.79531e-05 -0.0812989 0.0010669 -0.00150883 -0.00256401)
(0.00280249 0.00276382 -0.081036 2.93491e-05 -0.00126021 -0.00293193)
(0.00519498 0.00198422 -0.0746583 -0.000415269 -0.00178718 -0.00718962)
(0.0106786 -0.000505186 -0.0765647 0.0016916 -0.000529478 -0.00556617)
(-0.00320318 3.95885e-05 -0.0854457 0.00108405 -0.0012251 0.00335695)
(-0.00291772 0.00200484 -0.0853312 0.00105951 -0.000175488 0.00319712)
(-0.00795824 0.00625142 -0.0801998 -0.000112994 0.00120801 0.00178755)
(-0.00096466 0.00458266 -0.0836194 -2.77942e-05 0.00144948 0.0090492)
(-0.0277722 0.000248859 -0.094299 0.00129492 -0.00102015 -0.00458475)
(-0.0289222 0.000227366 -0.0927554 0.00391528 0.000831376 -0.00667678)
(-0.0140631 0.00339466 -0.085592 0.00191301 0.000988449 -0.0036891)
(-0.0472791 0.00310619 -0.0978163 -0.00532014 -0.00017224 -0.0197679)
(-0.011065 -0.00064871 -0.112017 -0.000541174 -0.00335926 -0.0127536)
(-0.0122882 0.00498187 -0.112273 0.00347881 0.00325522 -0.011269)
(-0.00234276 -0.00292098 -0.0894151 0.00226518 0.000141106 0.004427)
(-0.0186168 -0.00819064 -0.116261 -0.00443328 -0.00323853 -0.0250185)
(0.0280648 0.00141692 -0.0823331 -0.000540337 -0.00275332 -0.0296392)
(0.0276469 0.00381565 -0.0832615 0.00194004 0.00675394 -0.0325841)
(0.00709903 -0.00121872 -0.0838782 0.000222235 0.000921456 -0.00125333)
(0.0395224 -0.00418413 -0.0794036 -0.00327941 -0.00673482 -0.0417003)
(0.00584678 -0.000892144 -0.0594055 -1.51295e-05 -0.000632003 0.0183397)
(0.00743859 -0.00383148 -0.0581306 0.000639297 0.000593854 0.0172)
(0.0119668 0.00350603 -0.0737714 1.38254e-05 0.00172229 0.0150116)
(0.0209404 0.00457107 -0.0589321 -0.00258575 0.0014813 0.0160343)
)
;
    }
    top
    {
        type            symmetryPlane;
    }
    side1
    {
        type            symmetryPlane;
    }
    side2
    {
        type            symmetryPlane;
    }
    procBoundary30to22
    {
        type            processor;
        value           nonuniform List<symmTensor> 
50
(
(-0.00446686 0.01415 -0.370729 0.00631598 -0.00606455 -0.00806072)
(0.00474875 0.000182305 -0.389987 0.00522619 -0.00757558 -0.00734198)
(0.00925259 -0.00638083 -0.386043 0.0062644 -0.0033796 -0.0146872)
(-0.00358393 0.00469896 -0.358392 0.0104225 -0.0113114 -0.0137346)
(0.0291975 0.00802039 -0.396489 0.00768572 -0.00384991 0.00442199)
(-0.0191628 0.00822601 -0.445504 -0.00702565 -0.0106304 -0.0744661)
(-0.173692 0.0227923 -0.38401 -0.0164852 0.00285144 0.332204)
(-0.0550458 -0.000390683 -0.339422 -0.0152841 -0.0253543 0.0705677)
(0.345006 -0.0152829 -0.477154 0.00385046 -0.0671143 -0.445966)
(0.0717305 0.0378767 -0.314903 -0.00228887 0.00455398 -0.113119)
(-0.013572 0.00159615 0.00178639 -0.00233056 -0.0120425 0.034223)
(-0.0022315 0.000943405 -0.00173681 -0.00200114 0.00225674 0.00226037)
(0.00996306 0.000484609 -0.00425348 -0.0153637 -0.00126618 0.000721936)
(0.00754528 0.00388158 0.00944309 -0.000645284 -0.0084994 0.000562007)
(0.00537853 -0.000344968 -0.0488693 -0.00114506 0.000380293 0.000568389)
(-0.0109374 0.0374523 0.596671 -0.00699683 -0.0559164 -0.0109582)
(0.0306273 0.00189806 0.234296 -0.00700965 0.0873677 0.0280675)
(0.0513073 -0.0555018 -1.33456 -0.0112312 0.108275 -0.0579619)
(-0.00589693 -0.0128457 -0.693813 0.000173887 0.272361 0.0154693)
(0.0985427 -0.000234279 0.516082 -0.00464995 -0.0112489 -0.0612586)
(-0.00476891 -0.00124986 0.0077034 0.00193205 0.00218587 0.000579252)
(-0.00573305 0.0335621 -0.0413689 -0.000718857 0.00353892 0.00082757)
(0.00544509 0.000798714 -0.00361088 -0.00494939 0.000618513 0.000714925)
(-0.000311609 0.000641726 -0.000405877 -0.00149308 0.000326384 0.00142448)
(0.00428105 0.000263882 -0.000932027 -0.0013508 0.00253384 -0.00535363)
(-0.00415065 0.0129401 0.0075711 -0.00191043 0.00290294 0.0219345)
(0.0840238 -0.0120943 -0.024752 0.00385713 0.0219648 -0.15085)
(0.087381 -0.00576947 -0.0338404 -0.016697 -0.0459447 -0.0456335)
(-0.0819514 0.0121063 -0.00720587 -0.0230161 -0.0173644 0.135438)
(0.00938715 -0.0106729 0.000761353 -0.0468559 0.0807417 0.0751719)
(0.00505523 1.49153e-05 -0.00583652 0.000831307 0.0134769 -0.0161132)
(0.00155865 -0.00108755 0.00113505 0.00032769 0.00147232 0.00110295)
(-0.00031645 0.000461393 -0.00195953 -0.000151836 0.00103652 7.96619e-05)
(0.00114604 -0.00021202 -0.001319 -3.38878e-05 0.000918762 -3.48548e-05)
(-0.000250266 0.00122594 -0.00122176 -0.000205043 -0.000477573 -0.00075005)
(-4.56967e-05 8.01103e-05 -0.00643684 0.00681742 0.000682977 -0.00137281)
(0.00416939 0.00709997 -0.00270755 -0.00750632 0.00599216 -0.0017573)
(-0.00227161 0.00354504 -0.0219876 -0.00644372 0.00528458 0.00868326)
(-0.0102882 -0.005349 -0.0655681 -0.00330094 0.021207 0.00378998)
(-0.121525 -0.032875 0.254491 0.0436658 0.0613216 0.0477522)
(0.0252668 0.00107059 0.00580113 -0.00587705 0.000828681 -0.0117519)
(0.0328916 -0.000101707 -0.0214552 -0.0102155 0.00266826 -0.00321754)
(-0.00128173 0.00252997 -0.00641168 -0.0117237 -0.000659357 0.000798932)
(0.00308384 -0.000453452 -0.00197921 -0.00148079 -0.000161714 0.00101853)
(-0.00334119 0.00155201 -0.00236433 0.000189515 0.00146798 0.00238725)
(-0.00456959 -0.00522133 0.00290778 -0.00105751 0.00273694 0.00269918)
(0.00239457 -0.00517321 2.25628e-05 -0.00114216 -0.00015641 0.00223577)
(-0.0119387 0.0158509 -0.0151843 0.00191639 -0.00151662 0.00338418)
(-0.0287225 0.0141836 -0.0109195 0.0137823 -0.00407805 0.0175789)
(-0.051667 0.0137495 -0.0228309 0.0285042 -0.0165078 0.0678511)
)
;
    }
    procBoundary30to29
    {
        type            processor;
        value           nonuniform List<symmTensor> 
20
(
(-0.0080945 0.0126205 -0.362209 0.0184474 -0.00804631 -0.00731483)
(0.0015667 0.00126803 -0.371866 0.0159862 -0.00551337 -0.0169996)
(0.00601987 -0.0045085 -0.372149 0.00818479 -0.00450107 -0.00636534)
(0.00791653 -0.000345229 -0.36417 -0.00164917 -0.000541969 -0.00748371)
(-0.00222698 0.000282384 0.000629842 0.00190665 -0.000472259 0.00107976)
(-0.000426949 -0.00730007 0.0217411 0.00144899 0.000246416 0.00153727)
(-0.0190601 0.00296796 -0.000921781 0.00149132 0.00276296 0.00306624)
(-0.00371431 0.00402923 -0.00279806 0.00216836 -1.62926e-05 0.0020617)
(-0.00582715 0.00660899 -0.0018793 -0.000580296 0.00333434 0.000288546)
(0.00832786 -0.000319051 0.0042307 0.00909028 -0.00323679 -0.0154489)
(-0.0113476 -0.00980374 0.0211638 0.00221644 -0.000245033 0.000571398)
(0.000184439 -0.00251911 0.00644846 -0.00326488 -0.00171279 0.000551526)
(0.0123368 0.0194171 0.00262435 -0.00815048 -0.00393263 0.00145812)
(0.0218633 -0.0128972 0.10568 -0.000484531 0.000230897 -0.0027377)
(0.0197435 -0.00349117 -0.00745334 0.018742 0.019396 -0.00334664)
(-0.000106578 -0.00329041 -0.000342974 0.00115625 -0.000255659 -0.000778195)
(0.00891882 -0.111409 -0.0253131 -0.00171077 0.00348635 -0.00163056)
(-0.00630936 0.013954 0.0155742 -0.00476727 0.000237861 0.0117235)
(-0.00290885 -0.00290904 -0.00266416 0.000915512 0.00183271 -8.02983e-05)
(-0.000543445 0.000482891 -0.000424261 -0.000524038 -0.000235027 0.000373718)
)
;
    }
    procBoundary30to31
    {
        type            processor;
        value           nonuniform List<symmTensor> 
20
(
(-0.124535 0.00609668 -0.47299 -0.0447391 0.0153929 0.260231)
(-0.1395 -0.0258648 -0.479266 0.0289896 -0.00789877 0.254591)
(-0.104553 -0.0651043 -0.948842 0.0332935 -0.00979122 0.176244)
(-0.110819 0.0627946 -0.350259 -0.0548709 -0.0114649 0.199529)
(-0.0413568 -0.0136563 2.38187 0.0331053 -0.0934101 -0.153928)
(-0.0601248 0.0607169 2.48521 -0.035222 -0.00894021 -0.245616)
(-0.0335253 -0.0392406 0.845934 -0.0750785 -0.0535293 -0.260989)
(-0.0427925 -0.067141 1.65558 0.062108 -0.0414962 -0.103946)
(0.00280884 0.0164727 0.00237627 0.00860946 -3.24067e-05 -0.0658094)
(0.0308424 -0.00856482 -0.0261131 -0.0011973 -0.0176318 -0.0837292)
(0.839997 0.242822 0.609638 -0.145568 0.0173573 -0.396013)
(0.0203219 0.002772 -0.127247 0.0485204 0.0205184 -0.11885)
(-0.0491075 0.0756935 -0.257909 0.00477616 -0.128803 -0.0726238)
(0.0111462 -0.0757583 0.169442 -0.011587 0.0599139 0.0127384)
(-0.0455261 0.0635225 -1.59922 0.00839031 0.147189 0.0900575)
(-0.270653 0.0272411 0.484059 -0.0229426 0.0744017 0.094003)
(0.0600123 -0.051884 0.0686 -0.0445603 -0.00218365 0.055953)
(-0.0204591 -0.00874921 0.00512914 0.0558409 -0.00147914 0.0244746)
(-0.544239 -0.231634 0.107938 0.200651 0.113847 0.00448808)
(0.433418 -0.00158755 -0.139147 -0.125142 0.0481296 -0.0288693)
)
;
    }
}


// ************************************************************************* //
