/*--------------------------------*- C++ -*----------------------------------*\
| =========                 |                                                 |
| \\      /  F ield         | OpenFOAM: The Open Source CFD Toolbox           |
|  \\    /   O peration     | Version:  2.4.0                                 |
|   \\  /    A nd           | Web:      www.OpenFOAM.org                      |
|    \\/     M anipulation  |                                                 |
\*---------------------------------------------------------------------------*/
FoamFile
{
    version     2.0;
    format      ascii;
    class       surfaceScalarField;
    location    "0.01";
    object      phia;
}
// * * * * * * * * * * * * * * * * * * * * * * * * * * * * * * * * * * * * * //

dimensions      [0 3 -1 0 0 0 0];

internalField   nonuniform List<scalar> 
490
(
4.57134e-06
7.0803e-07
5.44811e-09
4.57183e-06
7.08074e-07
5.42711e-09
4.57229e-06
7.08107e-07
5.40677e-09
4.57275e-06
7.08131e-07
5.38708e-09
4.57318e-06
7.08144e-07
5.36807e-09
4.5736e-06
7.08148e-07
5.34979e-09
4.574e-06
7.08143e-07
5.33229e-09
4.57439e-06
7.08129e-07
5.31562e-09
4.57475e-06
7.08106e-07
5.29981e-09
7.08077e-07
5.28487e-09
4.57065e-06
7.08028e-07
5.47719e-09
4.57113e-06
7.08085e-07
5.45591e-09
4.57159e-06
7.08131e-07
5.43578e-09
4.57203e-06
7.08167e-07
5.41654e-09
4.57246e-06
7.08194e-07
5.39802e-09
4.57287e-06
7.08213e-07
5.38017e-09
4.57327e-06
7.08223e-07
5.36293e-09
4.57365e-06
7.08224e-07
5.34632e-09
4.57402e-06
7.08218e-07
5.33034e-09
7.08204e-07
5.31501e-09
4.56993e-06
7.05943e-07
5.50762e-09
4.57045e-06
7.05971e-07
5.48482e-09
4.57092e-06
7.05986e-07
5.4638e-09
4.57137e-06
7.05989e-07
5.44417e-09
4.57179e-06
7.05981e-07
5.4256e-09
4.5722e-06
7.05964e-07
5.40788e-09
4.57259e-06
7.0594e-07
5.39088e-09
4.57297e-06
7.05908e-07
5.3745e-09
4.57333e-06
7.05869e-07
5.35869e-09
7.05824e-07
5.34342e-09
4.56918e-06
5.54023e-09
4.56974e-06
5.51525e-09
4.57024e-06
5.49256e-09
4.57071e-06
5.47175e-09
4.57115e-06
5.45242e-09
4.57157e-06
5.43429e-09
4.57196e-06
5.41711e-09
4.57234e-06
5.40072e-09
4.5727e-06
5.385e-09
5.36986e-09
4.57052e-06
7.07696e-07
5.48317e-09
4.57103e-06
7.07748e-07
5.46095e-09
4.57152e-06
7.0779e-07
5.43944e-09
4.572e-06
7.0782e-07
5.41864e-09
4.57246e-06
7.0784e-07
5.39858e-09
4.57291e-06
7.07851e-07
5.3793e-09
4.57333e-06
7.07851e-07
5.36086e-09
4.57373e-06
7.07842e-07
5.3433e-09
4.57411e-06
7.07825e-07
5.32665e-09
7.078e-07
5.31091e-09
4.56983e-06
7.07702e-07
5.51205e-09
4.57034e-06
7.07767e-07
5.48958e-09
4.57082e-06
7.07821e-07
5.46832e-09
4.57129e-06
7.07864e-07
5.44801e-09
4.57174e-06
7.07898e-07
5.42849e-09
4.57217e-06
7.07923e-07
5.40968e-09
4.57259e-06
7.07939e-07
5.39153e-09
4.57299e-06
7.07946e-07
5.37404e-09
4.57338e-06
7.07944e-07
5.35724e-09
7.07935e-07
5.34113e-09
4.56912e-06
7.05581e-07
5.54233e-09
4.56966e-06
7.05617e-07
5.51833e-09
4.57016e-06
7.0564e-07
5.4962e-09
4.57063e-06
7.0565e-07
5.47552e-09
4.57108e-06
7.05649e-07
5.45597e-09
4.5715e-06
7.05638e-07
5.43732e-09
4.57192e-06
7.05619e-07
5.41943e-09
4.57231e-06
7.05593e-07
5.40221e-09
4.5727e-06
7.05559e-07
5.3856e-09
7.05519e-07
5.36957e-09
4.56837e-06
5.57485e-09
4.56895e-06
5.54864e-09
4.56949e-06
5.52483e-09
4.56998e-06
5.50297e-09
4.57044e-06
5.48267e-09
4.57087e-06
5.46362e-09
4.57129e-06
5.44558e-09
4.57168e-06
5.42838e-09
4.57206e-06
5.41187e-09
5.39599e-09
4.56969e-06
7.07361e-07
5.51832e-09
4.57023e-06
7.07422e-07
5.49487e-09
4.57075e-06
7.07471e-07
5.47219e-09
4.57126e-06
7.07508e-07
5.45029e-09
4.57174e-06
7.07535e-07
5.42918e-09
4.57221e-06
7.07552e-07
5.40891e-09
4.57265e-06
7.07558e-07
5.38953e-09
4.57307e-06
7.07555e-07
5.37108e-09
4.57347e-06
7.07543e-07
5.35359e-09
7.07522e-07
5.33706e-09
4.569e-06
7.07375e-07
5.547e-09
4.56954e-06
7.07448e-07
5.52333e-09
4.57005e-06
7.07509e-07
5.50095e-09
4.57054e-06
7.0756e-07
5.47958e-09
4.57102e-06
7.07601e-07
5.45905e-09
4.57147e-06
7.07632e-07
5.43928e-09
4.57191e-06
7.07653e-07
5.42022e-09
4.57233e-06
7.07665e-07
5.40187e-09
4.57274e-06
7.07669e-07
5.38424e-09
7.07665e-07
5.36735e-09
4.5683e-06
7.05217e-07
5.57714e-09
4.56887e-06
7.05262e-07
5.55193e-09
4.56939e-06
7.05292e-07
5.52869e-09
4.56989e-06
7.05309e-07
5.50696e-09
4.57036e-06
7.05314e-07
5.48643e-09
4.57081e-06
7.0531e-07
5.46686e-09
4.57124e-06
7.05297e-07
5.44809e-09
4.57165e-06
7.05276e-07
5.43002e-09
4.57206e-06
7.05247e-07
5.41261e-09
7.05212e-07
5.39582e-09
4.56755e-06
5.60956e-09
4.56816e-06
5.58213e-09
4.56872e-06
5.5572e-09
4.56924e-06
5.5343e-09
4.56972e-06
5.51303e-09
4.57018e-06
5.49306e-09
4.57061e-06
5.47416e-09
4.57103e-06
5.45613e-09
4.57142e-06
5.43885e-09
5.42222e-09
4.56886e-06
7.07026e-07
5.53194e-09
4.56943e-06
7.07095e-07
5.50692e-09
4.56998e-06
7.07151e-07
5.48273e-09
4.57051e-06
7.07196e-07
5.45937e-09
4.57102e-06
7.0723e-07
5.43686e-09
4.57151e-06
7.07253e-07
5.41524e-09
4.57197e-06
7.07265e-07
5.39457e-09
4.57241e-06
7.07267e-07
5.37488e-09
4.57283e-06
7.0726e-07
5.35619e-09
7.07244e-07
5.33851e-09
4.56818e-06
7.07047e-07
5.55987e-09
4.56875e-06
7.07129e-07
5.53465e-09
4.56928e-06
7.07198e-07
5.5108e-09
4.5698e-06
7.07256e-07
5.48801e-09
4.57029e-06
7.07303e-07
5.46612e-09
4.57077e-06
7.0734e-07
5.44503e-09
4.57123e-06
7.07367e-07
5.42471e-09
4.57168e-06
7.07385e-07
5.40513e-09
4.5721e-06
7.07394e-07
5.38633e-09
7.07395e-07
5.3683e-09
4.56748e-06
7.04853e-07
5.58928e-09
4.56808e-06
7.04906e-07
5.56252e-09
4.56863e-06
7.04944e-07
5.53782e-09
4.56914e-06
7.04968e-07
5.5147e-09
4.56964e-06
7.0498e-07
5.49283e-09
4.57011e-06
7.04982e-07
5.47197e-09
4.57056e-06
7.04974e-07
5.45196e-09
4.571e-06
7.04959e-07
5.4327e-09
4.57142e-06
7.04935e-07
5.41413e-09
7.04905e-07
5.39622e-09
4.56674e-06
5.62102e-09
4.56738e-06
5.59203e-09
4.56796e-06
5.56564e-09
4.5685e-06
5.54135e-09
4.56901e-06
5.51875e-09
4.56948e-06
5.49751e-09
4.56994e-06
5.47739e-09
4.57037e-06
5.45819e-09
4.57079e-06
5.43976e-09
5.42203e-09
4.56803e-06
7.0669e-07
4.56863e-06
7.06767e-07
4.5692e-06
7.06831e-07
4.56976e-06
7.06883e-07
4.57029e-06
7.06924e-07
4.5708e-06
7.06953e-07
4.57129e-06
7.0697e-07
4.57175e-06
7.06978e-07
4.57219e-06
7.06976e-07
7.06965e-07
4.56736e-06
7.06719e-07
4.56795e-06
7.06808e-07
4.56851e-06
7.06885e-07
4.56905e-06
7.0695e-07
4.56957e-06
7.07004e-07
4.57007e-06
7.07047e-07
4.57055e-06
7.0708e-07
4.57101e-06
7.07104e-07
4.57146e-06
7.07118e-07
7.07123e-07
4.56666e-06
7.04488e-07
4.56728e-06
7.0455e-07
4.56786e-06
7.04595e-07
4.5684e-06
7.04626e-07
4.56892e-06
7.04644e-07
4.56941e-06
7.04652e-07
4.56988e-06
7.0465e-07
4.57034e-06
7.0464e-07
4.57077e-06
7.04622e-07
7.04596e-07
4.56592e-06
4.56659e-06
4.5672e-06
4.56776e-06
4.56829e-06
4.56879e-06
4.56926e-06
4.56971e-06
4.57014e-06
)
;

boundaryField
{
    inlet
    {
        type            calculated;
        value           nonuniform 0();
    }
    outlet
    {
        type            calculated;
        value           nonuniform 0();
    }
    bottom
    {
        type            calculated;
        value           uniform 0;
    }
    top
    {
        type            symmetryPlane;
        value           uniform 0;
    }
    side1
    {
        type            symmetryPlane;
        value           nonuniform 0();
    }
    side2
    {
        type            symmetryPlane;
        value           uniform 0;
    }
    procBoundary30to22
    {
        type            processor;
        value           nonuniform List<scalar> 
50
(
-7.0793e-07
-7.07957e-07
-7.07973e-07
-7.07978e-07
-7.07974e-07
-7.07961e-07
-7.0794e-07
-7.07911e-07
-7.07875e-07
-7.07832e-07
-7.07586e-07
-7.07621e-07
-7.07645e-07
-7.07658e-07
-7.0766e-07
-7.07653e-07
-7.07638e-07
-7.07614e-07
-7.07583e-07
-7.07545e-07
-7.07241e-07
-7.07284e-07
-7.07315e-07
-7.07335e-07
-7.07345e-07
-7.07344e-07
-7.07334e-07
-7.07316e-07
-7.0729e-07
-7.07257e-07
-7.06895e-07
-7.06947e-07
-7.06986e-07
-7.07013e-07
-7.07029e-07
-7.07034e-07
-7.07031e-07
-7.07018e-07
-7.06997e-07
-7.06969e-07
-7.06549e-07
-7.06609e-07
-7.06655e-07
-7.06689e-07
-7.06712e-07
-7.06724e-07
-7.06726e-07
-7.06718e-07
-7.06703e-07
-7.06679e-07
)
;
    }
    procBoundary30to29
    {
        type            processor;
        value           nonuniform List<scalar> 
20
(
-4.57078e-06
-4.57002e-06
-4.56923e-06
-4.5684e-06
-4.56992e-06
-4.56917e-06
-4.56838e-06
-4.56755e-06
-4.56907e-06
-4.56831e-06
-4.56753e-06
-4.56671e-06
-4.56821e-06
-4.56746e-06
-4.56668e-06
-4.56586e-06
-4.56735e-06
-4.5666e-06
-4.56583e-06
-4.56501e-06
)
;
    }
    procBoundary30to31
    {
        type            processor;
        value           nonuniform List<scalar> 
20
(
4.57525e-06
4.57457e-06
4.57388e-06
4.57322e-06
4.57464e-06
4.57395e-06
4.57327e-06
4.57261e-06
4.57402e-06
4.57333e-06
4.57265e-06
4.57199e-06
4.5734e-06
4.57272e-06
4.57203e-06
4.57137e-06
4.57278e-06
4.57209e-06
4.57141e-06
4.57075e-06
)
;
    }
}


// ************************************************************************* //
