/*--------------------------------*- C++ -*----------------------------------*\
| =========                 |                                                 |
| \\      /  F ield         | OpenFOAM: The Open Source CFD Toolbox           |
|  \\    /   O peration     | Version:  2.4.0                                 |
|   \\  /    A nd           | Web:      www.OpenFOAM.org                      |
|    \\/     M anipulation  |                                                 |
\*---------------------------------------------------------------------------*/
FoamFile
{
    version     2.0;
    format      ascii;
    class       volVectorField;
    location    "0.01";
    object      U;
}
// * * * * * * * * * * * * * * * * * * * * * * * * * * * * * * * * * * * * * //

dimensions      [0 1 -1 0 0 0 0];

internalField   nonuniform List<vector> 
40
(
(1.15933e+08 8.47638e+08 -1.60014e+07)
(2.0165e+08 4.37305e+08 -3.34787e+07)
(2.64506e+08 3.57398e+08 -4.24933e+07)
(3.00292e+08 3.59017e+08 -3.0312e+07)
(3.35878e+08 3.93333e+08 -2.51579e+07)
(1.91036e+08 6.61662e+08 -4.7496e+07)
(2.51693e+08 3.05842e+08 -3.02433e+07)
(2.9503e+08 2.86117e+08 -3.26197e+07)
(3.102e+08 3.92024e+08 -3.38136e+07)
(2.75472e+08 3.17099e+08 -2.99941e+07)
(1.9681e+07 5.13524e+08 -1.85205e+07)
(1.06975e+08 2.82612e+08 -1.24108e+07)
(1.19014e+08 2.41691e+08 -9.98693e+06)
(1.50627e+08 5.14822e+08 -1.5527e+07)
(1.176e+08 3.73033e+08 -1.54983e+07)
(-1.65857e+08 2.71441e+08 -7.36773e+06)
(-9.97086e+07 2.77834e+08 -5.41082e+06)
(-1.16213e+08 2.84265e+08 -5.43172e+06)
(-1.59278e+08 4.66709e+08 -1.15387e+06)
(-1.75246e+08 4.33914e+08 2.38455e+06)
(1.62645e+08 3.54318e+08 -4.39092e+07)
(1.84853e+08 5.44459e+08 -3.83554e+07)
(2.54735e+08 5.13357e+08 -3.845e+07)
(2.80786e+08 2.51015e+08 -4.25654e+07)
(2.95487e+08 2.08482e+08 -5.98929e+07)
(1.13894e+08 3.37488e+08 -7.35693e+07)
(1.65506e+08 4.11375e+08 -4.73752e+07)
(2.33029e+08 3.5759e+08 -5.29638e+07)
(2.23571e+08 2.79821e+08 -7.12024e+07)
(1.73591e+08 2.41816e+08 -6.78072e+07)
(5.17718e+07 2.94801e+08 -5.72318e+07)
(8.57124e+07 2.897e+08 -3.2861e+07)
(1.30657e+08 2.73529e+08 -4.12395e+07)
(1.30881e+08 4.27489e+08 -8.36962e+07)
(8.35164e+07 3.36681e+08 -5.70131e+07)
(-7.17791e+07 2.30571e+08 -3.60634e+07)
(-8.48396e+07 3.13705e+08 -2.0086e+07)
(-1.34286e+08 2.95551e+08 -1.62367e+07)
(-1.55207e+08 5.42702e+08 -4.28575e+07)
(-1.26771e+08 3.62042e+08 -3.18187e+07)
)
;

boundaryField
{
    inlet
    {
        type            calculated;
        value           nonuniform 0();
    }
    outlet
    {
        type            calculated;
        value           nonuniform 0();
    }
    bottom
    {
        type            calculated;
        value           uniform (0 0 0);
    }
    top
    {
        type            symmetryPlane;
    }
    side1
    {
        type            symmetryPlane;
    }
    side2
    {
        type            symmetryPlane;
    }
    procBoundary30to14
    {
        type            processor;
        value           nonuniform List<vector> 10((2.45636e+08 1.01165e+09 6.40262e+06) (3.0275e+08 4.51025e+08 -1.0788e+07) (3.70495e+08 4.93838e+08 -3.62591e+07) (5.32922e+08 5.70507e+08 -4.88417e+07) (7.34544e+08 5.78653e+08 -5.61255e+07) (1.87244e+08 3.40153e+08 -4.12595e+07) (2.94949e+08 8.28615e+08 -3.48739e+07) (3.79205e+08 5.78383e+08 -6.49515e+07) (3.27114e+08 2.6457e+08 -5.41594e+07) (3.06007e+08 2.14326e+08 -7.31786e+07));
    }
    procBoundary30to29
    {
        type            processor;
        value           nonuniform List<vector> 8((5.69021e+07 4.87383e+08 -2.89251e+07) (1.03618e+08 4.76134e+08 -4.21288e+07) (-7.26832e+07 4.25709e+08 -2.87155e+07) (-2.43227e+08 3.4783e+08 -3.57785e+07) (1.65777e+08 4.52605e+08 -9.30766e+07) (8.55298e+07 4.56796e+08 -9.17331e+07) (4.14849e+07 4.91699e+08 -1.06516e+08) (-1.27247e+08 5.38219e+08 -1.10208e+08));
    }
    procBoundary30to31
    {
        type            processor;
        value           nonuniform List<vector> 8((5.33644e+08 6.89901e+08 -5.28307e+07) (3.2415e+08 3.49223e+08 -2.73259e+07) (9.62554e+07 3.56076e+08 -1.6847e+07) (-2.13739e+08 4.67807e+08 -47031.3) (3.5034e+08 3.17632e+08 -1.12829e+08) (1.75592e+08 2.31786e+08 -5.50498e+07) (7.15676e+07 1.67171e+08 -3.33917e+07) (-1.13822e+08 1.8753e+08 -1.66506e+07));
    }
    procBoundary30to46
    {
        type            processor;
        value           nonuniform List<vector> 10((-4.3842e+08 1.76241e+08 -8.31911e+06) (-4.40751e+08 2.8944e+08 1.1372e+07) (-4.41327e+08 3.48676e+08 2.04895e+07) (-5.01087e+08 5.68789e+08 7.56378e+06) (-5.66226e+08 4.91583e+08 1.47434e+07) (-3.37059e+08 1.97336e+08 -1.63145e+07) (-3.73721e+08 3.96722e+08 1.30804e+07) (-3.83762e+08 3.94601e+08 3.6308e+07) (-3.40826e+08 4.20894e+08 2.12076e+07) (-2.96266e+08 3.95914e+08 2.09128e+07));
    }
    procBoundary30to94
    {
        type            processor;
        value           nonuniform List<vector> 
20
(
(1.20211e+08 1.30079e+08 -4.66686e+07)
(1.09607e+08 1.04718e+08 -2.92477e+07)
(1.20917e+08 2.29443e+08 -1.25519e+07)
(1.25817e+08 2.71399e+08 -3.42506e+07)
(1.28833e+08 1.46289e+08 -6.29158e+07)
(1.23093e+08 1.93459e+08 -6.27978e+07)
(1.06725e+08 1.07298e+08 -4.16363e+07)
(1.22033e+08 1.86657e+08 -3.31537e+07)
(1.37859e+08 2.67489e+08 -8.26785e+07)
(1.37622e+08 1.35938e+08 -7.11741e+07)
(1.0968e+08 3.15069e+08 -7.63454e+07)
(7.0877e+07 1.191e+08 -3.39079e+07)
(7.06387e+07 1.49828e+08 -6.69354e+07)
(9.35588e+07 2.16237e+08 -1.14483e+08)
(1.02946e+08 1.49505e+08 -8.32914e+07)
(9.28396e+06 3.29198e+08 -9.61013e+07)
(7.35543e+06 1.67978e+08 -3.8439e+07)
(-1.58553e+07 1.4166e+08 -3.10892e+07)
(-1.00861e+07 1.61371e+08 -6.49119e+07)
(-7.76004e+06 1.67826e+08 -6.46435e+07)
)
;
    }
}


// ************************************************************************* //
