/*--------------------------------*- C++ -*----------------------------------*\
| =========                 |                                                 |
| \\      /  F ield         | OpenFOAM: The Open Source CFD Toolbox           |
|  \\    /   O peration     | Version:  2.4.0                                 |
|   \\  /    A nd           | Web:      www.OpenFOAM.org                      |
|    \\/     M anipulation  |                                                 |
\*---------------------------------------------------------------------------*/
FoamFile
{
    version     2.0;
    format      ascii;
    class       volVectorField;
    location    "0.12";
    object      Ub;
}
// * * * * * * * * * * * * * * * * * * * * * * * * * * * * * * * * * * * * * //

dimensions      [0 1 -1 0 0 0 0];

internalField   nonuniform List<vector> 
200
(
(8.2989e+09 8.66706e+09 -1.67668e+09)
(8.74629e+09 9.29244e+09 -6.10342e+08)
(1.01628e+10 1.13889e+10 -2.10824e+09)
(1.23737e+10 1.02145e+10 4.71192e+08)
(1.29893e+10 8.34313e+09 7.85018e+08)
(1.42786e+10 8.35565e+09 -2.2349e+08)
(1.55217e+10 9.0559e+09 1.92224e+08)
(1.7297e+10 1.00766e+10 -5.54499e+08)
(1.80339e+10 1.07802e+10 -1.4598e+08)
(2.06651e+10 1.29456e+10 -7.01689e+08)
(1.25368e+10 6.76241e+09 -9.06025e+09)
(1.62349e+10 9.06233e+09 -1.73191e+09)
(1.68477e+10 7.79889e+09 7.30814e+08)
(1.68799e+10 7.88812e+09 1.90351e+09)
(1.79557e+10 6.31468e+09 2.18958e+08)
(1.72624e+10 6.25502e+09 4.07327e+07)
(1.89532e+10 7.72653e+09 -1.05551e+09)
(1.91842e+10 6.43169e+09 4.34525e+07)
(2.04137e+10 1.0568e+10 -1.46331e+09)
(2.21418e+10 6.67041e+09 5.25482e+08)
(1.00439e+10 2.96984e+09 8.99812e+08)
(1.34727e+10 4.82899e+09 -4.2662e+10)
(2.12704e+10 8.11123e+09 -1.14727e+09)
(1.93774e+10 5.73141e+09 4.32266e+07)
(1.93929e+10 5.53873e+09 -2.95251e+08)
(2.15607e+10 6.12159e+09 -1.54767e+09)
(2.32262e+10 1.93242e+09 8.07612e+08)
(2.37875e+10 1.08488e+10 -3.07674e+09)
(2.76764e+10 1.77918e+09 1.73294e+09)
(2.77431e+10 8.62037e+09 -1.27052e+09)
(1.11694e+10 3.76012e+08 -5.79474e+09)
(1.33179e+10 3.52409e+09 -7.91321e+08)
(1.61505e+10 2.80672e+09 -1.41581e+09)
(2.03126e+10 3.16923e+09 -1.18471e+09)
(2.40567e+10 3.61845e+09 -2.02761e+09)
(2.75431e+10 -1.16633e+09 6.04214e+08)
(2.84553e+10 8.44196e+09 -3.20236e+09)
(3.36583e+10 -3.52979e+09 1.97401e+09)
(3.39259e+10 7.6725e+09 -2.5871e+09)
(3.84712e+10 -1.53647e+09 2.42935e+09)
(6.68554e+09 1.81161e+10 9.05166e+07)
(1.03323e+10 1.48673e+10 -2.30453e+08)
(1.24049e+10 1.20011e+10 9.65391e+08)
(1.23126e+10 1.14713e+10 2.49355e+09)
(1.18531e+10 9.56927e+09 1.14212e+09)
(1.22017e+10 8.34528e+09 7.84078e+08)
(1.45512e+10 8.06928e+09 -9.65665e+08)
(1.61811e+10 9.12693e+09 -6.43325e+08)
(1.86836e+10 1.08133e+10 -1.72774e+09)
(2.06141e+10 1.22748e+10 -1.28749e+09)
(1.25986e+10 1.16796e+10 -6.66122e+08)
(1.25428e+10 1.04042e+10 1.41056e+08)
(1.37679e+10 8.43631e+09 1.06156e+09)
(1.49627e+10 1.03366e+10 1.38457e+09)
(1.5883e+10 1.13604e+10 4.44198e+09)
(1.81523e+10 5.36474e+09 -8.69262e+08)
(1.78959e+10 4.679e+09 -1.23315e+09)
(1.99658e+10 6.31262e+09 -2.56605e+09)
(2.07679e+10 5.53523e+09 -6.31804e+08)
(2.30181e+10 9.64558e+09 -2.71047e+09)
(1.62211e+10 8.80004e+09 -2.46168e+09)
(1.55566e+10 6.99383e+09 -1.03619e+09)
(1.22437e+10 6.29124e+09 1.95605e+09)
(1.40544e+10 1.23836e+10 4.21282e+09)
(1.89855e+10 5.24454e+09 -1.65293e+09)
(1.93688e+10 2.91094e+09 -2.02982e+09)
(2.1194e+10 3.86718e+09 -3.18118e+09)
(2.12702e+10 1.77838e+08 6.37245e+08)
(2.10161e+10 8.53225e+09 -3.57536e+09)
(2.30433e+10 1.8069e+09 1.45076e+09)
(1.15959e+10 1.44857e+09 1.84199e+08)
(9.50344e+09 1.10938e+09 -3.94481e+08)
(1.25088e+10 2.10742e+09 3.41319e+07)
(1.77259e+10 1.06718e+09 -2.55955e+09)
(2.02557e+10 1.7739e+09 -3.49598e+09)
(2.23794e+10 1.95064e+09 -3.51935e+09)
(2.30517e+10 -2.82973e+09 7.22002e+08)
(2.26321e+10 8.15911e+09 -4.05529e+09)
(2.6469e+10 -2.92841e+09 1.92374e+09)
(2.63e+10 5.53294e+09 -2.11733e+09)
(9.27802e+09 1.02271e+10 1.22175e+09)
(1.08075e+10 1.08665e+10 6.74799e+08)
(1.31866e+10 1.12338e+10 1.65698e+09)
(1.83716e+10 2.38829e+10 2.32487e+09)
(1.98272e+10 1.95997e+10 1.99134e+09)
(1.41009e+10 1.18264e+10 8.05054e+08)
(1.37468e+10 9.14518e+09 2.23391e+09)
(1.75647e+10 1.04804e+10 1.45724e+08)
(1.99661e+10 1.41377e+10 -1.85526e+09)
(2.24464e+10 1.62188e+10 -4.64011e+09)
(9.44389e+09 8.5647e+09 5.53264e+08)
(1.17058e+10 8.51759e+09 1.3551e+09)
(1.44141e+10 8.2177e+09 2.59915e+08)
(2.21833e+10 -2.80209e+09 5.58831e+08)
(8.02997e+09 5.03882e+10 -1.34202e+09)
(2.747e+10 2.15682e+10 3.4915e+09)
(2.3526e+10 5.58443e+09 7.89215e+08)
(2.34081e+10 7.0307e+09 -1.5387e+09)
(2.52476e+10 9.31967e+09 -3.93497e+09)
(2.70271e+10 1.06094e+10 -2.1891e+09)
(1.34124e+10 3.11994e+09 4.85924e+08)
(1.6496e+10 -1.50271e+07 3.32193e+09)
(1.66565e+10 -2.73675e+09 6.7106e+09)
(1.31183e+10 1.24915e+10 -5.02286e+09)
(1.62489e+10 2.09468e+10 -4.02927e+09)
(2.686e+10 5.0737e+09 1.65097e+09)
(2.57428e+10 4.35941e+09 4.97122e+08)
(2.63647e+10 5.06336e+09 -1.34098e+09)
(2.74591e+10 4.07181e+09 -1.865e+08)
(2.95821e+10 8.94027e+09 -3.50194e+09)
(2.33267e+10 7.81534e+08 7.89761e+09)
(1.96563e+10 6.81154e+08 1.93817e+10)
(1.32846e+10 8.13557e+09 -1.44274e+10)
(1.92465e+10 1.19856e+09 -8.14651e+09)
(1.95227e+10 -1.13093e+09 2.02062e+09)
(2.26131e+10 1.36701e+09 2.64729e+09)
(2.54622e+10 1.88224e+09 -5.94879e+08)
(2.67196e+10 1.96667e+08 5.39109e+08)
(2.81953e+10 5.96287e+09 -2.72465e+09)
(3.20955e+10 -4.58026e+08 1.24545e+09)
(1.03243e+10 7.80974e+09 -3.5778e+08)
(1.07717e+10 8.68318e+09 8.59907e+08)
(1.18814e+10 9.67293e+09 -3.16992e+08)
(1.28986e+10 1.27109e+10 1.873e+09)
(1.36688e+10 1.60993e+10 -2.90174e+08)
(2.22385e+10 1.15748e+10 -3.92239e+08)
(2.65191e+10 4.67666e+09 -6.08879e+09)
(2.59313e+10 4.41327e+09 -6.44235e+09)
(4.62159e+10 2.02205e+10 -2.10733e+09)
(-1.52569e+08 4.15036e+10 1.4737e+10)
(1.19797e+10 5.96101e+09 1.62833e+09)
(1.37802e+10 6.52955e+09 2.07396e+08)
(1.50227e+10 6.6216e+09 9.6031e+08)
(2.26749e+10 6.27806e+09 -3.54639e+09)
(1.70723e+10 2.49906e+09 1.34986e+09)
(3.84537e+10 -2.40509e+09 4.4876e+08)
(3.77506e+10 1.09663e+10 -8.53567e+09)
(1.79809e+10 2.78745e+10 6.73485e+08)
(-1.19994e+09 2.0878e+10 1.78197e+10)
(3.0057e+10 2.01612e+10 1.10992e+09)
(1.2969e+10 2.74641e+09 4.40944e+07)
(1.51079e+10 3.70784e+09 2.22544e+09)
(1.6756e+10 5.58968e+09 3.69162e+09)
(2.08147e+10 -5.28318e+09 2.29495e+09)
(3.39122e+10 -1.03097e+10 -3.45824e+09)
(3.72465e+10 5.12584e+09 2.21016e+09)
(-1.1211e+10 3.41004e+10 1.08263e+10)
(3.40848e+10 1.35118e+10 1.74461e+09)
(2.93655e+10 8.90796e+09 2.14079e+08)
(2.85815e+10 7.81986e+09 5.64353e+08)
(1.2149e+10 9.78193e+08 2.14345e+09)
(1.54174e+10 6.65129e+08 1.14009e+09)
(1.12403e+10 1.99713e+08 4.8538e+09)
(5.65661e+10 -2.78663e+10 2.11105e+10)
(-4.55874e+10 4.60337e+08 -8.68668e+09)
(1.47355e+10 2.21648e+10 -1.52122e+10)
(2.95188e+10 7.84541e+09 -4.57486e+07)
(2.59382e+10 1.21718e+09 8.67945e+08)
(2.69188e+10 1.15154e+09 1.77452e+09)
(2.81387e+10 4.98558e+09 -1.25375e+09)
(9.73773e+09 8.03142e+09 1.18764e+09)
(1.06005e+10 9.73221e+09 -3.86151e+08)
(1.11113e+10 1.22241e+10 1.29855e+09)
(1.27587e+10 1.32701e+10 -8.87169e+08)
(1.46842e+10 1.35499e+10 -7.0803e+08)
(1.89141e+10 1.74757e+10 -2.0517e+09)
(2.40249e+10 1.71518e+10 -1.98821e+08)
(2.79689e+10 1.85737e+10 4.64702e+08)
(3.37321e+10 2.55153e+10 3.29299e+09)
(4.17202e+10 2.84954e+10 2.76466e+09)
(1.1041e+10 6.81595e+09 -3.97811e+08)
(1.19154e+10 9.25402e+09 1.61239e+09)
(1.28487e+10 8.52578e+09 -8.57784e+08)
(1.2445e+10 6.84129e+09 2.75843e+08)
(1.50808e+10 6.67196e+09 2.69443e+07)
(1.84354e+10 8.53479e+09 8.00158e+08)
(2.17696e+10 9.36818e+09 2.33461e+09)
(2.44061e+10 1.18212e+10 3.88706e+09)
(3.07009e+10 1.61597e+10 1.82411e+09)
(3.54167e+10 1.86288e+10 1.3801e+09)
(1.27361e+10 3.60187e+09 1.23771e+09)
(1.71836e+10 -1.04266e+09 -6.60756e+08)
(1.58045e+10 1.63167e+10 7.35761e+09)
(2.65707e+10 1.06953e+10 -5.62389e+08)
(2.21302e+10 4.94229e+09 -1.40546e+08)
(2.18163e+10 4.63439e+09 2.29866e+09)
(2.48254e+10 5.71907e+09 3.81562e+09)
(2.9597e+10 8.03011e+09 1.32666e+09)
(3.22233e+10 9.5737e+09 2.20069e+09)
(3.71176e+10 1.3164e+10 3.63002e+08)
(1.62404e+10 1.27089e+09 -1.45071e+08)
(1.6225e+10 1.27028e+09 3.16094e+09)
(1.80696e+10 -4.02266e+08 -9.95879e+08)
(2.17326e+10 1.63054e+09 4.32604e+08)
(2.87192e+10 4.65897e+09 4.64762e+09)
(3.04616e+10 2.63901e+09 3.52632e+08)
(3.1452e+10 2.17899e+09 -6.08264e+07)
(3.46974e+10 2.96652e+09 1.3345e+09)
(3.91622e+10 4.60675e+09 6.91831e+08)
(4.38854e+10 5.16238e+08 4.40326e+09)
)
;

boundaryField
{
    inlet
    {
        type            fixedValue;
        value           nonuniform 0();
    }
    outlet
    {
        type            zeroGradient;
    }
    bottom
    {
        type            fixedValue;
        value           uniform (0 0 0);
    }
    top
    {
        type            symmetryPlane;
    }
    side1
    {
        type            symmetryPlane;
    }
    side2
    {
        type            symmetryPlane;
    }
    procBoundary26to18
    {
        type            processor;
        value           nonuniform List<vector> 
50
(
(5.4921e+09 9.32453e+09 4.72865e+08)
(6.494e+09 1.0501e+10 -4.43719e+08)
(7.15116e+09 1.40732e+10 -9.07446e+07)
(1.02193e+10 1.36492e+10 -1.14372e+09)
(1.17028e+10 1.05161e+10 1.36312e+08)
(1.1709e+10 1.05826e+10 6.75894e+08)
(1.27672e+10 1.08349e+10 -4.30761e+08)
(1.35411e+10 1.23956e+10 5.38429e+08)
(1.55873e+10 1.46899e+10 -2.61663e+08)
(1.75341e+10 1.62865e+10 -2.27156e+07)
(2.03005e+09 1.61954e+10 9.28026e+08)
(1.21594e+08 3.39349e+10 5.21747e+09)
(1.09194e+10 1.73991e+10 2.54203e+09)
(1.12157e+10 1.21404e+10 1.98051e+09)
(1.0583e+10 1.13242e+10 1.78344e+09)
(1.13813e+10 1.0959e+10 4.02739e+07)
(1.22998e+10 1.16665e+10 5.32303e+08)
(1.40072e+10 1.22974e+10 -7.04857e+08)
(1.55106e+10 1.46737e+10 1.0573e+08)
(1.7666e+10 1.70612e+10 -1.03217e+09)
(8.67869e+09 8.40089e+09 6.48609e+07)
(9.74371e+09 1.23535e+10 1.0085e+09)
(9.73049e+09 1.94541e+10 3.34212e+09)
(1.17525e+10 2.43262e+10 4.05112e+09)
(1.21043e+10 1.94382e+10 1.60234e+09)
(1.16255e+10 1.52493e+10 1.6543e+09)
(1.29595e+10 1.38075e+10 5.6532e+08)
(1.42306e+10 1.5218e+10 1.10534e+09)
(1.61185e+10 1.78547e+10 -3.46802e+08)
(1.7365e+10 2.09348e+10 -1.81536e+08)
(8.31026e+09 9.04337e+09 9.3935e+06)
(8.54952e+09 9.69018e+09 -3.11178e+08)
(9.31688e+09 1.20717e+10 1.05029e+09)
(1.09893e+10 1.45343e+10 1.10676e+09)
(1.14668e+10 1.73133e+10 2.97784e+09)
(1.31876e+10 1.54675e+10 8.5458e+08)
(1.64489e+10 1.75559e+10 1.36193e+09)
(1.24824e+10 1.98739e+10 2.19038e+08)
(1.7815e+10 2.09977e+10 6.63428e+08)
(2.02341e+10 2.95071e+10 -1.60189e+08)
(8.69059e+09 8.69654e+09 -6.15381e+07)
(8.77314e+09 1.07909e+10 6.24752e+08)
(9.86905e+09 1.37189e+10 -1.68439e+08)
(1.17503e+10 1.58112e+10 1.56294e+09)
(1.39432e+10 2.09142e+10 6.52772e+08)
(1.86898e+10 3.37298e+10 1.33402e+09)
(2.61449e+10 2.60673e+10 -1.00922e+09)
(2.83407e+10 2.39084e+10 2.59376e+08)
(2.71859e+10 3.34931e+10 -3.06885e+08)
(3.05236e+10 3.06905e+10 -5.76113e+08)
)
;
    }
    procBoundary26to25
    {
        type            processor;
        value           nonuniform List<vector> 
20
(
(7.92951e+09 6.82195e+09 8.33911e+07)
(9.70037e+09 2.82594e+09 -7.63899e+08)
(9.9635e+09 2.27968e+09 -4.10976e+09)
(9.91391e+09 1.25197e+09 1.42965e+08)
(5.90088e+09 1.53861e+10 1.7546e+09)
(9.22403e+09 9.97865e+09 -2.60524e+09)
(1.20495e+10 5.67862e+09 7.39317e+07)
(1.06802e+10 4.78997e+08 2.77888e+08)
(8.85825e+09 6.6411e+09 -7.8841e+07)
(1.03832e+10 6.44546e+09 1.15543e+09)
(1.16934e+10 3.92683e+09 -8.74221e+08)
(1.82757e+10 3.19876e+09 2.61343e+09)
(9.20295e+09 8.05273e+09 5.4516e+08)
(1.10188e+10 5.57497e+09 -5.39092e+08)
(1.11904e+10 3.05902e+09 6.04502e+08)
(1.16409e+10 1.39236e+09 -2.02892e+08)
(9.02515e+09 7.02763e+09 -5.30846e+08)
(9.65202e+09 5.31534e+09 1.48157e+09)
(1.0779e+10 3.24316e+09 -4.25431e+08)
(1.519e+10 1.82277e+09 7.26589e+08)
)
;
    }
    procBoundary26to27
    {
        type            processor;
        value           nonuniform List<vector> 
20
(
(2.21703e+10 1.25532e+10 -1.05382e+08)
(2.48615e+10 1.02813e+10 -1.27879e+09)
(2.98367e+10 2.61577e+09 2.87577e+09)
(3.89004e+10 5.53863e+09 3.79733e+08)
(2.39388e+10 1.49433e+10 -2.53655e+09)
(2.51175e+10 8.27528e+09 -8.39909e+08)
(2.43193e+10 7.48905e+09 -1.74463e+09)
(2.95745e+10 -2.07575e+09 2.82359e+09)
(2.50555e+10 1.8898e+10 -3.24632e+09)
(2.98441e+10 1.41241e+10 -3.82709e+09)
(3.26043e+10 6.30723e+09 -6.20254e+08)
(3.43677e+10 5.13631e+09 -2.98856e+09)
(2.74063e+10 2.69626e+10 6.58448e+08)
(3.09579e+10 1.65825e+10 -1.65737e+09)
(3.01389e+10 9.63881e+09 -1.74746e+09)
(3.13487e+10 1.39911e+09 1.10135e+09)
(4.84026e+10 2.77862e+10 1.89113e+09)
(4.04033e+10 2.30723e+10 -2.06714e+08)
(4.22353e+10 1.00809e+10 4.58143e+09)
(4.77698e+10 9.54455e+09 -2.30471e+09)
)
;
    }
}


// ************************************************************************* //
