/*--------------------------------*- C++ -*----------------------------------*\
| =========                 |                                                 |
| \\      /  F ield         | OpenFOAM: The Open Source CFD Toolbox           |
|  \\    /   O peration     | Version:  2.4.0                                 |
|   \\  /    A nd           | Web:      www.OpenFOAM.org                      |
|    \\/     M anipulation  |                                                 |
\*---------------------------------------------------------------------------*/
FoamFile
{
    version     2.0;
    format      ascii;
    class       volVectorField;
    location    "0.06";
    object      U;
}
// * * * * * * * * * * * * * * * * * * * * * * * * * * * * * * * * * * * * * //

dimensions      [0 1 -1 0 0 0 0];

internalField   nonuniform List<vector> 
200
(
(-8138.36 9856.53 -1554.21)
(-9339.28 22103.4 -710.749)
(-9812.92 20589.8 4696.1)
(-7855.2 15373.3 6989.54)
(-6985.18 13987.9 395.306)
(-4170.77 17054.7 -1237.34)
(-2361.96 16740.6 -2749.47)
(-1107.9 14456.8 -11401.6)
(3499.99 21031.9 1710.95)
(-9911.99 25625.4 -4948.36)
(3737.17 13784.5 -2057.16)
(1509.63 19151.9 -1531.18)
(7741.13 12852.8 2516.17)
(4369.09 13680.6 3777.21)
(4843.06 15558.1 1990.72)
(1076.24 13281.5 4200.2)
(4199.46 17281.3 5588.96)
(3931.55 13694.5 2796.69)
(130.545 36235.2 5896.04)
(1054.38 20535.2 7474.22)
(10573.4 16396.4 -965.789)
(14058 11401.5 1712.87)
(14437.1 9865.34 4154.57)
(13229.1 13624.7 3328.82)
(13237.8 11604.9 3027.36)
(13023.2 14948 4160.34)
(11612.1 16268.6 4048.08)
(8034.59 11689.1 -1483.02)
(5954.98 18273.8 3919.39)
(5496.6 33916.6 8062.49)
(16393.1 10955.6 -9573.96)
(20519.7 9027.03 7530.93)
(16854.7 10320.8 3051.21)
(17189.1 9938.33 1648.21)
(16046.3 10350 3205.43)
(18010 15105.9 8695.51)
(13680.7 9576.49 -10436.2)
(16590.3 17799.6 1579.09)
(19227 17550 7174.53)
(20338.6 12916.6 3191.39)
(3625.71 13795.4 132.649)
(2177.44 14282.4 343.861)
(874.987 15156.1 2554.91)
(1065.38 17409.7 -1645.03)
(-2161.56 12763 -756.643)
(568.04 12347.2 -592.551)
(-5641.36 13368 -3385.44)
(714.042 14175.8 -3574.49)
(-8864.21 14002.4 -79.571)
(-1744.46 -7154.79 7173.25)
(10614.9 14480.3 1423.03)
(8976.85 13822.5 2785.77)
(6927.7 16378.5 3189.18)
(4545.2 19312.5 5217.32)
(8223.41 13730.2 3416.6)
(7334.74 14842.7 2784.02)
(8595.2 14001.9 1296.9)
(5185.83 14833.4 3875.47)
(8677.98 13995.9 3296.33)
(3383.66 20573 6644)
(11998.9 10119.9 1576.97)
(4682.46 24997 2457.72)
(9065.77 15327.9 5380.84)
(15135.5 9255.09 4903.34)
(13921.6 15252.8 4497.28)
(12649.1 15729.7 851.614)
(11061.1 20662.3 15001.7)
(9557.23 20110.9 9816.76)
(9145.24 18794.6 2927.12)
(10231.4 14846.7 4883.67)
(1862.74 39800.5 1111.2)
(16673.8 6489.69 2585.3)
(19608.1 3962.19 3404.67)
(18371.4 12277 3249.34)
(18463.7 17575.9 2906.53)
(16669.5 17329.7 7131.81)
(21820.2 22277.8 18711.7)
(14375.5 15141.8 -6833.57)
(15412.1 16254.4 1392.6)
(15292.5 31492.9 -5116.64)
(3685.5 16000.4 5260.65)
(336.564 14349.9 4230.05)
(1951.38 14473.3 6225.58)
(-497.229 18047.4 4293.66)
(3164.77 17562.7 3374.09)
(-3121.51 14277.6 3383.82)
(-1078.63 14762.5 -568.085)
(-3031.25 22685 -113.573)
(5470.77 15575.5 -1170.46)
(-3056.01 18046.7 -70.0745)
(4013.68 10506.3 1848.48)
(9092.17 15128.9 5353.75)
(2917.57 14872.5 7172.66)
(8007.47 14013.9 5418.39)
(3065.38 15623.5 4665.66)
(8423.63 16522.1 2732)
(3382.46 16970.4 3006.5)
(8461.22 15698.3 1175.65)
(6900.15 20403 971.585)
(12900.6 13338.7 1566.91)
(14547.4 10675.1 720.418)
(8592.22 10154 5715.21)
(10247.5 14727.9 6266.48)
(10151.8 13317.4 4071.34)
(12520.5 14004.2 2674.65)
(7819.37 17533.3 4235.28)
(12861.4 15570.9 2488.08)
(7858.85 19493.4 2250.53)
(15725.8 11531.8 1006.36)
(10616.3 20729.4 391.047)
(12412.1 10300.9 -791.7)
(11408.5 15304.3 -1370.96)
(15563.4 9949.56 -1066.29)
(17611.1 11261.4 799.767)
(17789.5 16015.1 8652.72)
(19602.2 11468.2 4184.07)
(11478.7 23520.5 24978.2)
(17096.7 13628.1 3133.53)
(12977.2 17479.5 -4483.01)
(19157.3 11020.4 142.474)
(-646.031 14792.3 6334.83)
(1872.76 27124.9 7562.51)
(-5663.65 11551.2 2094.25)
(750.692 16315.7 3868.72)
(-3757.13 16479.2 313.624)
(1751.52 19026.2 -898.112)
(-1449.34 20394.8 -736.368)
(4046.52 15356.8 -2307.75)
(-1070.1 18136.9 -1218.96)
(7603.35 14256.2 -2094.01)
(2310.44 17022.4 7220.22)
(1804.54 16681.9 7186.24)
(5312.95 30158.9 10974.8)
(-1198.52 10989.8 4585.54)
(3027.1 24788.9 6810.79)
(2381.4 19042.4 -533.873)
(9142.12 13365.7 -2003.84)
(5401.21 18096.6 -3105.11)
(13851.3 7054.21 -2637.34)
(8366.78 19892.2 -1088.93)
(-1539.44 19295.7 6056.27)
(2217.68 11567.7 12036)
(3585.46 20067.5 6746.95)
(5271.15 26488.8 8680.77)
(6735.42 16753.3 2865.01)
(15186.9 13338.3 851.058)
(9175.65 23039.1 -2408.2)
(16071.4 3004.49 -1162.93)
(11788 16316.4 -2673.37)
(20334.8 5404.95 -31.4045)
(12907.8 15517 -1502.44)
(1025.38 20100.8 5575.15)
(9988.96 19477.9 -4660.61)
(12542.2 12441.2 1294.97)
(19968.4 8982.92 2534.84)
(17606.1 15538.4 16284.4)
(24127.9 15575.6 -1437.47)
(14785.2 10504.3 -2109.06)
(19376.2 -1001.2 -759.315)
(16276.8 15604.8 -2561.34)
(-4684.59 15971.5 3758.66)
(-413.938 16708.4 2062.14)
(126.035 29320.7 6279.89)
(-377.289 14549.6 3549.63)
(2505.05 19848.8 1596.05)
(1699.64 18005.7 334.262)
(5965.83 18998.7 697.622)
(3533.83 19510 831.848)
(6837.79 19903.6 486.372)
(5790.48 22787.6 -788.131)
(-8352.98 33745.2 3659.34)
(-2855.33 12190.8 3551.37)
(-1016.81 17384 611.286)
(3912.56 18624.5 2000.91)
(1035.79 15228.4 -616.758)
(8230.68 9259.33 -3328.04)
(3636.07 17233.8 -2889.54)
(12786.4 11589.1 -1313.69)
(6612.81 21207 -393.188)
(14030.2 19570.4 793.799)
(6140.66 17954 3061.29)
(-2995.47 21636.1 2280.73)
(4199.29 12715.9 2331.63)
(127.62 20695.1 -265.247)
(12402.2 4018.76 231.128)
(4237.96 10929.1 -1207.16)
(15910.2 -4167.82 -4001.87)
(8104.46 15945.3 -2236.66)
(19798.9 10100.3 468.911)
(12889.8 22704.3 1225.35)
(-658.269 22244.5 -872.122)
(11263.7 14850.8 -195.421)
(4233.7 19688.6 1744.38)
(14972.2 8458.35 1760.98)
(8740.37 12465 1425.58)
(17260.6 -1689.71 203.586)
(11405.8 4849.66 -2166.87)
(20387.9 -3068.81 -2654.37)
(12745.8 13961.2 -2106.86)
(29331.8 10551.4 2682.07)
)
;

boundaryField
{
    inlet
    {
        type            calculated;
        value           nonuniform 0();
    }
    outlet
    {
        type            calculated;
        value           nonuniform 0();
    }
    bottom
    {
        type            calculated;
        value           uniform (0 0 0);
    }
    top
    {
        type            symmetryPlane;
    }
    side1
    {
        type            symmetryPlane;
    }
    side2
    {
        type            symmetryPlane;
    }
    procBoundary18to10
    {
        type            processor;
        value           nonuniform List<vector> 
50
(
(-6505.38 15214.2 -622.221)
(-7159.54 9618.67 10269.6)
(-15965.2 17969.7 23862.8)
(-14834.5 15909.8 -2271.75)
(-14375 18647.9 1793.69)
(-17721.9 30160.2 -10274.6)
(-16284.6 7121.69 -56217.9)
(-7125.94 12418.3 1107.89)
(-16522.4 30523.6 -10145.8)
(-8537.95 18774.2 -3906.98)
(-1802.5 14723.6 432.544)
(-6943.88 14861.7 3595.13)
(653.975 13083.8 946.816)
(-6097.07 12693.9 3614.48)
(-3516.24 13707.3 270.785)
(-4519.56 12553.6 627.362)
(-9608.07 10662.7 -1841.54)
(-21743.9 15500 -9623.96)
(-10636.1 14435.3 -2836.08)
(-16375.5 20900 -3564.45)
(-2415.41 13819.3 2162.11)
(623.134 14514.2 7100.95)
(-2143.29 18458.3 4168)
(-41.0636 17251.7 3076.88)
(-7514.35 10705.2 4558.9)
(-7607.38 12287.3 1022.01)
(-9277.61 18479.6 1471.55)
(-6598.44 20300.6 -1289.18)
(-14888 21596.6 -2275.04)
(-4348.1 9523.75 515.877)
(-3313.87 23419.9 1732.62)
(-3119.38 12747.5 1375.92)
(-1495.95 17135.9 5647.59)
(-4457.8 15333 2871.41)
(61.5208 17919.6 2332.7)
(-5455.02 16407.3 3903.56)
(-4850.3 15877.5 2882.71)
(-7311.77 15527.3 3969.3)
(-5693.85 16164.3 318.511)
(-6872.7 20909.8 -1302.73)
(3356.44 11704.2 -2410.14)
(-29.7091 20083.1 2350.53)
(-599.162 13897.7 1774.55)
(605.808 19691.6 3647.51)
(153.537 18677 2343.74)
(3798.52 20882.7 1653.21)
(3006.39 15422.3 2882.26)
(3189.49 19492.7 1998.86)
(2946.43 21213.5 941.002)
(262.678 20578.8 794.185)
)
;
    }
    procBoundary18to17
    {
        type            processor;
        value           nonuniform List<vector> 
20
(
(-13391.2 14323.2 -4711.73)
(4263.25 12472.9 -142.639)
(14094.3 9332.86 2757.79)
(15330.2 10603 -372.382)
(3658.16 13586.3 -1420.02)
(9910.34 10629.5 -296.801)
(12759.1 11590.2 490.991)
(16233.9 8532.31 -3987.66)
(2767.35 9059.12 4065.19)
(10535.7 14809 561.885)
(7965.69 7181.83 -4193.33)
(14057.7 8047.86 -1622.93)
(-3270.55 32511.1 14636.9)
(-2204.66 32275 9717.68)
(11691.5 20752.9 1140.48)
(-488.441 12077.3 -4742.15)
(2244.35 10836.5 5986.2)
(2745.28 27325.3 5942.19)
(-12330.2 37668.1 -1768.28)
(8349.66 13411.7 -3295.28)
)
;
    }
    procBoundary18to19
    {
        type            processor;
        value           nonuniform List<vector> 
20
(
(716.054 15447.2 -1984.5)
(-334.701 24219.2 7558.85)
(3081.95 16907.1 7580.67)
(21929.4 25516.3 -48.6456)
(-1368.12 16540.6 3287.49)
(-2745.19 8757.6 12089.3)
(11512.7 30958.6 3758.79)
(18837.3 -2945.49 19102.7)
(3122.05 1812.84 7562.91)
(13348.7 23334.8 5781.35)
(17325.8 13481.6 5310.03)
(15296.1 23069.6 -2975.55)
(3388.68 21692.4 -554.276)
(16778.9 14324.2 1220.99)
(13848.4 21137.5 1241)
(20897.8 5230.33 2009.47)
(4896.44 20832.7 794.455)
(8488.54 25709.3 1807.14)
(22001 17260.2 4039.32)
(12484 29093.4 3973.34)
)
;
    }
    procBoundary18to26
    {
        type            processor;
        value           nonuniform List<vector> 
50
(
(19903.4 7745.66 2812.61)
(17085.4 9054.33 1470.71)
(19257.7 9574.89 1586.41)
(15101.5 8487.16 905.879)
(22737.2 10546.8 10421.2)
(9374.39 2939.24 -6250.89)
(20388.4 15542.2 -1756)
(22504.4 15746.5 3432.49)
(21212.2 6638.84 8111.64)
(23099.2 17574.5 -6002.94)
(14023.7 4707.22 1941.96)
(25526.2 5135.03 630.923)
(20988.6 8911.63 1013.85)
(22748.4 13027.7 2140.67)
(24041.9 14435.6 9478.93)
(18792.5 20757.3 11694.5)
(21140.6 -4193.64 -4469.42)
(-4540.24 44141.4 -22121.2)
(16365.4 30475.6 -1906.2)
(24664.4 6136.03 1006.55)
(15042.7 9106.34 -568.205)
(17148.7 6043.35 -3449.11)
(19772.2 8801.78 -4332.81)
(23435 11509.2 8412.58)
(26365.9 -6820.5 -9467.89)
(8826.61 47079.5 100802)
(21926.7 25878.6 16688.2)
(20092 11688.2 -9940.78)
(21807.5 10800.7 -10386)
(22078.1 16642.1 -2274.14)
(10584 15362.8 1631.55)
(12889.6 18901.4 -8916.25)
(18325.4 1915.42 -2052.59)
(21041.9 5119.65 2443.19)
(17017 14106.5 8467.31)
(22201.3 1543.66 -8578.03)
(18261.9 90430.1 -11409)
(38611.4 11690 6136.83)
(24049.4 7076.1 -2119.69)
(25960.2 5091.53 -2914.87)
(15019.3 11028.6 -623.586)
(11112.3 14814.2 2416.35)
(17244.1 10600.8 2955.08)
(12708 13059.4 2667.88)
(19847.1 5015.16 3131.18)
(15105.7 8339.99 1088.18)
(18003.7 -5250.16 3148.06)
(14893.6 -265.097 -1688.04)
(26046.1 -4807.06 -224.972)
(19454.6 20261.8 588.276)
)
;
    }
}


// ************************************************************************* //
