/*--------------------------------*- C++ -*----------------------------------*\
| =========                 |                                                 |
| \\      /  F ield         | OpenFOAM: The Open Source CFD Toolbox           |
|  \\    /   O peration     | Version:  2.4.0                                 |
|   \\  /    A nd           | Web:      www.OpenFOAM.org                      |
|    \\/     M anipulation  |                                                 |
\*---------------------------------------------------------------------------*/
FoamFile
{
    version     2.0;
    format      ascii;
    class       volScalarField;
    location    "0.07";
    object      p;
}
// * * * * * * * * * * * * * * * * * * * * * * * * * * * * * * * * * * * * * //

dimensions      [1 -1 -2 0 0 0 0];

internalField   nonuniform List<scalar> 
200
(
-6.24186e+11
-6.91326e+11
-6.03305e+11
-5.19133e+11
-5.05411e+11
-3.31536e+11
-3.74313e+11
-1.5267e+11
-2.79308e+11
-1.05827e+10
-4.92991e+11
-4.85898e+11
-4.42044e+11
-4.64545e+11
-3.40019e+11
-3.96939e+11
-2.07449e+11
-2.93215e+11
-4.84611e+10
-1.79715e+11
-4.25315e+11
-3.77366e+11
-4.03411e+11
-3.05292e+11
-3.64209e+11
-2.24146e+11
-2.93664e+11
-9.63204e+10
-1.72044e+11
4.14928e+10
-2.92338e+11
-3.00609e+11
-2.60798e+11
-2.95842e+11
-2.05224e+11
-2.60087e+11
-1.26466e+11
-1.77492e+11
-2.11537e+10
-7.21272e+10
-7.10882e+11
-6.9407e+11
-6.45557e+11
-5.76314e+11
-4.55037e+11
-4.53309e+11
-2.96457e+11
-3.90619e+11
-1.66713e+11
-3.10184e+11
-5.45227e+11
-5.48537e+11
-5.25984e+11
-4.63763e+11
-4.59122e+11
-3.37278e+11
-3.77164e+11
-2.02022e+11
-2.99207e+11
-7.08029e+10
-4.31824e+11
-4.49828e+11
-4.09173e+11
-3.97398e+11
-3.09252e+11
-2.85897e+11
-1.81556e+11
-2.12369e+11
-7.59917e+10
-1.65467e+11
-3.28045e+11
-3.02463e+11
-3.12331e+11
-2.51578e+11
-2.16355e+11
-1.45029e+11
-1.35113e+11
-7.89369e+10
-9.90497e+10
-1.20325e+10
-5.84464e+11
-6.25702e+11
-5.68077e+11
-5.25632e+11
-5.09725e+11
-4.37165e+11
-3.72664e+11
-2.18524e+11
-2.49323e+11
-8.90351e+10
-4.32386e+11
-5.07755e+11
-4.75869e+11
-4.5035e+11
-3.98146e+11
-3.55157e+11
-2.94608e+11
-2.17158e+11
-9.20282e+10
-9.59964e+10
-3.62929e+11
-3.45862e+11
-3.54191e+11
-3.01631e+11
-2.8203e+11
-2.66381e+11
-2.24492e+11
-9.99677e+10
-6.83167e+10
3.63827e+10
-2.49761e+11
-2.73073e+11
-2.49425e+11
-2.31006e+11
-1.82072e+11
-2.03861e+11
-1.08335e+11
-1.17748e+11
-3.29201e+10
-1.75314e+10
-4.56885e+11
-5.2431e+11
-6.47801e+11
-6.65255e+11
-6.61298e+11
-6.58274e+11
-5.64847e+11
-4.94319e+11
-3.5213e+11
-3.02253e+11
-4.41983e+11
-4.84163e+11
-4.77846e+11
-4.85769e+11
-4.82838e+11
-4.77068e+11
-4.39137e+11
-3.48259e+11
-2.92885e+11
-1.93143e+11
-3.82398e+11
-4.44627e+11
-4.69551e+11
-4.20312e+11
-3.86238e+11
-3.5835e+11
-3.38754e+11
-3.01998e+11
-2.28326e+11
-1.88949e+11
-2.79189e+11
-3.21605e+11
-3.64212e+11
-4.03887e+11
-3.49825e+11
-2.98131e+11
-2.68018e+11
-2.44321e+11
-2.17745e+11
-1.66647e+11
-2.92356e+11
-3.64851e+11
-3.01331e+11
-3.75002e+11
-3.9169e+11
-4.13376e+11
-4.3308e+11
-3.70461e+11
-3.33353e+11
-2.39543e+11
-2.06752e+11
-2.58215e+11
-3.45376e+11
-2.60266e+11
-3.02087e+11
-2.88178e+11
-3.04761e+11
-3.12431e+11
-2.45457e+11
-2.02339e+11
-1.33765e+11
-2.12783e+11
-2.60914e+11
-3.35596e+11
-2.63279e+11
-2.79876e+11
-2.56741e+11
-2.61161e+11
-2.4462e+11
-1.8674e+11
-7.72827e+10
-1.28523e+11
-2.00894e+11
-2.49027e+11
-3.15989e+11
-2.64436e+11
-2.73868e+11
-2.56897e+11
-2.51869e+11
-2.2387e+11
)
;

boundaryField
{
    inlet
    {
        type            zeroGradient;
    }
    outlet
    {
        type            fixedValue;
        value           nonuniform 0();
    }
    bottom
    {
        type            zeroGradient;
    }
    top
    {
        type            symmetryPlane;
    }
    side1
    {
        type            symmetryPlane;
    }
    side2
    {
        type            symmetryPlane;
    }
    procBoundary14to6
    {
        type            processor;
        value           nonuniform List<scalar> 
50
(
-1.17447e+12
-9.0526e+11
-8.63959e+11
-6.68951e+11
-5.0189e+11
-4.29203e+11
-2.21718e+11
-2.67095e+11
-6.12178e+10
-2.18189e+11
-1.14352e+12
-1.10092e+12
-8.14739e+11
-6.24424e+11
-5.28048e+11
-3.53333e+11
-3.89284e+11
-1.9507e+11
-3.22206e+11
-7.74803e+10
-1.1971e+12
-1.39371e+12
-9.16089e+11
-6.03171e+11
-5.95921e+11
-6.60925e+11
-4.04435e+11
-4.00446e+11
-1.81781e+11
-2.73748e+11
-5.72929e+11
-7.9975e+11
-8.27548e+11
-9.34411e+11
-9.46054e+11
-8.68503e+11
-8.42978e+11
-6.10702e+11
-5.07764e+11
-3.02885e+11
-4.30873e+11
-3.57976e+11
-4.87312e+11
-4.92023e+11
-5.4093e+11
-5.67524e+11
-4.40671e+11
-5.56901e+11
-5.08467e+11
-3.82216e+11
)
;
    }
    procBoundary14to13
    {
        type            processor;
        value           nonuniform List<scalar> 
20
(
-6.77116e+11
-4.07389e+11
-4.0315e+11
-3.15525e+11
-5.88452e+11
-5.14356e+11
-4.05466e+11
-2.66336e+11
-4.54625e+11
-4.34791e+11
-3.13362e+11
-2.40402e+11
-4.06703e+11
-3.53462e+11
-3.29075e+11
-2.25142e+11
-2.61452e+11
-1.32902e+11
-8.28682e+10
1.32003e+10
)
;
    }
    procBoundary14to15
    {
        type            processor;
        value           nonuniform List<scalar> 
20
(
-2.12176e+11
1.00489e+11
-6.40281e+10
8.08942e+10
-1.5983e+10
-2.06614e+11
2.47365e+10
-6.732e+10
-1.73666e+11
1.81198e+10
1.73326e+10
3.98474e+10
-1.84122e+11
-1.5668e+11
-1.14557e+11
-1.41455e+11
-1.96374e+11
-1.30688e+11
-1.47323e+11
-1.74147e+11
)
;
    }
    procBoundary14to22
    {
        type            processor;
        value           nonuniform List<scalar> 
50
(
-2.4273e+11
-2.19894e+11
-2.5629e+11
-2.14291e+11
-2.27131e+11
-1.74531e+11
-1.85818e+11
-9.94101e+10
-1.07097e+11
1.21497e+10
-2.01232e+11
-2.21871e+11
-2.03489e+11
-2.00622e+11
-1.68932e+11
-1.51717e+11
-1.14299e+11
-1.05924e+11
-7.26819e+10
-7.53177e+10
-1.72731e+11
-1.78951e+11
-1.85758e+11
-1.82918e+11
-1.89932e+11
-1.48409e+11
-1.38323e+11
-1.16014e+11
-9.38424e+10
-5.98469e+10
-1.78736e+11
-2.36485e+11
-2.67747e+11
-3.0742e+11
-3.38966e+11
-2.83871e+11
-2.67753e+11
-2.36861e+11
-2.10829e+11
-1.91906e+11
-8.9567e+09
-5.31771e+10
-1.05644e+11
-1.67234e+11
-2.14906e+11
-2.92073e+11
-2.57442e+11
-2.64208e+11
-2.54241e+11
-2.51037e+11
)
;
    }
}


// ************************************************************************* //
