/*--------------------------------*- C++ -*----------------------------------*\
| =========                 |                                                 |
| \\      /  F ield         | OpenFOAM: The Open Source CFD Toolbox           |
|  \\    /   O peration     | Version:  2.4.0                                 |
|   \\  /    A nd           | Web:      www.OpenFOAM.org                      |
|    \\/     M anipulation  |                                                 |
\*---------------------------------------------------------------------------*/
FoamFile
{
    version     2.0;
    format      ascii;
    class       volVectorField;
    location    "0.07";
    object      U;
}
// * * * * * * * * * * * * * * * * * * * * * * * * * * * * * * * * * * * * * //

dimensions      [0 1 -1 0 0 0 0];

internalField   nonuniform List<vector> 
200
(
(-408162 164306 628893)
(-581634 -2.26172e+06 17633.1)
(-554494 658030 221993)
(-851302 -2.89266e+06 198239)
(-796044 900224 -137549)
(-1.01439e+06 -2.98735e+06 -12033.2)
(-923415 1.10107e+06 -139182)
(-936843 -3.2066e+06 -252851)
(-960521 1.36686e+06 4442.03)
(-853426 -3.49964e+06 -384896)
(-312951 -1.75864e+06 34883.2)
(-260738 601313 232653)
(-632626 -2.38395e+06 167551)
(-541967 747393 -115080)
(-862858 -2.4553e+06 -24036.2)
(-713844 792588 -154156)
(-887601 -2.53857e+06 -301587)
(-781360 844273 -34092.5)
(-851782 -2.65135e+06 -491177)
(-834591 1.04097e+06 146920)
(8268.16 449716 172496)
(-418077 -1.85084e+06 83614.1)
(-257737 627107 -50220)
(-638344 -1.91799e+06 -36256.7)
(-461923 562605 -135060)
(-736064 -1.93569e+06 -287204)
(-553651 528779 -39915.7)
(-755696 -1.94996e+06 -482751)
(-627811 555318 127553)
(-727667 -2.03818e+06 -603819)
(177821 -661884 -65290.7)
(27540.3 488196 20961.1)
(-243277 -1.28885e+06 -57322.5)
(-142300 403706 -43156.3)
(-444141 -1.4101e+06 -249552)
(-285170 293772 -14215.3)
(-516830 -1.37556e+06 -375989)
(-375622 261471 120240)
(-532896 -1.41481e+06 -445813)
(-415608 249402 250126)
(-13456.2 -1.24817e+06 -439042)
(-235357 -22543.2 401485)
(-392238 -1.69685e+06 -511.125)
(-340439 502033 217784)
(-635456 -2.18333e+06 -29531.2)
(-567058 921070 62502.5)
(-804591 -2.46548e+06 -486295)
(-802059 1.09988e+06 185969)
(-905524 -2.76012e+06 -716850)
(-974409 1.48276e+06 448829)
(24636.1 191165 336624)
(114325 -1.02435e+06 -18501.8)
(-87941.8 262364 216879)
(-189355 -1.39346e+06 40800.2)
(-266949 539333 99598)
(-514714 -1.81757e+06 -331577)
(-475845 651037 129196)
(-713600 -2.02169e+06 -671311)
(-730798 792105 295029)
(-840213 -2.27043e+06 -885438)
(339921 -668552 -141932)
(169836 246396 181619)
(247873 -745679 -32194.3)
(45036.9 255627 122548)
(106704 -804382 -25580.4)
(-122401 343774 135799)
(-304157 -1.32036e+06 -370009)
(-376830 421539 217824)
(-563079 -1.56793e+06 -729102)
(-612922 492869 375478)
(508441 93770.8 7687.97)
(671551 -324612 -76070.3)
(454320 92506.5 44606.9)
(537724 -389947 -67665.9)
(348593 95352.8 80312.2)
(290977 -502527 -17423.9)
(84255.6 264999 122751)
(-119610 -913779 -347387)
(-250488 313934 284094)
(-407012 -1.12683e+06 -603214)
(254345 319439 244237)
(328707 -833417 -302879)
(192449 126726 266194)
(258640 -792145 -101289)
(145749 88860.9 351638)
(120300 -1.05612e+06 137030)
(-135193 233386 431546)
(-361867 -1.32121e+06 29731)
(-417606 534456 473647)
(-658737 -1.71787e+06 -543881)
(574692 -290518 -42561.9)
(457578 47049.4 214553)
(563431 -274391 29696.4)
(581113 66097.4 89767.3)
(456400 -770077 41600.4)
(446786 143553 238650)
(330252 -611989 106177)
(75108.9 87651.9 320769)
(-95242.1 -905060 -48622.4)
(-247316 343522 431837)
(703635 -15325.5 -27160.1)
(752142 -189587 -109133)
(707476 -60767.7 -4483.63)
(768391 -402735 -27205.5)
(691766 145709 87288.6)
(604170 -944279 96332)
(615520 746388 158488)
(478226 -366374 84332.4)
(374819 27674 230453)
(141388 -621400 -29397)
(820505 -167902 -144959)
(665178 -55065 -110305)
(903512 -221793 -10164.5)
(649766 -53721.9 -54934.2)
(832840 -476666 52521.7)
(621571 282323 50820.2)
(653915 -317038 42669)
(705818 -50210.2 75372.5)
(592750 -179224 40899.2)
(441297 173793 142400)
(274118 -171855 -306924)
(322521 576354 33247.2)
(72990.9 -64408.4 -482376)
(117962 222563 1111.22)
(76777.2 -397188 -396755)
(9920.65 42735 212927)
(-274464 -820799 -20572.7)
(-234652 110545 339270)
(-445323 -1.05117e+06 -15106.3)
(-314929 349799 351209)
(447131 439670 -42751.1)
(474483 132708 -112308)
(484827 366969 -90297.2)
(402140 -85014.3 -162777)
(385876 213318 153519)
(329263 -245246 -93359.9)
(250987 87365.9 120560)
(92520.4 -415422 52749)
(86109.3 132961 304291)
(-159558 -675481 6743.58)
(601205 250070 -135417)
(643032 382938 -209335)
(584222 157282 -68265.2)
(577975 343481 1715.84)
(500449 41746 -15806.1)
(518245 462106 -24235.2)
(440884 38710.2 22681.2)
(491756 156729 141317)
(317056 -90739.9 105395)
(340847 238148 257814)
(649581 369937 -262242)
(559723 232182 -167110)
(675922 372719 -163109)
(572773 203005 -115779)
(677212 310458 -134722)
(613090 130615 -65133)
(702706 213274 21509.5)
(578569 156170 51648.2)
(604869 247108 96030.2)
(464881 76042.1 163784)
(-466685 1.15952e+06 688921)
(-459384 349089 -409695)
(-285979 1.00949e+06 339662)
(-506098 836833 -377791)
(-417504 556991 84196.3)
(-439059 834574 60436.6)
(-366747 526322 267044)
(-386989 -424244 234805)
(-480017 287945 353480)
(-738159 -780118 -15529.9)
(-247111 342242 90480.7)
(-281479 1.08675e+06 723609)
(-294036 359017 -342324)
(-123277 834976 367237)
(-358546 675764 -348325)
(-176283 473316 136460)
(-361130 553453 20929.3)
(-198027 401711 253698)
(-522268 -318467 128696)
(-306224 442054 293645)
(-147002 1.17184e+06 -41805.7)
(-93688.3 448876 78404.5)
(-157312 1.02049e+06 740072)
(-164457 401414 -253174)
(8607.97 789810 332183)
(-243611 581669 -260644)
(-45742 476168 191858)
(-312331 403430 20514.9)
(-81658.8 432049 245600)
(-433892 -176026 106447)
(86184.4 151117 -28849.3)
(-21466.1 1.16374e+06 -25493.2)
(20361.4 520132 83658.2)
(-47679.8 962381 736227)
(-39050.9 427435 -173883)
(89726.1 699660 370563)
(-144084 550305 -173911)
(68258.1 527867 252649)
(-159067 356436 31406.5)
(63801.5 508069 267733)
)
;

boundaryField
{
    inlet
    {
        type            calculated;
        value           nonuniform 0();
    }
    outlet
    {
        type            calculated;
        value           nonuniform 0();
    }
    bottom
    {
        type            calculated;
        value           uniform (0 0 0);
    }
    top
    {
        type            symmetryPlane;
    }
    side1
    {
        type            symmetryPlane;
    }
    side2
    {
        type            symmetryPlane;
    }
    procBoundary14to6
    {
        type            processor;
        value           nonuniform List<vector> 
50
(
(-553227 -1.63509e+06 -359366)
(-740659 88809.9 583264)
(-904359 -2.58279e+06 14493.6)
(-851361 770086 203535)
(-1.05379e+06 -3.3031e+06 230124)
(-1.01407e+06 1.15943e+06 -113791)
(-1.09675e+06 -3.45564e+06 27688.7)
(-1.07206e+06 1.5896e+06 -78362.3)
(-919044 -3.90025e+06 -176118)
(-1.05134e+06 2.20473e+06 105621)
(-830582 -318563 868311)
(-561086 -1.67345e+06 -98219.9)
(-587809 128522 407274)
(-793089 -2.32619e+06 95474.7)
(-606147 879329 194450)
(-924150 -2.73778e+06 -63641.7)
(-876172 1.36921e+06 87318.5)
(-975379 -3.13309e+06 -448300)
(-1.04096e+06 1.82339e+06 318598)
(-964915 -3.69596e+06 -618721)
(207346 -562772 -543401)
(-45880.6 148290 250176)
(-103375 -294290 -522207)
(-188239 101002 345915)
(-466972 -1.45286e+06 181335)
(-297024 328804 500267)
(-612631 -1.73349e+06 247566)
(-620378 818029 522718)
(-805788 -2.10111e+06 -269541)
(-746646 1.07758e+06 588787)
(142757 965706 310.703)
(-431293 235390 -687302)
(-466449 -555121 -471712)
(-275725 -168184 -339111)
(-255409 86332.6 353196)
(-530117 -1.92886e+06 157990)
(-378712 72553.8 377069)
(-692636 -1.39783e+06 77836.6)
(-540936 514653 431838)
(-764211 -1.38398e+06 -189391)
(-664825 378689 -399299)
(-501914 1.24911e+06 352165)
(-712078 1.03914e+06 -321090)
(-697632 647045 95500.7)
(-536058 1.22305e+06 234631)
(-608495 629271 273310)
(-32842.7 98685.1 386883)
(-987295 240372 983270)
(-766083 -1.46656e+06 67882.8)
(-715498 655422 490408)
)
;
    }
    procBoundary14to13
    {
        type            processor;
        value           nonuniform List<vector> 
20
(
(-34841 -1.08005e+06 -418776)
(-166655 323072 477233)
(-79561 -1.2434e+06 -49370.6)
(280036 244201 41330.3)
(-321419 845526 926618)
(257884 -760262 -282958)
(153358 458758 124219)
(668763 -343316 -202334)
(527629 -482392 -290076)
(411979 254769 60896.2)
(717028 -105807 -184599)
(678311 -21040 -136057)
(189474 446128 -5016.93)
(580899 74494.4 -76552.1)
(585676 452072 -219027)
(564880 240496 -198605)
(-474755 172799 128705)
(-328668 1.14591e+06 -33400)
(-15927.2 20358.9 -18171.8)
(-63470.2 1.2595e+06 -139343)
)
;
    }
    procBoundary14to15
    {
        type            processor;
        value           nonuniform List<vector> 
20
(
(-975188 1.88816e+06 199474)
(-805609 -2.85779e+06 -532983)
(-667095 638002 269740)
(-515006 -1.44476e+06 -499031)
(-934439 -3.2172e+06 -831751)
(-874509 1.04057e+06 521240)
(-754620 -1.69575e+06 -899866)
(-472436 267059 383775)
(-608840 719753 565485)
(-478949 -1.27373e+06 -586272)
(-22106.6 279137 377132)
(289109 -394960 -28851.4)
(-563711 -1.06305e+06 -284188)
(-79451.2 277914 338526)
(118730 -335609 89929)
(527611 257350 207745)
(-483353 685843 436361)
(-596010 -496260 -14980.4)
(-161674 506226 299787)
(-245024 68499.8 99681.9)
)
;
    }
    procBoundary14to22
    {
        type            processor;
        value           nonuniform List<vector> 
50
(
(450107 214592 67564.1)
(321160 -504161 -43722.5)
(265309 359300 48078.2)
(133070 -779086 -115131)
(73105.7 179844 73668.5)
(-77686.8 -948939 -294538)
(-77112.3 18658.8 136603)
(-183886 -939048 -466278)
(-112217 -121144 232401)
(-217075 -1.02308e+06 -126755)
(860386 -185687 30848)
(538728 109830 -10122.4)
(825740 -175613 42007.1)
(477623 141192 7796.73)
(647217 -213067 66335.2)
(374804 219193 78242)
(373525 -289425 22394.3)
(188236 443418 166158)
(-6827.58 -555191 -174500)
(-109160 304645 308561)
(540666 -24178.1 -117782)
(999006 -194291 78818.4)
(511899 -60925.6 -62382.7)
(1.03066e+06 -164223 247419)
(477204 -26586.1 25856.5)
(927225 -143798 332569)
(530138 85816.1 14386.1)
(771110 -46606.5 262635)
(446026 192634 83605.3)
(607713 -98464.3 174882)
(519741 280152 -321443)
(686543 306905 -231532)
(716869 69890.7 -194683)
(775374 174118 -206798)
(792107 89138.4 -58526.5)
(805466 210298 -102812)
(735965 274853 66642.5)
(766266 237378 -82791.7)
(658729 304597 139543)
(719297 203852 3154.02)
(50741.5 1.0895e+06 -50473.6)
(107592 276336 -4744.81)
(71880.1 1.1405e+06 3074.09)
(120211 554183 83365.4)
(82790.2 929860 570296)
(74218 479317 -74789.3)
(182299 680077 358663)
(7469.18 482379 -39307)
(203198 602309 305270)
(-19751.3 393678 88814.4)
)
;
    }
}


// ************************************************************************* //
