/*--------------------------------*- C++ -*----------------------------------*\
| =========                 |                                                 |
| \\      /  F ield         | OpenFOAM: The Open Source CFD Toolbox           |
|  \\    /   O peration     | Version:  2.4.0                                 |
|   \\  /    A nd           | Web:      www.OpenFOAM.org                      |
|    \\/     M anipulation  |                                                 |
\*---------------------------------------------------------------------------*/
FoamFile
{
    version     2.0;
    format      ascii;
    class       volScalarField;
    location    "0.12";
    object      nut;
}
// * * * * * * * * * * * * * * * * * * * * * * * * * * * * * * * * * * * * * //

dimensions      [0 2 -1 0 0 0 0];

internalField   nonuniform List<scalar> 
200
(
247968
232270
919167
833279
432630
508703
633124
750722
769001
1.13153e+06
181926
1.13596e+06
894157
550239
405385
516905
509557
553359
457088
842081
387547
565516
884552
414973
294440
364218
397833
463687
526080
597460
242643
437851
464719
368930
338369
319620
367821
431936
473748
541197
441167
344405
991154
1.26722e+06
221902
102209
386534
516681
694605
632395
301866
1.27202e+06
1.59596e+06
407379
625216
264496
390299
485806
555212
497192
1.33676e+06
1.16499e+06
526849
997624
282980
185810
218927
304446
358952
380358
716922
744943
912965
251308
156633
154559
192127
258806
320393
359521
150862
127124
124530
793485
1.11282e+06
260799
56418.3
290121
498886
283971
204182
201662
478119
963352
446074
509556
329160
405502
604846
439631
209138
461754
722221
256190
498415
243885
244801
260508
377182
360885
191932
476924
522267
216041
157560
232109
273094
309850
357325
404544
392515
802229
203687
403474
521722
478818
320507
303736
780085
634027
207127
478391
328152
162971
383838
364249
342218
597439
697468
348085
120623
282265
340849
231702
112787
247282
190408
333529
702832
391323
91980.2
156155
355086
349074
132307
324038
745773
720433
710516
263407
404642
549940
350421
152093
1.66324e+06
479425
254178
668462
331207
389260
600316
508673
464925
289219
1.16829e+06
640701
613430
471549
463924
422419
92548.6
310806
241756
170000
701300
854169
297328
227408
588496
284182
54329.4
187055
296831
296341
633428
822052
508939
469036
472582
384456
)
;

boundaryField
{
    inlet
    {
        type            calculated;
        value           nonuniform 0();
    }
    outlet
    {
        type            calculated;
        value           nonuniform 0();
    }
    bottom
    {
        type            calculated;
        value           nonuniform List<scalar> 
40
(
4.64876e-19
3.39075e-19
3.82456e-19
2.79479e-19
3.05194e-19
8.97729e-19
4.43604e-19
3.99504e-19
7.61105e-19
1.05555e-18
7.87337e-19
5.02098e-19
8.14036e-19
5.93864e-19
5.17306e-19
5.29962e-19
5.67666e-19
4.44307e-19
4.02452e-19
4.79861e-19
6.55039e-19
4.96012e-19
4.48992e-19
4.35154e-19
6.88465e-19
5.46498e-19
4.64569e-19
5.02406e-19
8.14361e-19
5.82583e-19
5.72843e-19
5.28962e-19
7.57635e-19
5.81441e-19
6.12903e-19
6.20204e-19
1.08112e-18
8.4567e-19
6.94171e-19
6.8395e-19
)
;
    }
    top
    {
        type            symmetryPlane;
    }
    side1
    {
        type            symmetryPlane;
    }
    side2
    {
        type            symmetryPlane;
    }
    procBoundary18to10
    {
        type            processor;
        value           nonuniform List<scalar> 
50
(
278624
298996
480508
716010
845311
716541
820210
728735
761697
944818
283123
94309.6
357878
449676
638000
494009
439269
635043
903964
436374
169084
191975
148372
401019
577403
734646
262177
522073
360301
143473
884207
342855
443647
195755
267576
536759
383901
133324
507853
797305
498022
477743
175320
83651.3
802940
533484
357596
340503
176750
78831.5
)
;
    }
    procBoundary18to17
    {
        type            processor;
        value           nonuniform List<scalar> 
20
(
451475
182769
265602
259553
618328
642838
88815.3
416975
216470
129359
283952
242658
224200
199331
95080.1
120083
625944
180867
705875
111511
)
;
    }
    procBoundary18to19
    {
        type            processor;
        value           nonuniform List<scalar> 
20
(
1.20825e+06
975708
789883
778509
571092
442833
374655
363091
576183
723394
685222
471885
618406
760011
487651
525237
373536
148152
52592.4
519986
)
;
    }
    procBoundary18to26
    {
        type            processor;
        value           nonuniform List<scalar> 
50
(
285260
336015
430253
417747
290554
311361
337735
442188
432759
594703
173946
760204
295581
175382
140180
182389
226359
238892
347746
338519
137886
135072
573366
1.01195e+06
494560
439104
361963
437854
419579
437425
120665
178049
279665
570628
499945
592987
276770
393795
2.50593e+06
1.73304e+06
130125
174649
236878
299924
452426
765665
481068
412603
642061
720580
)
;
    }
}


// ************************************************************************* //
