/*--------------------------------*- C++ -*----------------------------------*\
| =========                 |                                                 |
| \\      /  F ield         | OpenFOAM: The Open Source CFD Toolbox           |
|  \\    /   O peration     | Version:  2.4.0                                 |
|   \\  /    A nd           | Web:      www.OpenFOAM.org                      |
|    \\/     M anipulation  |                                                 |
\*---------------------------------------------------------------------------*/
FoamFile
{
    version     2.0;
    format      ascii;
    class       volVectorField;
    location    "0.16";
    object      A_Source;
}
// * * * * * * * * * * * * * * * * * * * * * * * * * * * * * * * * * * * * * //

dimensions      [1 -2 -2 0 0 0 0];

internalField   nonuniform List<vector> 
200
(
(-1.98055e-87 -2.28381e-88 -9.62177e-88)
(-9.1703e-90 -1.05701e-90 -4.45506e-90)
(-4.29454e-92 -4.94759e-93 -2.08635e-92)
(-2.02993e-94 -2.3373e-95 -9.86171e-95)
(-9.66443e-97 -1.1121e-97 -4.69512e-97)
(-4.62548e-99 -5.31918e-100 -2.24713e-99)
(-2.22168e-101 -2.5532e-102 -1.07932e-101)
(-1.06936e-103 -1.22812e-104 -5.19508e-104)
(-5.15188e-106 -5.91288e-107 -2.50286e-106)
(-2.48197e-108 -2.84676e-109 -1.20578e-108)
(-2.63135e-89 -3.04471e-90 -1.27835e-89)
(-1.23791e-91 -1.43195e-92 -6.01394e-92)
(-5.81895e-94 -6.72898e-95 -2.82693e-94)
(-2.73524e-96 -3.16195e-97 -1.32882e-96)
(-1.28645e-98 -1.48661e-99 -6.24977e-99)
(-6.05637e-101 -6.99597e-102 -2.94227e-101)
(-2.85465e-103 -3.29615e-104 -1.38683e-103)
(-1.34729e-105 -1.55497e-106 -6.54532e-106)
(-6.36704e-108 -7.34505e-109 -3.0932e-108)
(-3.01258e-110 -3.47361e-111 -1.46355e-110)
(-2.79364e-91 -3.24095e-92 -1.35719e-91)
(-1.34216e-93 -1.55663e-94 -6.52041e-94)
(-6.43163e-96 -7.45728e-97 -3.12458e-96)
(-3.07503e-98 -3.56442e-99 -1.4939e-98)
(-1.46733e-100 -1.70037e-101 -7.12849e-101)
(-6.99014e-103 -8.09801e-104 -3.39591e-103)
(-3.32545e-105 -3.85136e-106 -1.61555e-105)
(-1.58028e-107 -1.82963e-108 -7.67721e-108)
(-7.50301e-110 -8.68413e-111 -3.64507e-110)
(-3.55987e-112 -4.11888e-113 -1.72944e-112)
(-2.5622e-93 -2.97843e-94 -1.24475e-93)
(-1.25259e-95 -1.4557e-96 -6.08525e-96)
(-6.10717e-98 -7.09564e-99 -2.96695e-98)
(-2.96995e-100 -3.44978e-101 -1.44285e-100)
(-1.44075e-102 -1.6731e-103 -6.99938e-103)
(-6.97296e-105 -8.09544e-106 -3.38756e-105)
(-3.3674e-107 -3.90848e-108 -1.63593e-107)
(-1.62288e-109 -1.88318e-110 -7.8842e-110)
(-7.80661e-112 -9.05636e-113 -3.79256e-112)
(-3.74865e-114 -4.34763e-115 -1.82115e-114)
(-4.75943e-89 -5.48595e-90 -2.3122e-89)
(-2.24025e-91 -2.58115e-92 -1.08835e-91)
(-1.06635e-93 -1.228e-94 -5.18049e-94)
(-5.1222e-96 -5.89532e-97 -2.48844e-96)
(-2.47774e-98 -2.84995e-99 -1.20372e-98)
(-1.20461e-100 -1.38468e-101 -5.85219e-101)
(-5.87609e-103 -6.75001e-104 -2.85469e-103)
(-2.87174e-105 -3.29665e-106 -1.39513e-105)
(-1.40444e-107 -1.61119e-108 -6.82299e-108)
(-6.86674e-110 -7.87248e-111 -3.33596e-110)
(-6.43103e-91 -7.43871e-92 -3.12429e-91)
(-3.07465e-93 -3.55538e-94 -1.49371e-93)
(-1.46842e-95 -1.69748e-96 -7.13378e-96)
(-7.01125e-98 -8.10225e-99 -3.40616e-98)
(-3.34882e-100 -3.86853e-101 -1.62691e-100)
(-1.60072e-102 -1.84842e-103 -7.77651e-103)
(-7.65893e-105 -8.84039e-106 -3.72082e-105)
(-3.6686e-107 -4.23263e-108 -1.78226e-107)
(-1.7592e-109 -2.02871e-110 -8.54645e-110)
(-8.44442e-112 -9.73324e-113 -4.10242e-112)
(-6.94059e-93 -8.04948e-94 -3.37184e-93)
(-3.38785e-95 -3.92802e-96 -1.64586e-95)
(-1.64902e-97 -1.91141e-98 -8.01115e-98)
(-8.00635e-100 -9.27778e-101 -3.8896e-100)
(-3.87875e-102 -4.49344e-103 -1.88435e-102)
(-1.87557e-104 -2.17218e-105 -9.11176e-105)
(-9.05492e-107 -1.04838e-107 -4.39901e-107)
(-4.36581e-109 -5.05319e-110 -2.12097e-109)
(-2.1027e-111 -2.43297e-112 -1.02152e-111)
(-1.01181e-113 -1.17035e-114 -4.91552e-114)
(-6.46914e-95 -7.5181e-96 -3.1428e-95)
(-3.21235e-97 -3.73226e-98 -1.56061e-97)
(-1.59049e-99 -1.84743e-100 -7.72681e-100)
(-7.85261e-102 -9.11889e-103 -3.81491e-102)
(-3.8666e-104 -4.48898e-105 -1.87845e-104)
(-1.89905e-106 -2.20417e-107 -9.22584e-107)
(-9.30464e-109 -1.07969e-109 -4.52033e-109)
(-4.54872e-111 -5.2769e-112 -2.20983e-111)
(-2.21908e-113 -2.57366e-114 -1.07806e-113)
(-1.08046e-115 -1.25278e-116 -5.24905e-116)
(-5.86263e-91 -6.75475e-92 -2.84815e-91)
(-2.80489e-93 -3.23036e-94 -1.36265e-93)
(-1.35685e-95 -1.56188e-96 -6.59175e-96)
(-6.62251e-98 -7.61887e-99 -3.21731e-98)
(-3.25442e-100 -3.74173e-101 -1.58105e-100)
(-1.60706e-102 -1.84649e-103 -7.80732e-103)
(-7.96054e-105 -9.1405e-106 -3.86734e-105)
(-3.94979e-107 -4.53222e-108 -1.91886e-107)
(-1.9607e-109 -2.24833e-110 -9.52535e-110)
(-9.72828e-112 -1.11481e-112 -4.72614e-112)
(-8.05535e-93 -9.31428e-94 -3.9134e-93)
(-3.91333e-95 -4.5236e-96 -1.90115e-95)
(-1.89864e-97 -2.19405e-98 -9.22387e-98)
(-9.20733e-100 -1.06363e-100 -4.47305e-100)
(-4.46561e-102 -5.15684e-103 -2.16946e-102)
(-2.16702e-104 -2.50147e-105 -1.05277e-104)
(-1.05242e-106 -1.21434e-107 -5.1128e-107)
(-5.11574e-109 -5.90015e-110 -2.4853e-109)
(-2.489e-111 -2.86929e-112 -1.20919e-111)
(-1.21199e-113 -1.39647e-114 -5.88803e-114)
(-8.83616e-95 -1.02448e-95 -4.29273e-95)
(-4.38157e-97 -5.07866e-98 -2.12863e-97)
(-2.16603e-99 -2.50995e-100 -1.05229e-99)
(-1.06784e-101 -1.23705e-102 -5.18774e-102)
(-5.2517e-104 -6.08215e-105 -2.55135e-104)
(-2.5774e-106 -2.98411e-107 -1.25214e-106)
(-1.26265e-108 -1.46146e-109 -6.13415e-109)
(-6.17628e-111 -7.14655e-112 -3.00052e-111)
(-3.01728e-113 -3.49016e-114 -1.46584e-113)
(-1.47242e-115 -1.70261e-116 -7.15323e-116)
(-8.36889e-97 -9.72331e-98 -4.06573e-97)
(-4.22059e-99 -4.90239e-100 -2.05042e-99)
(-2.12182e-101 -2.46395e-102 -1.03081e-101)
(-1.06346e-103 -1.23463e-104 -5.16645e-104)
(-5.3146e-106 -6.16843e-107 -2.58191e-106)
(-2.64861e-108 -3.07336e-109 -1.28673e-108)
(-1.31654e-110 -1.52728e-111 -6.39594e-111)
(-6.52811e-113 -7.57117e-114 -3.17145e-113)
(-3.22961e-115 -3.74467e-116 -1.56899e-115)
(-1.59435e-117 -1.84813e-118 -7.74559e-118)
(-4.90486e-93 -5.6489e-94 -2.38285e-93)
(-2.38468e-95 -2.74527e-96 -1.15851e-95)
(-1.17208e-97 -1.34863e-98 -5.69414e-98)
(-5.81153e-100 -6.68307e-101 -2.82332e-100)
(-2.9007e-102 -3.33362e-103 -1.4092e-102)
(-1.45457e-104 -1.67057e-105 -7.06652e-105)
(-7.31528e-107 -8.39594e-108 -3.55387e-107)
(-3.68429e-109 -4.22571e-110 -1.78988e-109)
(-1.85604e-111 -2.12737e-112 -9.01689e-112)
(-9.34359e-114 -1.07025e-114 -4.53925e-114)
(-6.8514e-95 -7.91939e-96 -3.32851e-95)
(-3.38136e-97 -3.90729e-98 -1.64271e-97)
(-1.66623e-99 -1.9248e-100 -8.09479e-100)
(-8.20503e-102 -9.47516e-103 -3.98612e-102)
(-4.04008e-104 -4.6638e-105 -1.96273e-104)
(-1.98997e-106 -2.29629e-107 -9.66756e-107)
(-9.80758e-109 -1.13125e-109 -4.76466e-109)
(-4.83714e-111 -5.57685e-112 -2.34995e-111)
(-2.38744e-113 -2.75121e-114 -1.15985e-113)
(-1.1791e-115 -1.35808e-116 -5.72826e-116)
(-7.63698e-97 -8.85179e-98 -3.71016e-97)
(-3.84621e-99 -4.45678e-100 -1.86854e-99)
(-1.93068e-101 -2.23655e-102 -9.37954e-102)
(-9.66271e-104 -1.11904e-104 -4.69428e-104)
(-4.82327e-106 -5.58429e-107 -2.34321e-106)
(-2.40205e-108 -2.78025e-109 -1.16695e-108)
(-1.19387e-110 -1.38143e-111 -5.79997e-111)
(-5.92357e-113 -6.85208e-114 -2.87776e-113)
(-2.93478e-115 -3.3937e-116 -1.42576e-115)
(-1.45216e-117 -1.67867e-118 -7.05479e-118)
(-7.34825e-99 -8.53523e-100 -3.56988e-99)
(-3.76294e-101 -4.36965e-102 -1.82809e-101)
(-1.92045e-103 -2.22952e-104 -9.32981e-104)
(-9.76924e-106 -1.13386e-106 -4.74603e-106)
(-4.95406e-108 -5.74846e-109 -2.40675e-108)
(-2.50479e-110 -2.90571e-111 -1.21686e-110)
(-1.26288e-112 -1.46465e-113 -6.13525e-113)
(-6.35047e-115 -7.36319e-116 -3.08515e-115)
(-3.18549e-117 -3.69254e-118 -1.54756e-117)
(-1.59418e-119 -1.84745e-120 -7.74476e-120)
(-3.14721e-95 -3.62311e-96 -1.51317e-95)
(-1.55466e-97 -1.789e-98 -7.47355e-98)
(-7.76266e-100 -8.9282e-101 -3.73103e-100)
(-3.90948e-102 -4.49386e-103 -1.87874e-102)
(-1.98166e-104 -2.27645e-105 -9.5215e-105)
(-1.00897e-106 -1.1583e-107 -4.84709e-107)
(-5.15113e-109 -5.9095e-110 -2.47419e-109)
(-2.63308e-111 -3.01868e-112 -1.26451e-111)
(-1.34599e-113 -1.54207e-114 -6.46291e-114)
(-6.87421e-116 -7.87044e-117 -3.30017e-116)
(-4.46853e-97 -5.16325e-98 -2.14809e-97)
(-2.24005e-99 -2.58755e-100 -1.07665e-99)
(-1.12095e-101 -1.29445e-102 -5.38683e-102)
(-5.60432e-104 -6.46958e-105 -2.69277e-104)
(-2.80115e-106 -3.23246e-107 -1.34568e-106)
(-1.40027e-108 -1.61525e-109 -6.72585e-109)
(-7.0027e-111 -8.07436e-112 -3.36301e-111)
(-3.50388e-113 -4.03826e-114 -1.68244e-113)
(-1.75417e-115 -2.02072e-116 -8.42153e-116)
(-8.78602e-118 -1.0116e-118 -4.21737e-118)
(-5.06059e-99 -5.86378e-100 -2.4323e-99)
(-2.58817e-101 -2.99811e-102 -1.24376e-101)
(-1.31902e-103 -1.52753e-104 -6.33764e-104)
(-6.7008e-106 -7.75788e-107 -3.21907e-106)
(-3.39441e-108 -3.92879e-109 -1.63042e-108)
(-1.71519e-110 -1.98464e-111 -8.23712e-111)
(-8.64782e-113 -1.00034e-113 -4.15239e-113)
(-4.35184e-115 -5.03245e-116 -2.08927e-115)
(-2.18636e-117 -2.52748e-118 -1.04947e-117)
(-1.09683e-119 -1.26754e-120 -5.26405e-120)
(-4.94601e-101 -5.74342e-102 -2.37684e-101)
(-2.57144e-103 -2.98524e-104 -1.23552e-103)
(-1.33209e-105 -1.54606e-106 -6.39935e-106)
(-6.87671e-108 -7.97928e-109 -3.30303e-108)
(-3.53819e-110 -4.10445e-111 -1.69919e-110)
(-1.81469e-112 -2.10459e-113 -8.71354e-113)
(-9.27943e-115 -1.07591e-115 -4.45494e-115)
(-4.73162e-117 -5.48473e-118 -2.27122e-117)
(-2.40628e-119 -2.78856e-120 -1.15485e-119)
(-1.22066e-121 -1.41421e-122 -5.85737e-122)
)
;

boundaryField
{
    inlet
    {
        type            zeroGradient;
    }
    outlet
    {
        type            zeroGradient;
    }
    bottom
    {
        type            zeroGradient;
    }
    top
    {
        type            symmetryPlane;
    }
    side1
    {
        type            symmetryPlane;
    }
    side2
    {
        type            symmetryPlane;
    }
    procBoundary13to5
    {
        type            processor;
        value           nonuniform List<vector> 
50
(
(-6.96664e-85 -7.98183e-86 -3.38449e-85)
(-3.22656e-87 -3.69481e-88 -1.56751e-87)
(-1.4916e-89 -1.70717e-90 -7.24641e-90)
(-6.88329e-92 -7.87396e-93 -3.344e-92)
(-3.17105e-94 -3.62554e-95 -1.54054e-94)
(-1.45849e-96 -1.66666e-97 -7.08557e-97)
(-6.69775e-99 -7.64969e-100 -3.25386e-99)
(-3.07116e-101 -3.50582e-102 -1.49201e-101)
(-1.40621e-103 -1.60439e-104 -6.83158e-104)
(-6.42966e-106 -7.33197e-107 -3.12362e-106)
(-1.6627e-86 -1.904e-87 -8.07763e-87)
(-7.82948e-89 -8.96102e-90 -3.80367e-89)
(-3.67898e-91 -4.20848e-92 -1.7873e-91)
(-1.7252e-93 -1.97246e-94 -8.38125e-94)
(-8.07422e-96 -9.22664e-97 -3.92257e-96)
(-3.7718e-98 -4.30789e-99 -1.83239e-98)
(-1.75879e-100 -2.00772e-101 -8.54446e-101)
(-8.18704e-103 -9.34088e-104 -3.97738e-103)
(-3.80466e-105 -4.33859e-106 -1.84836e-105)
(-1.76521e-107 -2.01188e-108 -8.57565e-108)
(-2.03417e-88 -2.32815e-89 -9.88229e-89)
(-9.73745e-91 -1.11389e-91 -4.73059e-91)
(-4.65011e-93 -5.31657e-94 -2.25909e-93)
(-2.21557e-95 -2.53178e-96 -1.07636e-95)
(-1.0533e-97 -1.203e-98 -5.11707e-98)
(-4.99686e-100 -5.70405e-101 -2.42754e-100)
(-2.36569e-102 -2.69909e-103 -1.14929e-102)
(-1.11781e-104 -1.27468e-105 -5.43048e-105)
(-5.27179e-107 -6.00844e-108 -2.56111e-107)
(-2.48169e-109 -2.82699e-110 -1.20564e-109)
(-1.69041e-90 -1.93368e-91 -8.21224e-91)
(-8.22403e-93 -9.40266e-94 -3.99535e-93)
(-3.9905e-95 -4.56001e-96 -1.93864e-95)
(-1.93137e-97 -2.20585e-98 -9.38286e-98)
(-9.32483e-100 -1.06445e-100 -4.53013e-100)
(-4.49154e-102 -5.12451e-103 -2.18206e-102)
(-2.15858e-104 -2.46148e-105 -1.04867e-104)
(-1.03512e-106 -1.17976e-107 -5.02877e-107)
(-4.95338e-109 -5.64256e-110 -2.40642e-109)
(-2.36549e-111 -2.6932e-112 -1.14919e-111)
(-1.07741e-92 -1.23181e-93 -5.18049e-93)
(-5.32644e-95 -6.08657e-96 -2.56069e-95)
(-2.62564e-97 -2.99877e-98 -1.26207e-97)
(-1.29069e-99 -1.47334e-100 -6.20298e-100)
(-6.32771e-102 -7.21938e-103 -3.04056e-102)
(-3.09422e-104 -3.52839e-105 -1.48657e-104)
(-1.5093e-106 -1.72018e-107 -7.25005e-107)
(-7.34448e-109 -8.36627e-110 -3.5274e-109)
(-3.56568e-111 -4.05962e-112 -1.71224e-111)
(-1.7272e-113 -1.96544e-114 -8.29269e-114)
)
;
    }
    procBoundary13to12
    {
        type            processor;
        value           nonuniform List<vector> 
20
(
(-1.30225e-84 -1.49951e-85 -6.32653e-85)
(-1.27882e-86 -1.47914e-87 -6.21271e-87)
(-1.2609e-88 -1.46299e-89 -6.12562e-89)
(-1.13543e-90 -1.32021e-91 -5.51606e-91)
(-3.09969e-86 -3.5676e-87 -1.50588e-86)
(-3.08981e-88 -3.5725e-89 -1.50108e-88)
(-3.0954e-90 -3.59043e-91 -1.50379e-90)
(-2.83277e-92 -3.29292e-93 -1.3762e-92)
(-3.78218e-88 -4.35114e-89 -1.83744e-88)
(-3.82645e-90 -4.42259e-91 -1.85894e-90)
(-3.89435e-92 -4.51578e-93 -1.89193e-92)
(-3.62149e-94 -4.20865e-95 -1.75937e-94)
(-3.13488e-90 -3.60482e-91 -1.52297e-90)
(-3.21826e-92 -3.71827e-93 -1.56347e-92)
(-3.32672e-94 -3.85638e-95 -1.61617e-94)
(-3.14287e-96 -3.65147e-97 -1.52685e-96)
(-1.99298e-92 -2.29069e-93 -9.58305e-93)
(-2.07579e-94 -2.39741e-95 -9.97977e-95)
(-2.17903e-96 -2.52519e-97 -1.04745e-96)
(-2.09106e-98 -2.4288e-99 -1.005e-98)
)
;
    }
    procBoundary13to14
    {
        type            processor;
        value           nonuniform List<vector> 
20
(
(-2.6368e-111 -3.02843e-112 -1.281e-111)
(-4.03304e-113 -4.65105e-114 -1.95931e-113)
(-4.95081e-115 -5.72706e-116 -2.40517e-115)
(-5.24339e-117 -6.07985e-118 -2.54731e-117)
(-7.34033e-113 -8.4271e-114 -3.56604e-113)
(-1.13915e-114 -1.31325e-115 -5.53416e-115)
(-1.41831e-116 -1.6402e-117 -6.89034e-117)
(-1.52317e-118 -1.76569e-119 -7.39977e-119)
(-1.04632e-114 -1.20073e-115 -5.08315e-115)
(-1.64743e-116 -1.89855e-117 -8.00343e-117)
(-2.08023e-118 -2.40495e-119 -1.01061e-118)
(-2.26519e-120 -2.62516e-121 -1.10046e-120)
(-1.01103e-116 -1.15975e-117 -4.9117e-117)
(-1.61476e-118 -1.86024e-119 -7.84471e-119)
(-2.06756e-120 -2.38958e-121 -1.00445e-120)
(-2.28242e-122 -2.64444e-123 -1.10883e-122)
(-7.48281e-119 -8.57997e-120 -3.5921e-119)
(-1.21218e-120 -1.39597e-121 -5.81804e-121)
(-1.57369e-122 -1.81824e-123 -7.55196e-123)
(-1.76102e-124 -2.03979e-125 -8.44954e-125)
)
;
    }
    procBoundary13to21
    {
        type            processor;
        value           nonuniform List<vector> 
50
(
(-2.87851e-96 -3.35264e-97 -1.39842e-96)
(-1.41366e-98 -1.64609e-99 -6.86775e-99)
(-7.08471e-101 -8.24712e-102 -3.44185e-101)
(-3.60409e-103 -4.19408e-104 -1.75092e-103)
(-1.85181e-105 -2.15424e-106 -8.99637e-106)
(-9.56961e-108 -1.11288e-108 -4.64905e-108)
(-4.95737e-110 -5.76321e-111 -2.40836e-110)
(-2.56808e-112 -2.98459e-113 -1.24761e-112)
(-1.32807e-114 -1.543e-115 -6.45195e-115)
(-6.84822e-117 -7.95421e-118 -3.32696e-117)
(-7.30189e-98 -8.50265e-99 -3.54736e-98)
(-3.64237e-100 -4.24027e-101 -1.76952e-100)
(-1.85392e-102 -2.15759e-103 -9.00659e-103)
(-9.57702e-105 -1.11422e-105 -4.65265e-105)
(-4.996e-107 -5.81055e-108 -2.42713e-107)
(-2.62073e-109 -3.047e-110 -1.27319e-109)
(-1.3778e-111 -1.60139e-112 -6.69355e-112)
(-7.24191e-114 -8.41445e-115 -3.51822e-114)
(-3.79906e-116 -4.41282e-117 -1.84564e-116)
(-1.98676e-118 -2.30706e-119 -9.65196e-119)
(-9.4901e-100 -1.10482e-100 -4.61043e-100)
(-4.80777e-102 -5.59567e-103 -2.33568e-102)
(-2.48503e-104 -2.89141e-105 -1.20726e-104)
(-1.30345e-106 -1.51611e-107 -6.33234e-107)
(-6.90295e-109 -8.02651e-110 -3.35355e-109)
(-3.67535e-111 -4.27214e-112 -1.78554e-111)
(-1.96081e-113 -2.27846e-114 -9.52591e-114)
(-1.04563e-115 -1.21464e-116 -5.07983e-116)
(-5.56394e-118 -6.46127e-119 -2.70304e-118)
(-2.95078e-120 -3.42567e-121 -1.43353e-120)
(-8.3709e-102 -9.74294e-103 -4.0667e-102)
(-4.30604e-104 -5.01055e-105 -2.09194e-104)
(-2.25974e-106 -2.62866e-107 -1.09781e-106)
(-1.20326e-108 -1.39925e-109 -5.8456e-109)
(-6.46796e-111 -7.51892e-112 -3.14223e-111)
(-3.49475e-113 -4.06124e-114 -1.6978e-113)
(-1.89168e-115 -2.19759e-116 -9.19005e-116)
(-1.02328e-117 -1.18838e-118 -4.97122e-118)
(-5.5221e-120 -6.41112e-121 -2.68271e-120)
(-2.96944e-122 -3.44649e-123 -1.4426e-122)
(-5.65987e-104 -6.58602e-105 -2.71976e-104)
(-2.95587e-106 -3.43867e-107 -1.42016e-106)
(-1.57472e-108 -1.83137e-109 -7.56455e-109)
(-8.51109e-111 -9.89502e-112 -4.08784e-111)
(-4.64309e-113 -5.39624e-114 -2.22969e-113)
(-2.5456e-115 -2.95752e-116 -1.22223e-115)
(-1.39788e-117 -1.62354e-118 -6.71059e-118)
(-7.66958e-120 -8.90487e-121 -3.68121e-120)
(-4.1971e-122 -4.87161e-123 -2.01417e-122)
(-2.2882e-124 -2.65516e-125 -1.09792e-124)
)
;
    }
}


// ************************************************************************* //
