/*--------------------------------*- C++ -*----------------------------------*\
| =========                 |                                                 |
| \\      /  F ield         | OpenFOAM: The Open Source CFD Toolbox           |
|  \\    /   O peration     | Version:  2.4.0                                 |
|   \\  /    A nd           | Web:      www.OpenFOAM.org                      |
|    \\/     M anipulation  |                                                 |
\*---------------------------------------------------------------------------*/
FoamFile
{
    version     2.0;
    format      ascii;
    class       volSymmTensorField;
    location    "0.05";
    object      B;
}
// * * * * * * * * * * * * * * * * * * * * * * * * * * * * * * * * * * * * * //

dimensions      [0 2 -2 0 0 0 0];

internalField   nonuniform List<symmTensor> 
200
(
(205.017 10.764 -10.1695 228.595 2.35752 202.911)
(178.187 -7.89122 -6.60166 252.449 5.52876 172.809)
(56.0521 4.14108 -0.582987 86.6994 4.38157 51.571)
(66.1484 -10.4459 -4.62318 109.942 3.53967 71.6917)
(20.0978 3.73654 -7.53134 38.4273 2.00496 23.3407)
(60.3976 -6.51194 -13.4251 97.8278 5.27694 72.485)
(34.2297 1.68668 -12.8167 54.0518 1.26862 44.4362)
(73.1878 -7.95236 -18.5569 102.969 6.86513 88.5988)
(40.2529 -2.09916 -18.4056 58.4729 0.187039 56.0369)
(63.7807 -9.32835 -22.7037 79.0871 4.05228 81.4613)
(567.02 37.8139 -12.7082 590.29 8.26583 559.52)
(193.95 2.69674 -0.750474 218.018 10.4286 190.699)
(177.504 -20.7762 0.601698 254.848 13.2714 190.238)
(37.7692 -3.18652 -4.9334 57.2456 5.2051 42.0622)
(88.9284 -7.35843 -12.0272 136.96 6.64287 103.131)
(25.5704 -1.04888 -12.9853 43.9681 4.24797 34.8663)
(92.1556 -6.57768 -22.2813 144.465 11.7881 115.436)
(43.0129 -9.03333 -24.2161 71.5538 3.25982 62.841)
(110.161 -13.2272 -34.3448 143.665 11.6583 130.394)
(78.5312 -16.1306 -28.6343 85.6765 -3.28511 90.9461)
(1049.34 114.375 -20.2888 1035.42 20.1732 996.957)
(16.3279 10.8643 2.76979 18.1377 23.476 3.05658)
(720.413 -0.419124 0.306545 777.265 31.7318 741.672)
(80.5276 -11.4861 -0.0781806 141.286 14.9337 94.0298)
(69.5213 0.176722 -11.9704 107.464 8.15054 75.2904)
(132.892 6.50726 -10.3191 222.229 21.1063 159.197)
(92.7198 1.81234 -30.3753 176.745 15.5559 139.125)
(164.264 -18.1543 -56.7789 328.433 71.8743 246.177)
(170.009 -43.0487 -57.4124 247.349 6.30793 221.369)
(413.716 -21.1042 -61.743 471.221 9.91775 443.109)
(482.659 67.0103 -28.4551 416.247 7.64716 420.466)
(2063.99 61.0342 43.727 2045.85 47.5737 2028.67)
(120.116 25.4795 8.02939 94.583 25.2241 137.731)
(988.386 -8.3085 -18.156 1085.58 57.2084 1054.49)
(133.674 34.88 16.7949 195.704 15.3452 127.42)
(287.058 53.752 7.63021 400.129 22.8139 322.582)
(277.982 55.2019 35.8809 533.292 74.6544 380.294)
(318.16 -9.46082 -59.1182 588.198 64.7458 548.47)
(101.324 -3.37791 -251.688 528.058 225.076 384.613)
(529.387 -69.2329 -117.858 765.157 3.9289 603.221)
(405.328 10.0279 -42.687 451.103 -2.33453 412.919)
(116.222 14.1116 3.23136 168.35 1.52838 117.058)
(107.224 -9.28772 11.4298 152.441 -0.852842 112.058)
(25.4148 0.397475 1.21051 28.6457 0.316541 24.5465)
(49.8188 -4.41324 6.1651 68.6439 1.96747 47.6786)
(11.9787 -0.0593144 2.47531 20.2736 -0.379378 13.0133)
(38.3948 -4.13692 6.94185 62.3116 3.38861 44.7903)
(12.9652 -1.53899 2.8262 26.0193 -2.00906 19.3474)
(27.1767 -6.49681 5.4888 43.6647 1.97961 37.2606)
(16.3432 -4.39082 5.50896 25.2594 -3.28478 26.5536)
(822.088 53.6504 -41.7902 833.525 -7.34383 803.497)
(-5.64682 -8.00675 11.9539 66.3315 -10.5342 9.40108)
(534.274 0.31652 2.42158 549.851 2.47132 539.458)
(75.3288 -9.87418 8.51696 124.09 -2.81139 90.7996)
(2.38407 -1.97015 0.937213 5.00626 -0.444724 2.54574)
(36.2253 -1.9588 4.00125 57.409 -0.937626 40.5906)
(3.07341 -3.26984 0.521486 13.0726 -0.846651 8.85064)
(33.3632 -6.58936 2.44939 57.5378 2.3507 44.8135)
(21.9355 -9.29051 1.17782 34.1059 -3.57369 29.5792)
(28.5094 -12.821 -0.997657 38.7611 -0.469594 37.6516)
(537.842 61.8733 -77.3095 476.81 -17.9841 493.072)
(1788.84 73.1448 40.017 1839.3 23.1061 1771.26)
(-25.4323 14.8195 19.8539 -30.4254 -8.44298 -3.34535)
(1715.55 -12.2058 -4.58649 1798.01 16.1712 1751.59)
(60.7032 11.4191 16.1898 134.586 -17.349 80.2264)
(90.6964 11.1776 4.73731 111.111 -3.24848 93.3622)
(76.1346 14.2455 20.1595 164.781 1.46294 105.876)
(36.9296 -2.54926 -0.420077 89.4917 7.00116 83.9074)
(41.8085 -27.7778 2.61792 136.371 10.3268 86.8978)
(123.686 -50.7894 -11.9372 150.44 -21.114 142.559)
(2237.59 229.72 -18.4866 2166.84 42.0897 2125.51)
(107.12 -0.00148291 10.4586 77.2269 -6.06936 93.5117)
(994.136 400.075 177.682 609.041 -20.7965 644.798)
(336.464 72.6042 -13.9415 307.007 -18.4856 329.238)
(406.995 -26.2126 -34.6619 563.651 7.6624 495.22)
(226.671 40.0799 51.7623 326.331 12.5167 303.67)
(3295.36 5.4473 55.9142 3373.77 169.229 3553.04)
(55.8979 47.6408 55.031 245.725 40.1667 190.927)
(2558.61 -41.7854 -61.6898 2755.07 185.623 3125.41)
(222.736 -69.7998 -49.7555 315.095 -2.06015 317.932)
(440.513 17.1767 -62.7244 464.835 -7.61542 453.879)
(46.5217 -14.7144 -3.43155 106.925 -6.19921 70.8899)
(114.957 4.17456 6.29713 134.721 2.51664 119.968)
(44.2376 0.662097 13.9074 74.6111 3.32249 52.3013)
(19.0038 0.196412 7.33166 28.9429 -0.38991 19.1107)
(66.6815 -2.25134 20.1101 87.9852 4.99873 64.0128)
(28.5749 -3.28928 11.275 53.0117 -3.0603 34.3438)
(54.6157 -8.20166 17.5504 80.9205 4.51155 60.1577)
(54.4919 -8.35759 18.6508 67.8789 -8.64981 59.7638)
(70.6471 -25.0295 24.3699 86.4251 -6.35801 91.2851)
(580.512 23.9968 -94.7454 587.736 -20.9407 587.424)
(435.011 19.6888 11.0779 461.094 2.08646 435.657)
(15.9289 -4.48624 31.295 61.592 -3.4301 35.8912)
(332.141 -2.1715 2.01147 355.309 2.62379 338.113)
(23.6048 2.1114 11.247 52.0116 -3.90392 30.6162)
(19.7769 2.14586 5.18916 30.2381 -1.75385 21.2902)
(50.5619 2.54005 17.8893 88.5189 0.643273 60.4672)
(12.8136 -8.1732 5.69798 36.5046 4.52084 32.2287)
(71.6239 -20.5824 11.0767 111.037 0.692675 93.782)
(119.595 -45.6596 19.2263 125.861 -22.1716 144.015)
(1233.72 128.749 -118.359 1281.82 3.52756 1198.72)
(50.811 6.52399 18.2199 9.96383 -3.92193 36.1529)
(463.603 199.253 59.2808 579.69 -35.0894 313.919)
(47.7042 54.0197 12.8333 72.1729 -13.2344 59.3181)
(541.16 3.35113 -2.78425 625.008 -0.0433761 565.773)
(371.704 56.4084 50.1976 489.248 19.5866 423.085)
(921.778 17.0588 45.6884 964.527 94.5682 994.442)
(312.894 45.0794 46.7863 430.501 24.7284 371.641)
(1164.66 -0.246294 -6.3534 1254.27 129.92 1302.6)
(364.403 -103.684 -14.4354 481.207 -0.194757 498.979)
(483.023 29.0081 -55.8491 318.047 -20.5342 388.401)
(810.648 362.11 121.494 111.616 -224.554 124.101)
(678.486 55.2583 12.7919 590.14 0.371837 592.892)
(1392.48 219.078 -112.573 962.599 -212.589 881.399)
(842.066 120.67 100.016 889.112 29.7582 946.572)
(9689.7 -337.04 963.302 9883.55 952.62 10997.6)
(1162.98 207.697 119.083 1098.72 54.4608 1176.77)
(1575.55 213.891 310.874 1582.54 850.284 2341.48)
(3460.92 -152.336 -14.4176 3931.99 245.249 4732.14)
(22346 -136.356 -768.663 23219.3 877.297 24395.3)
(336.147 -9.7557 -66.1079 346.756 -5.91861 360.672)
(38.8865 19.0504 -7.53216 51.666 -4.69251 69.4865)
(32.0908 -0.134202 12.1302 50.9125 -1.24398 55.8375)
(26.3005 0.93511 5.80543 37.7174 -3.07184 37.1651)
(16.7171 1.4549 17.3441 19.2038 -0.842261 25.0556)
(28.1093 2.59404 13.1935 38.2553 -8.52015 30.4299)
(69.4711 -4.52845 22.5087 78.6231 0.730615 58.9115)
(93.1636 -12.9824 20.2843 91.74 -5.58294 87.1709)
(185.235 -52.7294 53.3 157.801 -5.66826 173.003)
(1631.61 -172.629 149.087 1477.36 -69.4333 1626.99)
(527.469 4.3669 -42.4039 524.393 -9.43077 538.623)
(20.7542 2.92911 -4.73481 37.2671 -23.0981 65.6706)
(80.3272 5.61628 3.96767 90.0962 -7.7344 84.7168)
(28.6776 6.75679 11.5741 54.5827 -14.7249 47.343)
(75.6276 2.33622 4.35829 87.7251 -5.07291 80.4785)
(134.491 22.6039 19.8345 155.644 -1.86952 136.686)
(53.9388 4.70588 15.5962 61.0398 8.87041 61.3812)
(164.439 3.1965 22.7031 198.648 -1.53108 175.467)
(127.717 -24.8984 36.9479 163.839 35.9216 180.717)
(37.9664 -139.736 49.6545 137.647 20.1232 204.874)
(864.798 -49.158 -221.455 737.142 -39.0728 844.238)
(309.275 114.998 6.65223 308.441 -47.1099 269.676)
(134.727 48.5434 15.3214 121.315 -15.0556 123.631)
(235.349 51.1344 -7.15455 242.791 -71.9923 187.071)
(466.995 91.483 57.8847 512.539 12.3203 466.577)
(1109.54 11.6468 145.465 1021.14 233.571 1137.06)
(854.862 171.515 58.398 913.134 7.25692 855.047)
(477.312 74.9042 161.245 560.841 119.468 588.5)
(1763.84 -171.638 121.411 1807.2 283.586 2136.66)
(17517.4 -45.2682 68.346 17906.5 433.314 18030.8)
(1023.01 -76.1716 -365.58 768.416 -91.2436 786.366)
(401.963 85.9354 34.3645 227.892 8.16192 295.833)
(357.379 63.7609 -46.1559 181.749 -81.6711 181.439)
(1066.53 119.529 126.484 888.624 27.7233 905.999)
(6947.95 -191.083 789.03 6599.62 492.423 7002.5)
(2314.94 317.212 29.8029 1852.79 -42.4733 1935.38)
(1583.2 1134.41 -1261.24 1141.13 402.801 541.45)
(18338.9 -674.398 1097.11 19441.2 685.852 20350.2)
(115219 492.574 1562.9 116926 2029.48 117119)
(51045.2 1316.58 -6610 51286.6 -2855.76 45131.9)
(96.3394 0.712109 -36.0515 88.34 -7.17077 137.843)
(80.294 -5.94657 0.301117 75.8917 4.53611 116.803)
(60.2662 0.000235485 0.864485 52.0985 -6.19843 81.6214)
(52.0471 -1.52288 2.49039 32.6398 3.59226 69.9622)
(47.1404 -4.51602 0.923313 31.6173 -6.19098 63.4936)
(51.7185 -5.59211 10.577 13.5595 4.5774 67.7641)
(86.7139 -11.5322 15.9224 44.3727 -7.57287 86.6452)
(116.491 -17.9874 24.6664 59.2914 4.39315 100.367)
(1908.4 -189.259 159.576 1615.41 -12.3456 1702.85)
(3325.27 198.736 -7.23976 2437.03 -105.035 2676.79)
(243.396 -41.2545 -38.3534 246.855 -10.6046 300.108)
(102.899 -1.08412 -0.892095 93.7781 -12.1271 138.3)
(68.6695 -3.06864 0.631885 67.9051 -1.11633 80.6882)
(98.816 -3.56437 -1.42641 82.2419 -10.484 113.634)
(93.4098 5.90102 4.28524 61.4492 -2.52295 103.823)
(67.9907 0.340834 7.66701 40.737 -6.53076 76.9586)
(142.425 7.92788 21.5633 107.278 1.67657 130.381)
(181.245 24.1364 48.9428 86.6387 18.3904 133.289)
(1.47208 -8.33201 46.1414 -2.19502 91.5369 49.1937)
(5036.24 -113.747 83.35 5521.76 204.612 5149.84)
(621.622 -67.2468 -95.1473 607.347 -27.8446 725.879)
(150.622 -11.1394 4.06405 148.134 -9.53072 223.988)
(161.934 -13.0854 -3.93529 147.352 -31.9909 221.34)
(141.781 -7.36145 -2.61234 115.494 -14.8652 175.877)
(151.937 5.04995 4.81946 119.894 -8.40225 169.807)
(679.306 68.9401 29.2701 588.768 -9.81627 620.096)
(1098.47 68.33 160.925 720.735 52.6538 782.591)
(3691.31 -139.504 440.815 3340.09 616.611 3490.09)
(41413 511.863 687.409 42210.6 938.496 41089.6)
(47269.8 759.216 -1778.25 48248.1 -1488.31 46689.6)
(1289.48 -315.718 -273.778 1179.25 -5.00522 1549.74)
(137.377 -2.93218 6.20309 117.92 -48.2939 244.203)
(223.12 -39.1252 -8.58878 95.5774 -24.6097 289.151)
(534.207 -29.4957 56.6902 365.387 -10.6215 534.066)
(1274.81 108.53 40.422 1034.06 -20.0392 1045.65)
(1567.62 157.797 330.651 697.453 323.621 -176.158)
(20749.7 -723.598 2719.14 21676.8 1753.72 20807.2)
(147400 2173.61 3558.17 149078 2151.82 145054)
(169845 3566.56 -14268.7 171502 -5426.65 160211)
(29425.1 -5300.05 -11097.4 35465.2 4588.17 41226.5)
)
;

boundaryField
{
    inlet
    {
        type            calculated;
        value           nonuniform List<symmTensor> 
20
(
(-0.292796 0.492942 -0.516955 0.607539 0.0856431 -0.325499)
(-0.0247274 1.97488 -0.558416 0.523566 0.23557 -0.35337)
(0.0418032 2.62403 -0.843145 0.0903425 0.28992 -0.46248)
(0.832541 2.37992 -1.06582 -0.552978 0.1264 -0.483232)
(-0.217681 0.733293 -1.63303 0.605526 -0.0499403 -0.211313)
(0.0235826 1.80363 -1.7388 0.316187 -0.154092 -0.313867)
(1.37814 1.95997 -2.13998 -0.533582 -0.248271 -0.30908)
(-0.344249 -0.338066 -1.97945 0.331413 0.293379 0.0433102)
(-0.34006 0.0589245 -1.79616 0.191473 -0.130584 0.00359494)
(0.215908 0.711625 -2.53316 -0.0360615 -0.291582 -0.040403)
(-0.821538 0.0358104 -2.86321 0.563385 0.0291246 -0.122767)
(2.70998 3.08797 -0.740153 -0.962525 -0.230126 -0.17408)
(-0.00609565 0.179239 -1.60577 -0.0474052 -0.0899438 0.164065)
(-0.259209 -0.348543 -2.02522 -0.163589 -0.260593 0.229612)
(0.57208 -0.428524 -2.87581 -0.539824 -0.254151 0.156785)
(0.233169 -2.51163 -3.27032 -0.343274 -0.344922 -0.275419)
(-0.278389 -0.487964 -0.765039 -0.257285 -0.0907434 0.369153)
(-0.256363 -0.547898 -1.05249 -0.256916 -0.146355 0.478028)
(-0.407947 -1.49708 -1.86658 -0.397917 -0.266732 0.737541)
(0.0623817 -2.16491 -2.53206 -0.643897 -0.0207147 0.88942)
)
;
    }
    outlet
    {
        type            calculated;
        value           nonuniform 0();
    }
    bottom
    {
        type            calculated;
        value           nonuniform List<symmTensor> 
40
(
(-0.249007 0.391029 -0.440243 0.607539 0.141139 -0.282509)
(-0.139607 1.07767 -0.410994 0.523566 0.560415 -0.320857)
(0.290406 1.64375 -0.385518 0.0903425 0.737451 -0.533507)
(0.544749 1.10761 -0.404324 -0.552978 0.702686 -0.649934)
(-0.349448 -0.124638 -0.181795 0.823493 0.320386 -0.478726)
(-0.26893 0.107705 -0.148502 0.692326 0.761753 -0.471969)
(-0.136255 0.193202 0.141041 -0.10407 1.18662 -0.221616)
(0.715619 1.10002 0.758597 0.388651 0.787463 -0.461087)
(-0.186899 0.0882293 -0.201666 0.466069 -0.0245012 -0.237297)
(-0.437676 -0.314867 -0.0904678 0.734492 0.571612 -0.258635)
(-0.649777 -0.0122492 -0.17907 1.01174 1.13873 -0.393336)
(-0.172355 0.531684 0.508821 -0.70516 1.99441 0.9456)
(-0.279036 -0.182425 -0.188813 0.48576 0.394062 -0.0975041)
(-0.256183 -0.0957439 -0.358681 0.329014 0.19394 -0.0432755)
(-0.446201 -0.188639 -0.149799 0.551658 0.721659 -0.247722)
(-0.984308 -0.164337 -0.582465 0.938085 1.08645 -0.407402)
(-0.176128 0.0851918 -0.47261 0.241777 -0.20722 0.0823999)
(-0.312246 -0.123262 -0.346084 0.49234 0.475885 -0.0379933)
(-0.21849 0.0030202 -0.390977 0.429962 0.331438 0.0350109)
(-0.327429 0.478161 0.109264 0.522919 0.822784 -0.542218)
(-0.23773 -0.106196 -0.387519 0.372674 0.457323 0.0423505)
(-0.226793 -0.0227218 -0.617832 0.171754 -0.000369047 0.146664)
(-0.377616 0.0732663 -0.295447 0.628254 0.658895 -0.106407)
(-0.536608 0.606372 -0.073801 0.738945 0.632127 0.185372)
(-0.222796 0.0369426 -0.663229 0.211357 -0.239801 0.180531)
(-0.301996 -0.0889807 -0.51955 0.405629 0.524442 0.0226559)
(-0.474703 0.0201278 -0.670039 0.458483 0.244926 0.44063)
(-0.65946 0.327418 -0.0402587 0.854852 1.06676 -0.246767)
(-0.198878 -0.127301 -0.538363 0.277857 0.462012 0.0771121)
(-0.280487 -0.139429 -0.808242 0.160039 -0.10862 0.257301)
(-0.418212 -0.10493 -0.660112 0.530676 0.823121 -0.0727227)
(-1.03483 -0.0608318 -0.654565 0.701481 0.664071 1.24279)
(-0.197998 -0.0373171 -0.760341 0.125901 -0.269046 0.249673)
(-0.197572 -0.169356 -0.747064 0.231393 0.477645 0.0791513)
(-0.374134 -0.390342 -0.961413 0.327141 -0.0360948 0.676309)
(-0.88554 -0.0105288 -1.36497 0.444577 1.20142 -0.372821)
(-0.109708 -0.130023 -0.619437 0.10364 0.359682 0.179839)
(-0.134087 -0.258222 -0.946052 -0.0197036 -0.277387 0.237414)
(-0.346433 -0.295544 -1.30354 0.458876 0.397124 -0.114015)
(-0.574371 -0.44368 -1.2509 0.936563 0.19832 0.605348)
)
;
    }
    top
    {
        type            symmetryPlane;
    }
    side1
    {
        type            symmetryPlane;
    }
    side2
    {
        type            symmetryPlane;
    }
    procBoundary0to1
    {
        type            processor;
        value           nonuniform List<symmTensor> 
20
(
(-10.1126 -1.66759 -27.0501 -2.70122 -4.92817 15.7572)
(-2.39852 -14.5156 -32.5793 2.89228 -9.20805 4.45217)
(-4.89901 -38.5042 -48.0863 27.5911 -14.5639 -11.6981)
(-9.66508 36.2049 -160.172 -68.706 652.365 -63.2092)
(-5.86809 -8.72621 5.54388 -2.24485 -4.46982 7.28529)
(-3.48764 -16.2403 3.09994 -6.61095 -11.6965 4.22147)
(-11.1679 -25.9634 -27.0305 -2.75021 -15.6174 3.59638)
(-39.27 -109.45 -63.2881 145.127 -9.32444 50.5773)
(2.19892 -33.1635 29.7222 -19.525 -26.3617 19.0815)
(-36.4466 -73.714 -2.06262 -17.9365 -33.6119 17.0858)
(-19.6151 -126.407 -1.17181 -3.30637 -26.1135 159.865)
(59.9203 -166.996 -177.772 -62.938 90.1673 -883.907)
(439.4 185.566 63.3792 -262.775 37.544 -45.1031)
(-83.7751 -480.457 120.696 177.269 -29.6265 168.801)
(-180.877 -37.2917 -235.125 288.847 -678.112 -889.915)
(-1065.15 -1629.42 -4668.69 1399.45 3306.91 3986.15)
(151.75 -343.833 445.8 -34.3279 460.183 -156.026)
(39.4026 38.7206 -48.8397 19.5628 -230.476 -60.3483)
(-1200.9 -453.085 -752.637 1216.36 1854.83 1846.57)
(-4248.13 -4503.94 23675 -338.488 -2622.56 1149.99)
)
;
    }
    procBoundary0to8
    {
        type            processor;
        value           nonuniform List<symmTensor> 
50
(
(144.194 174.677 20.0633 -12.7456 38.3324 -21.0696)
(54.9431 7.41735 43.5778 -62.3765 22.089 -3.31575)
(174.746 156.661 79.8042 -211.103 58.2159 41.6996)
(44.966 90.5059 -3.7161 -27.5307 30.8775 -5.228)
(7.83948 59.7969 14.9962 41.2218 60.2693 -47.177)
(-47.4331 89.9595 82.8472 32.9148 59.2634 -9.72219)
(-342.715 53.2831 95.8391 27.5367 386.876 440.481)
(-1274.28 -0.981995 617.9 169.802 552.332 333.422)
(-1053.86 146.482 -418.76 113.252 1113.54 1048.31)
(1178.16 -739.86 3288.39 -261.706 761.903 -42.5616)
(86.7373 34.1273 -35.3116 -48.1215 -46.0102 -28.4422)
(638.054 289.353 129.227 -769.687 -393.261 -228.355)
(75.7273 52.6902 3.45825 -18.8655 -21.7583 -23.6803)
(627.728 148.895 -146.433 -507.188 -203.115 -131.977)
(-29.9768 72.4994 40.5056 -30.8237 8.66876 37.3051)
(-895.528 -331.599 1031.93 -236.46 704.854 1110.94)
(-8.77922 159.282 118.921 -104.47 -6.7032 45.2591)
(-762.224 252.743 -1232.5 -699.485 1291.83 1787.64)
(-429.291 -90.709 -79.1922 -20.6456 111.374 260.261)
(-534.817 148.059 -859.771 -141.697 902.017 1565.06)
(407.937 -219.164 -378.497 -476.097 -239.129 -112.403)
(90.3255 72.2695 45.2393 -52.0793 -20.6788 -5.71213)
(229.33 93.3937 -49.8334 -196.395 -110.828 -58.4358)
(14.1601 150.73 203.12 -128.612 70.709 126.43)
(-483.705 -486.424 1460.25 -543.492 644.671 792.74)
(728.294 215.923 221.157 -325.7 -36.4588 20.0369)
(869.207 903.361 -2646.04 -1512.81 624.015 -1261.51)
(-1844.4 -677.095 736.12 -137.803 771.081 1257.49)
(-1517.83 740.62 1025.28 1339.85 2419.17 4110.58)
(109.955 -121.286 -1730.69 -37.0741 -513.169 -3528.72)
(145.485 -221.521 -215.923 -144.142 6.3801 31.8869)
(148.079 95.1271 -1.05982 -169.446 -68.7713 -23.7789)
(264.069 146.554 154.775 -139.01 -7.59731 -17.7754)
(-31.6942 -359.107 1340.9 -447.861 590.008 119.691)
(719.646 133.999 -6.21198 -251.304 -119.336 -60.5264)
(2999.63 1962.5 -4078.13 -514.284 -637.915 -4965.67)
(-3739.28 -930.349 2816.17 579.314 2262.79 2286.36)
(-189.866 3202.5 7237.42 2997.51 4458.26 3779.76)
(2954.98 1119.18 -19496.5 4457.05 -9079.04 -14195.8)
(-4090.87 -6508.76 -15981.2 2100.22 1919.77 4308.16)
(-139.359 -474.48 -316.861 -49.4409 -25.6038 205.922)
(-7.55195 -38.4871 -4.8759 -50.8328 -0.134247 57.7065)
(-7.21093 -89.0618 68.9725 -60.0733 -33.2034 56.869)
(220.038 17.0994 17.2187 -52.0606 -30.5795 -64.6544)
(1544.29 271.651 677.457 -222.233 480.799 -2468.32)
(-2289.57 238.815 5403.15 2873.65 3272.22 -655.128)
(2553.02 5093.47 7326.85 3667.01 2708.6 -3832.26)
(6668.36 4077.32 -34102.2 8028.01 -11996 -20702.2)
(-6163.25 -13318.7 -24379.5 -2713.1 -6408.69 3708.58)
(-1003.21 -7730.14 41592.7 -1296.68 7706.25 5948.73)
)
;
    }
}


// ************************************************************************* //
