/*--------------------------------*- C++ -*----------------------------------*\
| =========                 |                                                 |
| \\      /  F ield         | OpenFOAM: The Open Source CFD Toolbox           |
|  \\    /   O peration     | Version:  2.4.0                                 |
|   \\  /    A nd           | Web:      www.OpenFOAM.org                      |
|    \\/     M anipulation  |                                                 |
\*---------------------------------------------------------------------------*/
FoamFile
{
    version     2.0;
    format      ascii;
    class       volVectorField;
    location    "0.05";
    object      gradp;
}
// * * * * * * * * * * * * * * * * * * * * * * * * * * * * * * * * * * * * * //

dimensions      [1 -2 -2 0 0 0 0];

internalField   nonuniform List<vector> 
200
(
(-58099.8 129045 -129688)
(-165649 138927 -129380)
(-277006 148692 -143466)
(-398849 138940 -160254)
(-486077 150977 -164614)
(-594328 125417 -180806)
(-706616 131984 -183177)
(-831845 71247 -215982)
(-931791 48891 -230486)
(-1.01071e+06 -38864.7 -278218)
(-38336.9 418710 -132369)
(-126355 416269 -148776)
(-276980 462605 -144249)
(-394280 434409 -188280)
(-513123 457541 -240687)
(-632314 497297 -238890)
(-814956 514904 -284641)
(-998032 486460 -284405)
(-1.15201e+06 360699 -339280)
(-1.23201e+06 212510 -353359)
(-62983.1 755076 -142978)
(-77859.6 783833 -118507)
(-240725 648302 -281349)
(-408977 687325 -249459)
(-360301 723569 -341347)
(-479603 919705 -373871)
(-728290 1.09869e+06 -415003)
(-1.14026e+06 1.12497e+06 -495357)
(-1.47969e+06 919925 -531059)
(-1.68939e+06 861342 -642156)
(19178.6 830879 -249195)
(-339903 762333 -358694)
(-469996 698888 -383153)
(-243744 867523 -549917)
(-48364.5 1.09453e+06 -617780)
(117926 1.4753e+06 -684873)
(-404431 2.04003e+06 -715456)
(-1.35556e+06 1.98192e+06 -892773)
(-1.67926e+06 2.52425e+06 -771411)
(-2.67107e+06 2.25711e+06 -1.22729e+06)
(-57114.1 124757 -376353)
(-209737 107893 -368165)
(-375802 147439 -364284)
(-466523 94097.4 -358910)
(-551846 29259.4 -340023)
(-653731 32482.8 -310909)
(-819179 -30358.1 -283763)
(-983236 -38228.6 -270654)
(-1.13094e+06 -125179 -276203)
(-1.28002e+06 -159091 -325748)
(-90840.5 397447 -399056)
(-164372 433666 -398765)
(-403394 241991 -469832)
(-702882 291681 -456800)
(-675075 174769 -482727)
(-772966 188394 -469273)
(-960602 143982 -469334)
(-1.17288e+06 39460.3 -482558)
(-1.37267e+06 -120216 -496069)
(-1.48264e+06 -369792 -552879)
(15323.9 568154 -518986)
(-520650 447964 -596553)
(-659773 266055 -658892)
(-600968 108707 -741031)
(-758420 120222 -704734)
(-715304 206133 -751706)
(-1.11705e+06 409385 -844479)
(-1.51163e+06 151578 -895462)
(-1.94945e+06 228516 -1.00094e+06)
(-2.20146e+06 -536940 -1.22164e+06)
(-331220 -11042.9 -1.02593e+06)
(-768569 -100599 -1.03162e+06)
(-1.08191e+06 290932 -891673)
(-994550 46682.1 -1.024e+06)
(-480223 118604 -1.1293e+06)
(-194639 143020 -1.31151e+06)
(-1.06971e+06 -72087.4 -1.41901e+06)
(-1.53462e+06 -193799 -1.64102e+06)
(-2.7497e+06 -948428 -1.91983e+06)
(-3.96982e+06 -1.23525e+06 -2.7336e+06)
(-31897.6 92720 -513617)
(-127027 89967.2 -499962)
(-247391 -20184.4 -469523)
(-321214 -17682.8 -424864)
(-332472 -77349.8 -373642)
(-414296 -127965 -290090)
(-577800 -164930 -188073)
(-807656 -267799 -45666.3)
(-1.10809e+06 -302893 123961)
(-1.34801e+06 -402274 352160)
(-37403 190498 -597845)
(-352836 50847.1 -579662)
(-462692 -8768.33 -587680)
(-435544 -176983 -538778)
(-553037 -125997 -457050)
(-589457 -207978 -409599)
(-857468 -382243 -327126)
(-1.08358e+06 -513233 -205097)
(-1.37704e+06 -798878 -126399)
(-1.89745e+06 -1.22092e+06 -121566)
(-311200 -247919 -854344)
(-525560 -228738 -854432)
(-703052 -26644.1 -739830)
(-555672 -220190 -794006)
(-394462 -310951 -769211)
(-926787 -427883 -836298)
(-1.18831e+06 -420790 -563314)
(-1.64093e+06 -728567 -414558)
(-2.52347e+06 -1.35809e+06 -378928)
(-3.37622e+06 -2.62781e+06 -338603)
(959.099 -1.2073e+06 -1.35819e+06)
(89713.5 -941139 -1.26111e+06)
(-445596 -941947 -1.22025e+06)
(-1.00416e+06 -833427 -1.17276e+06)
(-968422 -869536 -1.34872e+06)
(-809135 -320108 -933375)
(-1.45884e+06 -1.6193e+06 -600430)
(-2.95818e+06 -1.90103e+06 201056)
(-5.17554e+06 -2.25072e+06 -302636)
(-1.24731e+07 -9.06397e+06 -3.68559e+06)
(-13418.6 -10007.6 -445922)
(-68634 -19625.5 -446628)
(-135486 -41612.8 -442915)
(-159706 -88166.2 -430189)
(-120570 -104193 -395591)
(-59908.2 -158732 -345529)
(-37023.7 -252843 -258519)
(15270.5 -293319 -147448)
(142101 -525755 16715.9)
(-304676 -917052 124651)
(-32654.5 -147715 -551824)
(-131844 -133486 -556855)
(-272567 -190500 -493751)
(-284866 -298947 -479107)
(-261701 -458141 -397234)
(-357209 -685539 -316429)
(-306197 -456403 -211362)
(-530554 -550766 -56729)
(-1.10537e+06 -924839 116023)
(-2.01666e+06 -1.47501e+06 400577)
(15040.7 -648405 -759177)
(-154204 -642354 -671649)
(-466409 -746051 -646637)
(-694988 -905659 -521788)
(-893754 -1.30645e+06 -513976)
(-56432.6 -631908 -389412)
(232522 -27902.1 -192153)
(-921600 801422 33358.7)
(-1.70639e+06 -53462.5 559299)
(-7.37991e+06 -6.23938e+06 731560)
(-20552.8 -1.60742e+06 -926790)
(-327137 -1.86119e+06 -972349)
(-799176 -2.1588e+06 -1.07925e+06)
(-1.40565e+06 -2.71066e+06 -961819)
(285799 -1.41598e+06 -901264)
(2.19988e+06 -658262 -835208)
(2.56046e+06 3.16866e+06 -355126)
(-581675 6.52815e+06 -75023.4)
(-1.5187e+07 -1.00316e+07 -1.66281e+06)
(-1.94698e+07 -2.1233e+07 -285675)
(-34157.8 -76723.2 -178970)
(-117404 -86395.3 -185451)
(-194787 -101522 -194210)
(-169778 -95951.2 -203982)
(-61559.1 -79978.8 -197358)
(24335.1 -81405.7 -185542)
(56059.5 -89479.5 -171032)
(73094.9 -122649 -156453)
(-237376 -144003 -152962)
(-1.32323e+06 39207.2 -275039)
(-53502 -310709 -220667)
(-167002 -309187 -227182)
(-213899 -334724 -231654)
(-126691 -323540 -208848)
(-32468 -315414 -182224)
(5333.53 -278191 -137213)
(-26427.1 -276058 -68929.6)
(-35951.6 -223942 -49784.6)
(86336.7 69255 85633.7)
(-1.89297e+06 -249867 322623)
(-31112.6 -847864 -280841)
(-165434 -893529 -295264)
(-223494 -963450 -284350)
(-131157 -992530 -219353)
(29140.1 -1.1174e+06 -108153)
(103046 -1.25793e+06 69051.3)
(164557 -650812 -58316)
(763722 -757838 47812.3)
(-289226 -4.20421e+06 468347)
(-2.32794e+06 -3.72582e+06 490677)
(-144831 -1.72263e+06 -345329)
(-398172 -1.8959e+06 -384166)
(-411901 -2.079e+06 -367528)
(-434592 -2.28335e+06 -263143)
(-563266 -2.66723e+06 -64070.7)
(938509 -1.62806e+06 -528475)
(973754 -1.57821e+06 -458248)
(-7.14276e+06 -1.05638e+07 -1.02432e+06)
(-5.84962e+06 -1.75914e+07 -2.50859e+06)
(-8.00219e+06 -1.93837e+07 1.8936e+06)
)
;

boundaryField
{
    inlet
    {
        type            zeroGradient;
    }
    outlet
    {
        type            zeroGradient;
    }
    bottom
    {
        type            zeroGradient;
    }
    top
    {
        type            symmetryPlane;
    }
    side1
    {
        type            symmetryPlane;
    }
    side2
    {
        type            symmetryPlane;
    }
    procBoundary0to1
    {
        type            processor;
        value           nonuniform List<vector> 
20
(
(-1.08603e+06 -61758.6 -314648)
(-1.23459e+06 21356.9 -417604)
(-1.73982e+06 200393 -691080)
(-3.22784e+06 1.15742e+06 -1.17727e+06)
(-1.3534e+06 -226489 -381610)
(-1.4954e+06 -580934 -704020)
(-1.97916e+06 -1.01507e+06 -1.52807e+06)
(-3.49886e+06 -3.52005e+06 -4.98296e+06)
(-1.8129e+06 -577614 428756)
(-2.19655e+06 -1.81298e+06 -293280)
(-3.81627e+06 -6.64591e+06 -1.9972e+06)
(-6.46346e+06 -7.61143e+06 -5.14637e+06)
(-2.51446e+06 -1.38175e+06 24457.9)
(-4.94236e+06 -4.46246e+06 117424)
(-7.45587e+06 -8.78002e+06 886885)
(-1.44358e+07 -2.65314e+07 -265647)
(-4.39042e+06 -428869 -471261)
(-7.38548e+06 -433100 124288)
(-1.09868e+07 -7.25883e+06 2.04709e+06)
(-1.22828e+07 -2.05555e+07 1.07503e+06)
)
;
    }
    procBoundary0to8
    {
        type            processor;
        value           nonuniform List<vector> 
50
(
(-200076 97809.4 -669179)
(-341842 82792.1 -657839)
(-30344.4 529626 -536322)
(382318 875750 -762485)
(855260 1.50325e+06 -951304)
(1.41138e+06 2.36074e+06 -1.20655e+06)
(284944 2.90311e+06 -1.73507e+06)
(-171815 3.74564e+06 -1.85518e+06)
(-929303 3.29945e+06 -2.70148e+06)
(-4.42304e+06 1.61479e+06 -2.82488e+06)
(-163789 -1.15081e+06 -1.79285e+06)
(83299.6 -904720 -1.66122e+06)
(-365210 -696705 -1.68441e+06)
(-945624 -437710 -1.80412e+06)
(-565745 -99830.3 -1.93228e+06)
(-1.09669e+06 49878.8 -1.87384e+06)
(-1.79068e+06 -1.22022e+06 -3.13156e+06)
(-3.26431e+06 -2.29447e+06 -3.3223e+06)
(-4.03235e+06 -1.72518e+06 -3.98529e+06)
(-7.34469e+06 -4.06743e+06 -8.29732e+06)
(221116 -2.06223e+06 -1.85208e+06)
(5141.36 -2.1479e+06 -1.9548e+06)
(-487627 -2.51679e+06 -2.27091e+06)
(-410850 -2.49002e+06 -2.51734e+06)
(632175 -1.96091e+06 -1.72833e+06)
(-2.42631e+06 -3.35721e+06 -1.3371e+06)
(-4.35014e+06 -4.89825e+06 1.46215e+06)
(-2.90376e+06 -4.64516e+06 3.78666e+06)
(-1.68494e+07 -1.30083e+07 -6.05591e+06)
(-1.40977e+07 -1.41069e+07 -1.28372e+07)
(-492491 -2.95797e+06 -1.08126e+06)
(-1.25697e+06 -3.35158e+06 -1.26837e+06)
(-2.16535e+06 -4.11301e+06 -1.3573e+06)
(790652 -3.29475e+06 -1.42799e+06)
(3.21104e+06 -2.45705e+06 -1.63754e+06)
(9.11286e+06 337746 -1.20688e+06)
(1.46053e+07 1.69125e+06 -166472)
(-2.73221e+07 -2.11717e+07 -5.3809e+06)
(-5.72286e+07 -4.24913e+07 -9.02865e+06)
(-4.03795e+07 -4.3331e+07 -5.71826e+06)
(-377646 -2.2597e+06 -352846)
(-878179 -2.51525e+06 -316958)
(-998398 -2.95125e+06 -234476)
(-1.30761e+06 -3.84128e+06 47714.9)
(1.33971e+06 -3.71171e+06 -890184)
(2.28109e+06 -4.30283e+06 -537074)
(-1.7707e+07 -1.18718e+07 -3.02511e+06)
(-3.12627e+07 -2.37736e+07 -1.06347e+07)
(-1.79289e+07 -1.7322e+07 -4.25655e+06)
(-8.25609e+06 -2.41035e+07 1.64647e+06)
)
;
    }
}


// ************************************************************************* //
