/*--------------------------------*- C++ -*----------------------------------*\
| =========                 |                                                 |
| \\      /  F ield         | OpenFOAM: The Open Source CFD Toolbox           |
|  \\    /   O peration     | Version:  2.4.0                                 |
|   \\  /    A nd           | Web:      www.OpenFOAM.org                      |
|    \\/     M anipulation  |                                                 |
\*---------------------------------------------------------------------------*/
FoamFile
{
    version     2.0;
    format      ascii;
    class       volVectorField;
    location    "0.05";
    object      Ua;
}
// * * * * * * * * * * * * * * * * * * * * * * * * * * * * * * * * * * * * * //

dimensions      [0 1 -1 0 0 0 0];

internalField   nonuniform List<vector> 
200
(
(-1.06951e-27 5.86051e-27 -6.23728e-27)
(-2.90929e-27 1.5346e-26 -1.68147e-26)
(-1.23952e-24 7.80365e-25 -5.69234e-24)
(-1.58703e-20 9.57941e-21 -7.27847e-20)
(-2.32907e-16 1.40682e-16 -1.06816e-15)
(-3.67578e-12 2.22182e-12 -1.68579e-11)
(-5.99919e-08 3.62876e-08 -2.75135e-07)
(-0.000981382 0.000594031 -0.00450082)
(-4.23889 2.56761 -19.4404)
(-5.81511 3.52485 -26.6693)
(-7.41432e-23 4.08006e-22 -4.32395e-22)
(-1.57669e-22 8.59669e-22 -9.17441e-22)
(-1.56259e-20 1.10682e-20 -7.20217e-20)
(-1.85797e-16 1.13579e-16 -8.52107e-16)
(-2.61023e-12 1.59561e-12 -1.19711e-11)
(-3.99874e-08 2.44439e-08 -1.83391e-07)
(-0.000641531 0.000392162 -0.0029422)
(-3.73554 2.2835 -17.132)
(-5.81504 3.55468 -26.669)
(-5.81524 3.5548 -26.6699)
(-8.09491e-18 4.4546e-17 -4.72087e-17)
(-1.39957e-17 7.69183e-17 -8.15937e-17)
(-2.03028e-16 2.37467e-16 -9.58503e-16)
(-2.08747e-12 1.27623e-12 -9.57368e-12)
(-2.84483e-08 1.73901e-08 -1.3047e-07)
(-0.000428131 0.000261712 -0.0019635)
(-3.14117 1.92017 -14.4061)
(-5.81493 3.55461 -26.6685)
(-5.81523 3.5548 -26.6699)
(-5.81523 3.5548 -26.6699)
(-1.04055e-12 5.72613e-12 -6.0684e-12)
(-1.48931e-12 8.19562e-12 -8.68536e-12)
(-2.07861e-12 1.1434e-11 -1.20493e-11)
(-1.17885e-11 2.0789e-11 -5.7888e-11)
(-1.05674e-07 6.29341e-08 -4.88655e-07)
(-0.00137595 0.00082905 -0.00633908)
(-4.43239 2.69022 -20.3735)
(-5.80111 3.53545 -26.6303)
(-5.81067 3.54846 -26.6571)
(-5.81437 3.55357 -26.6674)
(-2.07862e-22 1.13932e-21 -1.21223e-21)
(-4.37331e-22 2.39646e-21 -2.55037e-21)
(-8.7132e-22 4.7595e-21 -4.9993e-21)
(-3.23676e-20 2.59672e-20 -1.53702e-19)
(-3.88213e-16 2.23256e-16 -1.8069e-15)
(-5.28531e-12 3.11057e-12 -2.4434e-11)
(-7.45141e-08 4.44735e-08 -3.43065e-07)
(-0.00105338 0.000633747 -0.00483875)
(-4.14566 2.5046 -19.0223)
(-5.81293 3.5189 -26.6612)
(-1.32466e-17 7.28956e-17 -7.72529e-17)
(-2.28678e-17 1.25841e-16 -1.33359e-16)
(-3.79446e-17 2.08665e-16 -2.18558e-16)
(-3.56508e-16 4.81481e-16 -1.77543e-15)
(-3.65383e-12 2.00657e-12 -1.72998e-11)
(-4.89275e-08 2.82691e-08 -2.28298e-07)
(-0.000683402 0.000406603 -0.00316071)
(-3.60652 2.17994 -16.5983)
(-5.79598 3.5299 -26.6115)
(-5.81138 3.54952 -26.6577)
(-1.36349e-12 7.50323e-12 -7.95172e-12)
(-1.95154e-12 1.07393e-11 -1.13809e-11)
(-2.72282e-12 1.49822e-11 -1.57502e-11)
(-6.15474e-12 2.08937e-11 -3.47105e-11)
(-3.14851e-08 1.24491e-08 -1.60694e-07)
(-0.000431857 0.000215365 -0.0020967)
(-2.87726 1.60413 -13.5651)
(-5.639 3.32138 -26.1615)
(-5.75643 3.47722 -26.4993)
(-5.80355 3.53947 -26.6358)
(-1.68845e-07 9.29145e-07 -9.84683e-07)
(-2.01651e-07 1.10968e-06 -1.17599e-06)
(-2.3785e-07 1.30888e-06 -1.38172e-06)
(-2.59815e-07 1.48487e-06 -1.58877e-06)
(0.000118652 -0.000273273 6.05469e-05)
(0.717361 -1.65916 0.374287)
(4.61423 -10.6825 2.38373)
(4.55402 -10.5673 2.29566)
(4.43143 -10.3567 2.05823)
(3.99704 -9.71522 0.964697)
(-4.95161e-17 2.71477e-16 -2.88773e-16)
(-8.54524e-17 4.68381e-16 -4.98335e-16)
(-1.41615e-16 7.76093e-16 -8.15865e-16)
(-5.43704e-17 8.42807e-16 -1.18332e-15)
(1.21064e-12 -2.7803e-12 6.39682e-13)
(8.66083e-09 -1.99297e-08 4.61394e-09)
(5.83458e-05 -0.000134701 3.15362e-05)
(0.310868 -0.723992 0.175798)
(3.3428 -8.04055 2.24635)
(3.23955 -9.30093 4.4775)
(-2.97568e-12 1.63751e-11 -1.73539e-11)
(-4.2586e-12 2.34349e-11 -2.48351e-11)
(-5.93998e-12 3.2689e-11 -3.43311e-11)
(-4.57477e-12 3.63555e-11 -4.41228e-11)
(2.42335e-08 -5.59642e-08 1.27389e-08)
(0.000171581 -0.000396604 9.06539e-05)
(0.890765 -2.06038 0.471612)
(3.77993 -8.76016 2.01519)
(3.65753 -8.53926 2.01154)
(3.48798 -8.54201 2.38034)
(-2.95018e-07 1.62347e-06 -1.72052e-06)
(-3.52334e-07 1.93888e-06 -2.05474e-06)
(-4.15561e-07 2.28686e-06 -2.41063e-06)
(-3.78982e-07 2.42109e-06 -2.7253e-06)
(0.000719209 -0.00165963 0.000376766)
(2.32668 -5.37492 1.22813)
(4.21412 -9.7357 2.22377)
(4.1357 -9.55577 2.18001)
(4.03869 -9.33545 2.12037)
(3.90539 -9.04705 2.00387)
(-0.0352329 0.193885 -0.205475)
(-0.0352194 0.193811 -0.205394)
(-0.0352065 0.193741 -0.20488)
(-0.0321107 0.186472 -0.20213)
(3.81739 -8.79738 1.983)
(4.64304 -10.7251 2.45333)
(4.60433 -10.6358 2.43355)
(4.55768 -10.5281 2.40955)
(4.50064 -10.3963 2.38003)
(4.4292 -10.2313 2.34286)
(-8.33488e-12 4.57089e-11 -4.86082e-11)
(-1.19241e-11 6.53754e-11 -6.95383e-11)
(-1.66224e-11 9.11263e-11 -9.60921e-11)
(9.10868e-12 5.10697e-11 -1.11871e-10)
(2.1777e-07 -4.99987e-07 1.14965e-07)
(0.00152716 -0.00350987 0.000810449)
(2.60148 -5.98781 1.39336)
(3.36502 -7.77334 1.8512)
(3.22222 -7.54339 1.96098)
(3.12425 -7.95161 3.13086)
(-4.82671e-07 2.65612e-06 -2.81489e-06)
(-5.76362e-07 3.1717e-06 -3.36122e-06)
(-6.79621e-07 3.74024e-06 -3.94029e-06)
(-1.56952e-07 2.89022e-06 -4.20431e-06)
(0.00431024 -0.00995449 0.00226837)
(3.44531 -7.95995 1.81892)
(3.78887 -8.75553 2.00459)
(3.6729 -8.49294 1.9542)
(3.53521 -8.19543 1.92126)
(3.38034 -7.97714 2.10475)
(-0.0458988 0.252579 -0.267677)
(-0.0458789 0.25247 -0.267558)
(-0.0458587 0.252368 -0.266691)
(-0.0273218 0.208873 -0.254217)
(4.13864 -9.55528 2.17405)
(4.21593 -9.73867 2.22358)
(4.13825 -9.55923 2.18348)
(4.04499 -9.34383 2.13513)
(3.931 -9.0805 2.07578)
(3.78841 -8.75115 2.00127)
(-1.96989 10.8402 -11.4882)
(-1.96978 10.8396 -11.4875)
(-1.97125 10.8479 -11.4866)
(-1.55224 9.49218 -10.5979)
(4.63112 -10.6861 2.42355)
(4.6044 -10.636 2.42956)
(4.55777 -10.5283 2.40594)
(4.50077 -10.3966 2.37681)
(4.42949 -10.232 2.34011)
(4.33773 -10.0201 2.29255)
(-4.82192e-11 2.64366e-10 -2.79576e-10)
(-6.67356e-11 3.66213e-10 -3.8401e-10)
(5.41392e-10 -9.53081e-10 -1.82604e-10)
(3.80344e-06 -8.73008e-06 1.98934e-06)
(0.0254378 -0.058415 0.0133195)
(3.42515 -7.86876 1.79486)
(3.36098 -7.72461 1.7626)
(3.20566 -7.37075 1.68243)
(3.01927 -6.94511 1.58578)
(2.79145 -6.4238 1.4672)
(-2.32004e-06 1.27671e-05 -1.34573e-05)
(-2.72603e-06 1.50099e-05 -1.57262e-05)
(9.47127e-06 -1.17369e-05 -1.14797e-05)
(0.0739446 -0.170799 0.0387042)
(3.858 -8.91189 2.02193)
(3.78892 -8.75232 1.98731)
(3.6724 -8.48316 1.92771)
(3.53257 -8.16015 1.85576)
(3.36166 -7.76535 1.76732)
(3.14799 -7.27177 1.65621)
(-0.171803 0.945426 -0.99696)
(-0.171721 0.945208 -0.993633)
(0.158429 0.142492 -0.748808)
(4.27258 -9.8684 2.23757)
(4.21615 -9.7392 2.21164)
(4.13847 -9.55976 2.17264)
(4.04524 -9.34441 2.1254)
(3.9313 -9.0812 2.06717)
(3.78885 -8.75215 1.99382)
(3.60565 -8.32895 1.89887)
(-1.97039 10.843 -11.4388)
(-1.97161 10.8506 -11.4332)
(-0.295939 5.40021 -7.92299)
(4.64059 -10.717 2.43014)
(4.60453 -10.6363 2.41756)
(4.55792 -10.5287 2.39504)
(4.50094 -10.3971 2.36702)
(4.42971 -10.2325 2.33144)
(4.33811 -10.0209 2.28506)
(4.21589 -9.73859 2.22244)
)
;

boundaryField
{
    inlet
    {
        type            calculated;
        value           uniform (0 0 0);
    }
    outlet
    {
        type            calculated;
        value           nonuniform 0();
    }
    bottom
    {
        type            calculated;
        value           uniform (0 0 0);
    }
    top
    {
        type            symmetryPlane;
    }
    side1
    {
        type            symmetryPlane;
    }
    side2
    {
        type            symmetryPlane;
    }
    procBoundary0to1
    {
        type            processor;
        value           nonuniform List<vector> 
20
(
(-5.81523 3.5274 -26.6699)
(-5.81523 3.5548 -26.6699)
(-5.81523 3.5548 -26.6699)
(-5.81523 3.5548 -26.6699)
(-5.81463 3.52324 -26.6667)
(-5.81498 3.55407 -26.6686)
(-5.81522 3.55479 -26.6699)
(-5.72215 3.43303 -26.398)
(3.97981 -24.1399 26.5037)
(3.02089 -21.5948 21.1062)
(-4.33396 1.68951 -22.1345)
(3.92794 -9.07666 2.06932)
(5.1607 -27.4499 32.8485)
(5.11502 -27.3395 32.1526)
(3.36369 -7.79149 1.81601)
(3.7887 -8.7518 2.00138)
(2.51466 -5.83034 1.4089)
(2.79359 -6.46288 1.48669)
(3.14811 -7.27206 1.65625)
(3.60582 -8.32934 1.89895)
)
;
    }
    procBoundary0to8
    {
        type            processor;
        value           nonuniform List<vector> 
50
(
(-1.37365e-07 7.55915e-07 -8.01091e-07)
(-1.64047e-07 9.02744e-07 -9.56699e-07)
(-1.93488e-07 1.06476e-06 -1.12839e-06)
(-2.22652e-07 1.23414e-06 -1.31132e-06)
(1.90461e-05 -4.35974e-05 7.67641e-06)
(0.133617 -0.313477 0.0593634)
(4.71353 -11.1907 1.7883)
(4.42308 -10.8094 0.957683)
(3.5614 -9.60549 -1.35155)
(0.69064 -5.5854 -9.07185)
(-0.0216515 0.119148 -0.126268)
(-0.0216428 0.1191 -0.126218)
(-0.0216339 0.119051 -0.126166)
(-0.0212861 0.118215 -0.125836)
(1.58092 -3.60382 0.757517)
(5.06879 -11.7071 2.68045)
(5.07036 -11.7114 2.68197)
(5.07036 -11.7118 2.6826)
(5.07028 -11.712 2.68316)
(5.06993 -11.7114 2.68352)
(-1.96975 10.8395 -11.4873)
(-1.96958 10.8385 -11.4863)
(-1.9694 10.8375 -11.4853)
(-1.91054 10.6495 -11.3653)
(4.96795 -11.3829 2.47295)
(5.07042 -11.7116 2.6798)
(5.07044 -11.712 2.68063)
(5.07043 -11.7123 2.68141)
(5.07035 -11.7123 2.68214)
(5.07006 -11.7117 2.68274)
(-1.97059 10.8441 -11.4921)
(-1.97058 10.844 -11.4921)
(-1.97057 10.844 -11.4921)
(-1.862 10.4962 -11.2737)
(5.02292 -11.5597 2.57976)
(5.07051 -11.7124 2.67665)
(5.07052 -11.7125 2.67779)
(5.07049 -11.7126 2.6789)
(5.07041 -11.7125 2.67997)
(5.07015 -11.7119 2.68095)
(-1.97058 10.844 -11.4447)
(-1.97049 10.8438 -11.4399)
(-1.4619 9.21441 -10.4171)
(5.05962 -11.6778 2.64049)
(5.0706 -11.713 2.66467)
(5.07059 -11.7129 2.66686)
(5.07058 -11.7129 2.66905)
(5.07054 -11.7128 2.67123)
(5.07047 -11.7127 2.6734)
(5.07025 -11.7122 2.67548)
)
;
    }
}


// ************************************************************************* //
