/*--------------------------------*- C++ -*----------------------------------*\
| =========                 |                                                 |
| \\      /  F ield         | OpenFOAM: The Open Source CFD Toolbox           |
|  \\    /   O peration     | Version:  2.4.0                                 |
|   \\  /    A nd           | Web:      www.OpenFOAM.org                      |
|    \\/     M anipulation  |                                                 |
\*---------------------------------------------------------------------------*/
FoamFile
{
    version     2.0;
    format      ascii;
    class       volScalarField;
    location    "0.01";
    object      p;
}
// * * * * * * * * * * * * * * * * * * * * * * * * * * * * * * * * * * * * * //

dimensions      [1 -1 -2 0 0 0 0];

internalField   nonuniform List<scalar> 
40
(
-4.27237e+13
-2.61398e+13
-1.50242e+13
-9.55517e+12
-3.84012e+12
-8.25108e+13
-5.52186e+13
-2.8077e+13
-1.67119e+13
-7.40798e+12
-1.26541e+14
-9.41856e+13
-5.15494e+13
-2.48358e+13
-8.097e+12
-1.68192e+14
-1.29724e+14
-7.70125e+13
-3.92637e+13
-1.27644e+13
-4.30322e+13
-2.8518e+13
-1.87892e+13
-1.10417e+13
-3.81865e+12
-9.23706e+13
-5.88981e+13
-3.61446e+13
-1.98348e+13
-6.64653e+12
-1.37655e+14
-9.10669e+13
-4.78134e+13
-2.45681e+13
-8.03911e+12
-1.6561e+14
-9.65887e+13
-5.35452e+13
-2.79313e+13
-8.80936e+12
)
;

boundaryField
{
    inlet
    {
        type            zeroGradient;
    }
    outlet
    {
        type            fixedValue;
        value           uniform 0;
    }
    bottom
    {
        type            zeroGradient;
    }
    top
    {
        type            symmetryPlane;
    }
    side1
    {
        type            symmetryPlane;
    }
    side2
    {
        type            symmetryPlane;
    }
    procBoundary47to31
    {
        type            processor;
        value           nonuniform List<scalar> 10(-1.4418e+13 -9.34719e+12 -5.54747e+12 -2.78632e+12 -8.34662e+11 -1.41402e+13 -9.7535e+12 -6.0989e+12 -2.69763e+12 -7.22882e+11);
    }
    procBoundary47to46
    {
        type            processor;
        value           nonuniform List<scalar> 8(-6.12029e+13 -1.10243e+14 -1.54865e+14 -2.09584e+14 -6.51201e+13 -1.2073e+14 -1.7822e+14 -2.62631e+14);
    }
    procBoundary47to63
    {
        type            processor;
        value           nonuniform List<scalar> 10(-2.14784e+14 -1.45589e+14 -8.59389e+13 -4.7006e+13 -1.587e+13 -2.21552e+14 -1.15557e+14 -6.06911e+13 -3.32092e+13 -1.17065e+13);
    }
    procBoundary47to111
    {
        type            processor;
        value           nonuniform List<scalar> 
20
(
-3.92022e+13
-2.43159e+13
-1.43114e+13
-7.63475e+12
-2.24583e+12
-9.93175e+13
-6.56567e+13
-3.78561e+13
-2.01248e+13
-6.42689e+12
-1.32109e+14
-6.68126e+13
-3.79815e+13
-2.33866e+13
-9.25249e+12
-1.42041e+14
-6.1453e+13
-3.73956e+13
-2.35755e+13
-9.24486e+12
)
;
    }
}


// ************************************************************************* //
