/*--------------------------------*- C++ -*----------------------------------*\
| =========                 |                                                 |
| \\      /  F ield         | OpenFOAM: The Open Source CFD Toolbox           |
|  \\    /   O peration     | Version:  2.4.0                                 |
|   \\  /    A nd           | Web:      www.OpenFOAM.org                      |
|    \\/     M anipulation  |                                                 |
\*---------------------------------------------------------------------------*/
FoamFile
{
    version     2.0;
    format      ascii;
    class       volVectorField;
    location    "0.09";
    object      A_Source;
}
// * * * * * * * * * * * * * * * * * * * * * * * * * * * * * * * * * * * * * //

dimensions      [1 -2 -2 0 0 0 0];

internalField   nonuniform List<vector> 
200
(
(-2.89155e-162 -2.21135e-162 1.10685e-162)
(-1.34482e-164 -1.02824e-164 5.14783e-165)
(-6.28662e-167 -4.80552e-167 2.40645e-167)
(-2.9517e-169 -2.25572e-169 1.12988e-169)
(-1.39097e-171 -1.06272e-171 5.3245e-172)
(-6.57442e-174 -5.02156e-174 2.51662e-174)
(-3.11466e-176 -2.37833e-176 1.19226e-176)
(-1.47817e-178 -1.12841e-178 5.65829e-179)
(-7.02391e-181 -5.36041e-181 2.68868e-181)
(-3.3561e-183 -2.56054e-183 1.28468e-183)
(-2.90016e-164 -2.2214e-164 1.11015e-164)
(-1.36741e-166 -1.04719e-166 5.23432e-167)
(-6.44165e-169 -4.93219e-169 2.4658e-169)
(-3.03354e-171 -2.32224e-171 1.16121e-171)
(-1.42868e-173 -1.09346e-173 5.46883e-174)
(-6.73104e-176 -5.15062e-176 2.57657e-176)
(-3.17306e-178 -2.42751e-178 1.21461e-178)
(-1.49685e-180 -1.14489e-180 5.72978e-181)
(-7.06654e-183 -5.40369e-183 2.705e-183)
(-3.3544e-185 -2.56445e-185 1.28403e-185)
(-2.51802e-166 -1.93122e-166 9.6387e-167)
(-1.20829e-168 -9.26547e-169 4.62521e-169)
(-5.78543e-171 -4.43563e-171 2.2146e-171)
(-2.76478e-173 -2.11935e-173 1.05833e-173)
(-1.31904e-175 -1.01093e-175 5.04913e-176)
(-6.28399e-178 -4.81531e-178 2.40544e-178)
(-2.9902e-180 -2.29092e-180 1.14462e-180)
(-1.4215e-182 -1.08887e-182 5.44134e-183)
(-6.75241e-185 -5.17137e-185 2.58475e-185)
(-3.22084e-187 -2.46622e-187 1.2329e-187)
(-1.98856e-168 -1.52688e-168 7.61199e-169)
(-9.67765e-171 -7.42951e-171 3.7045e-171)
(-4.69977e-173 -3.60739e-173 1.79902e-173)
(-2.27763e-175 -1.74794e-175 8.71853e-176)
(-1.1016e-177 -8.45268e-178 4.21681e-178)
(-5.31791e-180 -4.0798e-180 2.03564e-180)
(-2.56262e-182 -1.96567e-182 9.80944e-183)
(-1.23284e-184 -9.45496e-185 4.71918e-185)
(-5.92192e-187 -4.54091e-187 2.26685e-187)
(-2.8542e-189 -2.18823e-189 1.09256e-189)
(-9.48025e-164 -7.24849e-164 3.62894e-164)
(-4.4626e-166 -3.41128e-166 1.70823e-166)
(-2.11112e-168 -1.61338e-168 8.08116e-169)
(-1.00296e-170 -7.66296e-171 3.83922e-171)
(-4.78171e-173 -3.65243e-173 1.83039e-173)
(-2.28622e-175 -1.74582e-175 8.75142e-176)
(-1.0955e-177 -8.36321e-178 4.19345e-178)
(-5.25788e-180 -4.01283e-180 2.01266e-180)
(-2.52635e-182 -1.92758e-182 9.6706e-183)
(-1.22052e-184 -9.30983e-185 4.67204e-185)
(-9.62473e-166 -7.37062e-166 3.68425e-166)
(-4.59238e-168 -3.51619e-168 1.75791e-168)
(-2.18898e-170 -1.6757e-170 8.3792e-171)
(-1.0429e-172 -7.98196e-173 3.9921e-173)
(-4.96838e-175 -3.80184e-175 1.90184e-175)
(-2.36751e-177 -1.81126e-177 9.06257e-178)
(-1.12866e-179 -8.63287e-180 4.32038e-180)
(-5.38369e-182 -4.11695e-182 2.06082e-182)
(-2.56964e-184 -1.96457e-184 9.83633e-185)
(-1.23315e-186 -9.42552e-187 4.72037e-187)
(-8.4569e-168 -6.48489e-168 3.23721e-168)
(-4.10615e-170 -3.1481e-170 1.57179e-170)
(-1.98906e-172 -1.5247e-172 7.6139e-173)
(-9.61523e-175 -7.3692e-175 3.68061e-175)
(-4.63966e-177 -3.55525e-177 1.77601e-177)
(-2.2353e-179 -1.71255e-179 8.55651e-180)
(-1.07552e-181 -8.23845e-182 4.11697e-182)
(-5.16922e-184 -3.95888e-184 1.97872e-184)
(-2.48225e-186 -1.90069e-186 9.5018e-187)
(-1.19684e-188 -9.16255e-189 4.58137e-189)
(-6.75784e-170 -5.18797e-170 2.58683e-170)
(-3.32728e-172 -2.5539e-172 1.27365e-172)
(-1.6345e-174 -1.25437e-174 6.2567e-175)
(-8.01167e-177 -6.14739e-177 3.06678e-177)
(-3.91865e-179 -3.00629e-179 1.50002e-179)
(-1.9128e-181 -1.46721e-181 7.32201e-182)
(-9.31914e-184 -7.14704e-184 3.56727e-184)
(-4.53217e-186 -3.47524e-186 1.73487e-186)
(-2.20048e-188 -1.68703e-188 8.42322e-189)
(-1.07193e-190 -8.21673e-191 4.10324e-191)
(-1.59063e-165 -1.21589e-165 6.08876e-166)
(-7.57818e-168 -5.79153e-168 2.90085e-168)
(-3.62794e-170 -2.77194e-170 1.38874e-170)
(-1.74397e-172 -1.33215e-172 6.67573e-173)
(-8.41188e-175 -6.42379e-175 3.21998e-175)
(-4.06841e-177 -3.10603e-177 1.55734e-177)
(-1.97178e-179 -1.50494e-179 7.54777e-180)
(-9.57073e-182 -7.3027e-182 3.66357e-182)
(-4.65008e-184 -3.54713e-184 1.78e-184)
(-2.27152e-186 -1.73225e-186 8.69513e-187)
(-1.63459e-167 -1.25151e-167 6.25704e-168)
(-7.89267e-170 -6.04182e-170 3.02123e-170)
(-3.80657e-172 -2.91337e-172 1.45711e-172)
(-1.83476e-174 -1.40396e-174 7.02325e-175)
(-8.84176e-177 -6.76438e-177 3.38453e-177)
(-4.26135e-179 -3.25945e-179 1.6312e-179)
(-2.05444e-181 -1.57107e-181 7.86417e-182)
(-9.90909e-184 -7.57597e-184 3.79309e-184)
(-4.78186e-186 -3.65511e-186 1.83044e-186)
(-2.31996e-188 -1.77288e-188 8.88056e-189)
(-1.45349e-169 -1.11435e-169 5.56381e-170)
(-7.14074e-172 -5.47361e-172 2.7334e-172)
(-3.49947e-174 -2.68199e-174 1.33956e-174)
(-1.71121e-176 -1.31124e-176 6.55033e-177)
(-8.35142e-179 -6.39826e-179 3.19683e-179)
(-4.06898e-181 -3.11681e-181 1.55756e-181)
(-1.97964e-183 -1.51611e-183 7.57786e-184)
(-9.61969e-186 -7.36591e-186 3.68232e-186)
(-4.66979e-188 -3.57503e-188 1.78754e-188)
(-2.276e-190 -1.74209e-190 8.71229e-191)
(-1.17523e-171 -9.02062e-172 4.49866e-172)
(-5.854e-174 -4.49253e-174 2.24085e-174)
(-2.90897e-176 -2.23205e-176 1.11352e-176)
(-1.44214e-178 -1.10637e-178 5.52036e-179)
(-7.1334e-181 -5.47161e-181 2.73059e-181)
(-3.52088e-183 -2.70021e-183 1.34776e-183)
(-1.7343e-185 -1.32984e-185 6.63871e-186)
(-8.52646e-188 -6.53689e-188 3.26384e-188)
(-4.18451e-190 -3.20755e-190 1.60178e-190)
(-2.06029e-192 -1.57901e-192 7.88658e-193)
(-1.80593e-167 -1.38015e-167 6.91289e-168)
(-8.70715e-170 -6.65279e-170 3.33301e-170)
(-4.21787e-172 -3.22193e-172 1.61456e-172)
(-2.05134e-174 -1.56657e-174 7.85231e-175)
(-1.00092e-176 -7.64184e-177 3.83143e-177)
(-4.89651e-179 -3.73737e-179 1.87433e-179)
(-2.40005e-181 -1.83138e-181 9.18714e-182)
(-1.17802e-183 -8.98649e-184 4.50934e-184)
(-5.78712e-186 -4.41344e-186 2.21525e-186)
(-2.85814e-188 -2.17909e-188 1.09407e-188)
(-1.87829e-169 -1.43779e-169 7.18989e-170)
(-9.17692e-172 -7.02343e-172 3.51283e-172)
(-4.47782e-174 -3.42639e-174 1.71406e-174)
(-2.1833e-176 -1.67032e-176 8.35743e-177)
(-1.06419e-178 -8.13985e-179 4.0736e-179)
(-5.187e-181 -3.96664e-181 1.98553e-181)
(-2.52871e-183 -1.93335e-183 9.67962e-184)
(-1.23317e-185 -9.42619e-186 4.72044e-186)
(-6.01614e-188 -4.59759e-188 2.30291e-188)
(-2.95057e-190 -2.25431e-190 1.12945e-190)
(-1.69005e-171 -1.29546e-171 6.46934e-172)
(-8.40026e-174 -6.43784e-174 3.21553e-174)
(-4.16443e-176 -3.191e-176 1.5941e-176)
(-2.05969e-178 -1.57796e-178 7.88427e-179)
(-1.0166e-180 -7.78693e-181 3.89142e-181)
(-5.00851e-183 -3.83574e-183 1.9172e-183)
(-2.46372e-185 -1.88648e-185 9.43085e-186)
(-1.2103e-187 -9.26567e-188 4.63292e-188)
(-5.93894e-190 -4.54578e-190 2.27336e-190)
(-2.92573e-192 -2.23898e-192 1.11994e-192)
(-1.38255e-173 -1.061e-173 5.29224e-174)
(-6.96648e-176 -5.34534e-176 2.66669e-176)
(-3.50143e-178 -2.68617e-178 1.34031e-178)
(-1.75552e-180 -1.34654e-180 6.71994e-181)
(-8.78072e-183 -6.73399e-183 3.36117e-183)
(-4.38195e-185 -3.35998e-185 1.67736e-185)
(-2.18207e-187 -1.67289e-187 8.35273e-188)
(-1.08441e-189 -8.31223e-190 4.15099e-190)
(-5.37892e-192 -4.12238e-192 2.05899e-192)
(-2.67659e-194 -2.05098e-194 1.02457e-194)
(-1.569e-169 -1.1988e-169 5.9226e-170)
(-7.65525e-172 -5.84771e-172 2.8892e-172)
(-3.75215e-174 -2.86551e-174 1.41588e-174)
(-1.84618e-176 -1.40956e-176 6.96545e-177)
(-9.11233e-179 -6.95544e-179 3.43743e-179)
(-4.50874e-181 -3.44058e-181 1.70055e-181)
(-2.23499e-183 -1.70503e-183 8.42825e-184)
(-1.10928e-185 -8.46013e-186 4.18247e-186)
(-5.50979e-188 -4.20094e-188 2.07708e-188)
(-2.75113e-190 -2.09701e-190 1.03695e-190)
(-1.65153e-171 -1.26394e-171 6.23311e-172)
(-8.16437e-174 -6.24717e-174 3.08084e-174)
(-4.03028e-176 -3.08329e-176 1.52059e-176)
(-1.98778e-178 -1.52041e-178 7.49846e-179)
(-9.7995e-181 -7.49394e-181 3.69604e-181)
(-4.83035e-183 -3.69312e-183 1.82155e-183)
(-2.38114e-185 -1.82014e-185 8.97792e-186)
(-1.17404e-187 -8.9723e-188 4.4259e-188)
(-5.79029e-190 -4.42405e-190 2.18247e-190)
(-2.87068e-192 -2.1928e-192 1.08183e-192)
(-1.50363e-173 -1.15234e-173 5.67397e-174)
(-7.56098e-176 -5.7935e-176 2.85268e-176)
(-3.79165e-178 -2.9048e-178 1.43032e-178)
(-1.89673e-180 -1.45284e-180 7.15384e-181)
(-9.46737e-183 -7.25043e-183 3.57019e-183)
(-4.71642e-185 -3.61135e-185 1.77829e-185)
(-2.34566e-187 -1.79574e-187 8.8427e-188)
(-1.1649e-189 -8.91635e-190 4.39073e-190)
(-5.77794e-192 -4.4217e-192 2.17746e-192)
(-2.87702e-194 -2.20127e-194 1.08404e-194)
(-1.24443e-175 -9.5484e-176 4.69512e-176)
(-6.34299e-178 -4.86607e-178 2.39275e-178)
(-3.22447e-180 -2.47326e-180 1.21616e-180)
(-1.63492e-182 -1.25382e-182 6.16534e-183)
(-8.26884e-185 -6.3403e-185 3.1177e-185)
(-4.17208e-187 -3.1985e-187 1.57279e-187)
(-2.10027e-189 -1.60989e-189 7.9163e-190)
(-1.05504e-191 -8.08568e-192 3.97598e-192)
(-5.28922e-194 -4.05292e-194 1.99295e-194)
(-2.65995e-196 -2.03786e-196 1.00209e-196)
)
;

boundaryField
{
    inlet
    {
        type            zeroGradient;
    }
    outlet
    {
        type            zeroGradient;
    }
    bottom
    {
        type            zeroGradient;
    }
    top
    {
        type            symmetryPlane;
    }
    side1
    {
        type            symmetryPlane;
    }
    side2
    {
        type            symmetryPlane;
    }
    procBoundary23to15
    {
        type            processor;
        value           nonuniform List<vector> 
50
(
(-3.92801e-159 -2.99652e-159 1.5036e-159)
(-1.82273e-161 -1.39012e-161 6.9772e-162)
(-8.44772e-164 -6.44104e-164 3.2337e-164)
(-3.91055e-166 -2.98085e-166 1.49692e-166)
(-1.80812e-168 -1.3779e-168 6.92128e-169)
(-8.35065e-171 -6.36206e-171 3.19654e-171)
(-3.85242e-173 -2.93426e-173 1.47467e-173)
(-1.77535e-175 -1.35188e-175 6.79585e-176)
(-8.17312e-178 -6.22198e-178 3.12858e-178)
(-3.7762e-180 -2.87397e-180 1.44549e-180)
(-1.28605e-160 -9.80819e-161 4.92286e-161)
(-6.04008e-163 -4.60532e-163 2.31208e-163)
(-2.83291e-165 -2.15941e-165 1.08441e-165)
(-1.3269e-167 -1.01118e-167 5.07924e-168)
(-6.2069e-170 -4.72881e-170 2.37594e-170)
(-2.89972e-172 -2.20862e-172 1.10998e-172)
(-1.353e-174 -1.03027e-174 5.17915e-175)
(-6.30551e-177 -4.80021e-177 2.41368e-177)
(-2.93521e-179 -2.23392e-179 1.12357e-179)
(-1.37116e-181 -1.04329e-181 5.24867e-182)
(-2.15481e-162 -1.64295e-162 8.24837e-163)
(-1.02429e-164 -7.80775e-165 3.92088e-165)
(-4.86161e-167 -3.70484e-167 1.86097e-167)
(-2.30405e-169 -1.75537e-169 8.81966e-170)
(-1.09037e-171 -8.30494e-172 4.17382e-172)
(-5.15279e-174 -3.92367e-174 1.97243e-174)
(-2.43173e-176 -1.8512e-176 9.30839e-177)
(-1.14607e-178 -8.7224e-179 4.38703e-179)
(-5.39447e-181 -4.10452e-181 2.06495e-181)
(-2.54793e-183 -1.93815e-183 9.75319e-184)
(-2.44317e-164 -1.86233e-164 9.35218e-165)
(-1.1753e-166 -8.95649e-167 4.49893e-167)
(-5.64451e-169 -4.30032e-169 2.16066e-169)
(-2.70644e-171 -2.06139e-171 1.036e-171)
(-1.29563e-173 -9.86575e-174 4.95954e-174)
(-6.19291e-176 -4.71444e-176 2.37058e-176)
(-2.95567e-178 -2.24946e-178 1.1314e-178)
(-1.40859e-180 -1.07176e-180 5.39194e-181)
(-6.70354e-183 -5.09922e-183 2.56604e-183)
(-3.20105e-185 -2.43433e-185 1.22533e-185)
(-2.11981e-166 -1.61541e-166 8.00193e-167)
(-1.03194e-168 -7.8619e-169 3.89477e-169)
(-5.01457e-171 -3.81938e-171 1.89229e-171)
(-2.43248e-173 -1.85223e-173 9.17768e-174)
(-1.17793e-175 -8.96707e-176 4.44356e-176)
(-5.69456e-178 -4.33392e-178 2.14784e-178)
(-2.74851e-180 -2.09124e-180 1.0365e-180)
(-1.32449e-182 -1.0075e-182 4.99399e-183)
(-6.37289e-185 -4.84641e-185 2.40251e-185)
(-3.07656e-187 -2.33903e-187 1.15964e-187)
)
;
    }
    procBoundary23to22
    {
        type            processor;
        value           nonuniform List<vector> 
20
(
(-6.45361e-159 -4.93363e-159 2.47037e-159)
(-5.42646e-161 -4.15615e-161 2.07719e-161)
(-4.60436e-163 -3.53166e-163 1.7625e-163)
(-3.67588e-165 -2.82264e-165 1.40709e-165)
(-2.11162e-160 -1.6139e-160 8.08305e-161)
(-1.79661e-162 -1.37575e-162 6.87724e-163)
(-1.54271e-164 -1.18308e-164 5.90534e-165)
(-1.2463e-166 -9.56845e-167 4.77071e-167)
(-3.53587e-162 -2.70181e-162 1.3535e-162)
(-3.04407e-164 -2.33049e-164 1.16524e-164)
(-2.64519e-166 -2.02816e-166 1.01255e-166)
(-2.16241e-168 -1.65989e-168 8.27749e-169)
(-4.0066e-164 -3.06077e-164 1.53368e-164)
(-3.48984e-166 -2.6712e-166 1.33587e-166)
(-3.06856e-168 -2.35232e-168 1.17461e-168)
(-2.53812e-170 -1.94795e-170 9.71564e-171)
(-3.47422e-166 -2.65344e-166 1.31147e-166)
(-3.06155e-168 -2.34287e-168 1.15551e-168)
(-2.72381e-170 -2.08763e-170 1.02787e-170)
(-2.27946e-172 -1.74912e-172 8.60045e-173)
)
;
    }
    procBoundary23to31
    {
        type            processor;
        value           nonuniform List<vector> 
50
(
(-6.66362e-172 -5.1228e-172 2.55076e-172)
(-3.26053e-174 -2.5062e-174 1.2481e-174)
(-1.60034e-176 -1.22989e-176 6.12592e-177)
(-7.87341e-179 -6.04987e-179 3.01386e-179)
(-3.88027e-181 -2.98106e-181 1.48533e-181)
(-1.91453e-183 -1.4706e-183 7.32861e-184)
(-9.45254e-186 -7.25949e-186 3.61833e-186)
(-4.66809e-188 -3.58444e-188 1.7869e-188)
(-2.30504e-190 -1.76963e-190 8.82346e-191)
(-1.14333e-192 -8.77607e-193 4.37655e-193)
(-2.26638e-173 -1.74205e-173 8.67547e-174)
(-1.12192e-175 -8.62226e-176 4.29459e-176)
(-5.57027e-178 -4.2802e-178 2.13224e-178)
(-2.77179e-180 -2.12949e-180 1.06101e-180)
(-1.38145e-182 -1.06115e-182 5.28806e-183)
(-6.89218e-185 -5.29323e-185 2.63825e-185)
(-3.4404e-187 -2.64179e-187 1.31695e-187)
(-1.71756e-189 -1.31864e-189 6.57465e-190)
(-8.5726e-192 -6.58033e-192 3.2815e-192)
(-4.29771e-194 -3.29834e-194 1.64512e-194)
(-3.94455e-175 -3.03149e-175 1.50993e-175)
(-1.9755e-177 -1.51798e-177 7.56199e-178)
(-9.9216e-180 -7.62253e-180 3.79788e-180)
(-4.99346e-182 -3.83571e-182 1.91144e-182)
(-2.51684e-184 -1.93297e-184 9.63419e-185)
(-1.2697e-186 -9.74977e-187 4.86027e-187)
(-6.40802e-189 -4.91974e-189 2.45292e-189)
(-3.23405e-191 -2.48249e-191 1.23796e-191)
(-1.6316e-193 -1.25221e-193 6.24559e-194)
(-8.26758e-196 -6.34405e-196 3.16474e-196)
(-4.64404e-177 -3.56849e-177 1.77769e-177)
(-2.35278e-179 -1.80759e-179 9.00617e-180)
(-1.19518e-181 -9.18084e-182 4.57504e-182)
(-6.08342e-184 -4.6722e-184 2.32867e-184)
(-3.10057e-186 -2.3809e-186 1.18686e-186)
(-1.58151e-188 -1.21421e-188 6.05385e-189)
(-8.06918e-191 -6.19408e-191 3.08879e-191)
(-4.11655e-193 -3.1594e-193 1.57577e-193)
(-2.0991e-195 -1.61075e-195 8.03513e-196)
(-1.07499e-197 -8.24749e-198 4.11495e-198)
(-4.18336e-179 -3.21397e-179 1.57832e-179)
(-2.14388e-181 -1.64683e-181 8.08721e-182)
(-1.10151e-183 -8.45991e-184 4.15448e-184)
(-5.66999e-186 -4.35397e-186 2.13815e-186)
(-2.92215e-188 -2.24353e-188 1.10176e-188)
(-1.50698e-190 -1.15681e-190 5.68097e-191)
(-7.77303e-193 -5.96578e-193 2.92976e-193)
(-4.00838e-195 -3.07588e-195 1.51057e-195)
(-2.06583e-197 -1.58495e-197 7.78382e-198)
(-1.06921e-199 -8.20184e-200 4.02803e-200)
)
;
    }
}


// ************************************************************************* //
