/*--------------------------------*- C++ -*----------------------------------*\
| =========                 |                                                 |
| \\      /  F ield         | OpenFOAM: The Open Source CFD Toolbox           |
|  \\    /   O peration     | Version:  2.4.0                                 |
|   \\  /    A nd           | Web:      www.OpenFOAM.org                      |
|    \\/     M anipulation  |                                                 |
\*---------------------------------------------------------------------------*/
FoamFile
{
    version     2.0;
    format      ascii;
    class       volVectorField;
    location    "0.01";
    object      gradp;
}
// * * * * * * * * * * * * * * * * * * * * * * * * * * * * * * * * * * * * * //

dimensions      [1 -2 -2 0 0 0 0];

internalField   nonuniform List<vector> 
40
(
(-4.26644e+17 2.81596e+15 -7.27337e+16)
(-2.73275e+17 7.24e+15 -5.30451e+16)
(-2.22698e+17 4.30835e+15 -3.68568e+16)
(-2.4209e+17 -1.17793e+16 -2.27254e+16)
(-2.6294e+17 -1.21634e+16 -4.22879e+15)
(-4.58267e+17 3.74293e+16 -5.04984e+16)
(-2.7029e+17 -9.48489e+13 -4.55742e+16)
(-2.60736e+17 -3.90697e+16 -4.04496e+16)
(-2.75034e+17 -6.73611e+16 -1.80261e+16)
(-3.31207e+17 -7.75211e+16 2.53814e+15)
(-5.50261e+17 -6.13544e+16 -7.76142e+16)
(-4.26273e+17 -1.45806e+17 -5.16189e+16)
(-3.5723e+17 -1.81129e+17 -2.33795e+16)
(-3.18993e+17 -1.98687e+17 -2.59086e+15)
(-3.43958e+17 -2.24796e+17 5.42292e+15)
(-5.90924e+17 -4.16488e+17 -5.79276e+16)
(-5.0984e+17 -3.89075e+17 -1.50479e+16)
(-3.66499e+17 -3.57049e+17 4.13157e+15)
(-3.62368e+17 -3.56124e+17 1.88245e+16)
(-3.31556e+17 -3.41117e+17 3.49943e+16)
(-3.1717e+17 3.83924e+16 -8.59549e+16)
(-1.58469e+17 1.91934e+16 -6.67218e+16)
(-1.25675e+17 -1.44024e+15 -4.98851e+16)
(-1.37681e+17 -4.2604e+15 -3.38607e+16)
(-1.67007e+17 -1.33631e+15 -1.29089e+16)
(-3.57807e+17 2.96204e+16 -8.32419e+16)
(-2.38134e+17 2.18702e+15 -6.29058e+16)
(-1.72582e+17 -1.75062e+16 -4.99278e+16)
(-1.37473e+17 -3.51459e+16 -2.67324e+16)
(-2.05177e+17 -6.20784e+16 -4.47472e+15)
(-4.31161e+17 -7.3241e+16 -1.12212e+17)
(-2.52722e+17 -9.69635e+16 -7.44349e+16)
(-2.0034e+17 -1.09799e+17 -4.27377e+16)
(-2.26825e+17 -1.39726e+17 -1.6066e+16)
(-2.70069e+17 -1.72866e+17 7.71093e+15)
(-4.86039e+17 -2.46251e+17 -9.25535e+16)
(-3.1125e+17 -2.52568e+17 -3.67522e+16)
(-2.58107e+17 -2.5764e+17 -7.26442e+15)
(-2.63607e+17 -2.71759e+17 2.59191e+16)
(-2.78635e+17 -2.69917e+17 6.4143e+16)
)
;

boundaryField
{
    inlet
    {
        type            zeroGradient;
    }
    outlet
    {
        type            zeroGradient;
    }
    bottom
    {
        type            zeroGradient;
    }
    top
    {
        type            symmetryPlane;
    }
    side1
    {
        type            symmetryPlane;
    }
    side2
    {
        type            symmetryPlane;
    }
    procBoundary12to11
    {
        type            processor;
        value           nonuniform List<vector> 8((-1.09388e+18 2.30514e+16 -8.72557e+16) (-7.43362e+17 6.17138e+16 -7.69678e+16) (-7.8729e+17 -7.94771e+16 -8.88379e+16) (-6.38971e+17 -4.63951e+17 -4.78244e+16) (-5.92416e+17 3.9512e+16 -1.22379e+17) (-6.0502e+17 5.91822e+16 -1.41812e+17) (-7.31476e+17 -3.28477e+16 -1.57571e+17) (-6.82978e+17 -2.50613e+17 -1.13518e+17));
    }
    procBoundary12to13
    {
        type            processor;
        value           nonuniform List<vector> 8((-2.78385e+17 -4.5913e+16 7.25352e+15) (-4.26911e+17 -1.0787e+17 2.13583e+16) (-3.7001e+17 -1.98861e+17 2.04996e+16) (-2.38073e+17 -2.87151e+17 3.53622e+16) (-2.01737e+17 -2.33453e+16 3.87286e+15) (-3.08958e+17 -8.66768e+16 2.80962e+16) (-3.07078e+17 -1.76455e+17 4.24768e+16) (-2.52445e+17 -2.43251e+17 8.54181e+16));
    }
    procBoundary12to28
    {
        type            processor;
        value           nonuniform List<vector> 10((-4.00511e+17 -6.17766e+17 2.8784e+16) (-3.07394e+17 -5.16743e+17 3.36981e+16) (-2.91328e+17 -4.67547e+17 3.87507e+16) (-2.87129e+17 -4.12655e+17 5.01376e+16) (-2.06011e+17 -3.26122e+17 4.99227e+16) (-4.35071e+17 -4.26129e+17 4.0457e+16) (-2.755e+17 -3.84627e+17 4.64737e+16) (-2.38722e+17 -3.53758e+17 6.19072e+16) (-2.51379e+17 -3.28486e+17 9.05194e+16) (-2.13053e+17 -2.91526e+17 9.89051e+16));
    }
    procBoundary12to76
    {
        type            processor;
        value           nonuniform List<vector> 
20
(
(-2.48542e+17 7.15678e+15 -2.80429e+15)
(-1.57852e+17 1.33456e+16 1.31091e+15)
(-1.17542e+17 4.24012e+15 -4.41772e+14)
(-1.23766e+17 -3.74123e+14 -5e+15)
(-1.42192e+17 1.33133e+15 -9.46087e+15)
(-2.05767e+17 -4.58254e+15 -3.33509e+16)
(-1.63685e+17 -1.24358e+16 -1.78785e+16)
(-1.44981e+17 -2.76338e+16 -5.45378e+15)
(-1.29584e+17 -3.88898e+16 -1.52366e+15)
(-1.55755e+17 -4.45294e+16 -7.45068e+14)
(-2.84227e+17 -7.62528e+16 -4.17977e+16)
(-2.03954e+17 -1.0396e+17 -2.43367e+16)
(-1.7045e+17 -1.12868e+17 -9.73602e+15)
(-1.57557e+17 -1.14444e+17 5.74999e+15)
(-1.56621e+17 -1.15008e+17 1.61516e+16)
(-3.45273e+17 -1.72217e+17 -2.33305e+16)
(-2.36915e+17 -1.95622e+17 -3.92547e+15)
(-1.65951e+17 -1.89617e+17 1.61975e+16)
(-1.33864e+17 -1.85588e+17 3.66071e+16)
(-1.41159e+17 -1.95206e+17 3.56534e+16)
)
;
    }
}


// ************************************************************************* //
