/*--------------------------------*- C++ -*----------------------------------*\
| =========                 |                                                 |
| \\      /  F ield         | OpenFOAM: The Open Source CFD Toolbox           |
|  \\    /   O peration     | Version:  2.4.0                                 |
|   \\  /    A nd           | Web:      www.OpenFOAM.org                      |
|    \\/     M anipulation  |                                                 |
\*---------------------------------------------------------------------------*/
FoamFile
{
    version     2.0;
    format      ascii;
    class       volVectorField;
    location    "0.01";
    object      Ur;
}
// * * * * * * * * * * * * * * * * * * * * * * * * * * * * * * * * * * * * * //

dimensions      [0 1 -1 0 0 0 0];

internalField   nonuniform List<vector> 
200
(
(-0.186433 3.79246 -1.56802)
(-6.01997 1.46357 -0.107751)
(-3.96868 1.64018 0.459237)
(-4.3217 0.720474 -0.64344)
(-4.82597 1.51846 -0.624109)
(-4.49701 -1.47822 -1.86125)
(-2.54912 1.54078 -1.55457)
(-2.66174 -0.817355 -2.28295)
(-2.52863 -9.63909 -1.21437)
(-3.50837 1.59681 -1.05534)
(-6.44337 -6.87237 0.345747)
(-3.14054 2.02992 0.223466)
(-4.41562 1.74053 0.178821)
(-4.45523 0.783803 -0.0397669)
(-4.78215 1.13491 0.191989)
(-5.02452 1.60743 -2.03509)
(-2.18787 -3.64057 -4.31202)
(-1.79622 0.0500382 -0.373811)
(-2.71754 1.51016 -0.46288)
(-3.46575 -1.89683 -0.269171)
(-5.80138 3.97231 -0.746114)
(-5.80738 2.32182 -0.376453)
(-4.01632 1.81811 -0.929863)
(-4.61727 1.74126 0.138032)
(-4.35677 1.72098 -0.363202)
(-4.3146 0.498234 -0.763417)
(-3.00445 2.585 0.465042)
(-7.84563 -0.295968 -4.22431)
(-4.38744 1.19075 0.146563)
(-3.77723 1.28506 0.98189)
(-5.55518 0.0821312 -0.622414)
(-5.02644 0.563197 -0.859237)
(-5.14926 2.36999 -0.705479)
(-5.06621 2.31278 -0.354482)
(-4.72728 1.43557 0.0270036)
(-4.79968 0.947497 0.0191091)
(-4.11392 0.572679 -0.801221)
(-3.42148 1.15186 -0.200813)
(-3.57046 1.00736 -0.442651)
(-2.04208 2.73157 3.74636)
(-6.37471 0.49506 -1.17498)
(-5.3377 0.832824 -0.441971)
(-4.69888 0.894379 -0.013203)
(-4.63957 2.4565 1.42704)
(-6.10404 -0.445148 2.04225)
(-7.51792 7.79137 -1.71523)
(-1.29926 -3.088 -3.29173)
(0.561119 1.2653 3.38529)
(-2.52683 2.59288 1.56481)
(-4.19531 1.92271 -0.975744)
(-4.73369 1.79786 -0.283276)
(-4.08388 1.76601 -1.49931)
(-4.21986 2.85662 -0.698238)
(-3.15733 -1.44077 -1.15382)
(-6.04215 10.291 0.671727)
(6.66806 -25.1919 -11.3559)
(-8.33688 -20.8513 -6.5249)
(-4.27807 1.10148 -3.37305)
(-3.85574 1.85803 -5.22597)
(-3.57225 2.83083 -0.632067)
(-5.0258 0.93575 -1.77201)
(-3.95474 3.26098 -4.54334)
(-3.23707 1.40543 -2.79578)
(-4.00949 2.18508 -1.12389)
(-0.121338 -6.29575 -3.69828)
(-3.81742 1.21352 -0.767257)
(-5.86693 4.55617 0.735559)
(-5.70336 0.855334 -2.5998)
(-4.38063 -0.477121 0.452758)
(-3.01545 -2.14587 -35.0295)
(-5.59603 0.391267 -1.65895)
(-4.55772 1.1267 -1.93858)
(-4.24652 0.973196 -0.913432)
(-3.83286 -0.15523 -0.841263)
(-4.158 -0.414103 -0.669612)
(-5.96646 -0.325628 0.546691)
(-3.70794 -5.46013 -0.999347)
(-3.68164 -0.0544316 -1.2034)
(-2.99992 1.38124 -0.338936)
(-4.52782 1.93835 -5.29478)
(-5.65838 -1.8695 -3.23803)
(-6.16831 -0.0336846 -2.24926)
(-4.60356 -3.12435 -3.63398)
(-3.5665 1.31302 -0.248258)
(-6.99785 12.003 0.673737)
(-1.54077 0.513003 0.419535)
(-9.21018 15.2794 1.41671)
(-3.31551 4.64742 0.541222)
(-3.97519 2.0697 0.479394)
(-2.5768 3.59327 -2.05975)
(-7.04145 -0.885725 -1.57145)
(-4.44028 -3.94236 -4.1683)
(-2.50686 1.76765 -1.01443)
(-3.9237 6.81811 0.878369)
(-1.40304 0.281506 -1.97943)
(-5.47495 9.70479 0.0277296)
(-3.53615 3.34541 -0.045141)
(-2.43337 0.93056 -0.565398)
(-2.802 1.58154 -0.0476558)
(-3.46971 2.77196 0.910918)
(-3.99964 1.2841 -1.41862)
(-1.24032 3.81645 -1.33181)
(-3.15855 0.918499 -0.375799)
(-2.68602 -0.727852 -0.570682)
(-1.3589 5.478 2.06333)
(-1.50902 3.29243 -1.91402)
(-1.58542 -1.54895 -2.32548)
(-4.67329 -0.0213169 -3.0558)
(-1.66282 -0.467623 -11.2766)
(-3.80242 1.80161 0.840151)
(-5.19255 2.15223 -1.07598)
(-4.29589 -0.223251 -1.69198)
(-3.98663 0.113808 -1.14725)
(-3.64224 1.3933 -0.776352)
(-4.41003 -0.409429 -0.853701)
(-1.72279 2.02253 0.162242)
(-2.7947 21.4371 -7.47979)
(-2.73375 -0.130531 -3.63744)
(-3.83205 -0.0332992 -1.08548)
(-4.95419 -0.74162 -1.63964)
(-5.37981 -2.1636 -2.04604)
(-3.88098 -4.10197 -4.51924)
(-2.52636 0.409929 0.629469)
(-3.15002 4.95976 3.29165)
(-2.67102 -0.244133 -1.082)
(-5.02565 15.91 3.93349)
(-4.09181 5.37215 7.29336)
(-4.1042 1.49754 -0.527742)
(-1.34903 1.97254 -2.91838)
(-1.15004 1.35076 -0.0309035)
(-3.7676 -2.56567 -2.10842)
(1.78601 -7.33774 -29.7058)
(-3.86357 -3.30026 -8.83635)
(-2.58495 0.663725 0.644234)
(-2.73342 9.18245 8.40183)
(-2.99203 1.71816 1.12009)
(-2.76428 0.167171 0.658678)
(-1.7952 1.05868 0.435731)
(-1.72909 1.45224 0.108377)
(-1.87174 7.67226 -0.110418)
(1.71024 -8.98621 -43.0666)
(-4.54273 -1.1246 -5.18328)
(-3.62454 0.796454 0.63383)
(-3.88005 3.16328 3.0007)
(-3.51213 -0.0377942 -0.0892316)
(-1.40621 8.88 8.69722)
(-2.2175 2.51851 1.04099)
(-1.9033 0.579144 0.00818249)
(-3.51099 6.32919 -2.56573)
(-2.33629 0.0888609 -1.58029)
(-3.36097 0.420357 -0.568416)
(-5.68361 -0.691904 -0.019666)
(-5.16385 0.852646 0.421354)
(-3.21746 0.46718 -0.0566681)
(-3.17544 2.04607 1.53931)
(-3.29697 1.42344 0.759499)
(-2.47263 -0.00294594 0.344211)
(-4.61673 2.10477 -1.50157)
(-3.22543 0.0279447 -0.355999)
(-7.04195 10.3141 -4.17392)
(-4.4307 3.31609 -0.178588)
(-3.19928 4.60928 0.890501)
(-4.70072 2.76148 -0.600242)
(-4.24947 2.43399 0.694844)
(-4.21212 2.14419 0.377618)
(-4.86713 3.1481 -0.0597747)
(-3.58726 1.31409 -1.13303)
(-2.14394 1.14071 -4.86152)
(-0.145817 -4.79098 -4.75873)
(-1.16749 -14.6652 -4.09251)
(-0.644948 -4.82918 -29.2305)
(-7.3075 0.578399 -2.07742)
(-6.28215 2.23507 1.96091)
(-6.71048 2.50698 -0.973318)
(-4.40707 2.85995 1.13112)
(-3.17199 1.65111 0.262208)
(-2.97067 -1.41688 -1.51793)
(-0.98213 -3.33872 -3.30244)
(0.821705 -12.4179 -4.71927)
(-3.16266 2.84825 -0.506192)
(-5.63709 -1.96533 0.93736)
(-6.86141 -4.89384 0.19382)
(-8.30193 -1.93829 -3.27439)
(-4.65903 -0.50169 0.675913)
(-4.70846 0.681892 1.00268)
(-1.94684 0.214274 -0.0752643)
(-0.991883 -0.603695 -1.39618)
(1.21161 -11.5907 -4.05828)
(-4.59729 1.05728 0.106298)
(-5.46176 1.54157 -0.0165551)
(-3.04968 -7.28849 -0.825132)
(-4.58262 -1.93159 0.213451)
(-4.42907 -0.589263 0.972564)
(-3.6385 -0.375199 -0.649667)
(-7.57512 1.5043 1.26544)
(-1.60753 -0.223158 2.44744)
(-1.33175 -3.63192 -0.264337)
(-4.02297 -0.30052 0.454557)
(-5.80608 -0.303802 -0.580977)
(-4.80734 0.59938 0.0664414)
)
;

boundaryField
{
    inlet
    {
        type            calculated;
        value           nonuniform 0();
    }
    outlet
    {
        type            calculated;
        value           nonuniform 0();
    }
    bottom
    {
        type            calculated;
        value           uniform (0 0 0);
    }
    top
    {
        type            symmetryPlane;
    }
    side1
    {
        type            symmetryPlane;
    }
    side2
    {
        type            symmetryPlane;
    }
    procBoundary12to4
    {
        type            processor;
        value           nonuniform List<vector> 
50
(
(-12.7479 -27.0041 -33.6456)
(2.90976 4.01378 -4.80966)
(-3.70387 1.23542 1.13834)
(-3.26188 1.20423 2.67387)
(-4.02212 -0.586264 0.604903)
(-6.08786 4.56861 0.378171)
(-5.68848 -2.63421 -1.1908)
(-6.34441 -4.55283 -2.21037)
(-2.05608 8.40976 2.91937)
(-12.7865 -33.0203 1.69086)
(-3.31169 3.22574 0.358074)
(-6.25291 2.81549 0.109791)
(-4.0756 2.39762 2.64868)
(-4.05123 -1.50395 1.69063)
(-3.48199 2.08185 2.52087)
(-4.5328 -4.67851 2.91908)
(-4.75933 1.06365 0.559663)
(-6.93085 0.649547 1.67603)
(-6.60422 -2.18743 5.26217)
(-8.1447 -3.6417 0.68485)
(-3.21409 -12.8111 -16.5493)
(-5.78912 -1.59037 -2.27306)
(-3.62363 2.08664 0.321481)
(-4.66645 6.4492 0.684525)
(-2.52534 0.87473 0.479583)
(-6.90189 11.6804 1.42189)
(-2.51327 4.37148 1.56467)
(-7.56101 4.62654 3.1159)
(-5.52343 1.67543 -0.379779)
(-4.12321 3.98986 -1.33217)
(-4.05015 0.587219 1.21258)
(-4.40396 0.293071 1.0595)
(-3.18614 1.16928 1.43941)
(-2.8507 1.05882 0.480065)
(-3.38069 4.63016 0.949301)
(-2.63532 1.05491 0.89121)
(-4.89895 2.22352 0.209918)
(-2.89564 2.54075 -3.15049)
(-4.30829 3.17768 -0.748132)
(2.64 9.24096 -21.6008)
(-3.19668 0.776188 -1.54486)
(-4.00179 1.61905 0.678659)
(-3.56553 1.41624 0.316943)
(-3.76053 1.32048 -0.163391)
(-3.93545 2.53583 0.884087)
(-3.67998 1.09557 -1.37793)
(-2.05024 3.5261 2.8186)
(-2.78643 2.10107 0.66587)
(0.228725 5.61578 -9.94161)
(-2.29917 -2.15786 -1.8786)
)
;
    }
    procBoundary12to11
    {
        type            processor;
        value           nonuniform List<vector> 
20
(
(-9.52891 -8.59164 -13.792)
(5.58193 -23.6503 -10.4373)
(-4.3121 2.88808 -0.552599)
(-6.94748 0.594621 -0.570586)
(-3.88792 1.45768 0.806982)
(-5.04783 0.260838 0.216465)
(-5.35752 1.49401 -1.87197)
(-5.01177 0.827709 -1.2103)
(-3.93526 -3.41342 -5.54886)
(-5.62606 -0.718146 -2.18968)
(-5.71282 2.06542 -1.21462)
(-3.932 0.475341 -1.32958)
(-4.71983 -0.230804 -0.176161)
(-4.99332 -1.18076 -6.32477)
(-3.53034 0.920552 1.49189)
(-2.30788 -1.36746 -5.23433)
(-3.42768 1.43282 -6.5112)
(-1.54094 0.474695 0.403628)
(-0.734803 -3.59772 -10.5371)
(-2.7975 -2.15447 1.00006)
)
;
    }
    procBoundary12to13
    {
        type            processor;
        value           nonuniform List<vector> 
20
(
(-8.45027 0.835493 -0.912599)
(-4.20202 -0.715838 -0.017971)
(-1.96485 1.86323 0.481692)
(-3.52754 1.09129 -0.650003)
(-6.10875 1.77583 -2.40878)
(-3.53581 3.95355 0.563626)
(-3.97469 1.32215 -1.92973)
(1.19308 11.0156 25.0074)
(-1.70948 7.35571 2.13072)
(-3.90244 2.90769 1.75296)
(-4.79758 0.643402 1.49362)
(-3.98359 2.89054 -1.55216)
(-1.4952 4.4507 -2.45733)
(-2.83486 1.58167 0.294083)
(-2.89436 16.4715 -0.640306)
(-1.53258 -4.44211 -0.838564)
(-4.18848 1.74699 -0.0858825)
(-6.823 2.66033 0.017195)
(-2.76135 3.75615 0.178051)
(-7.89751 -5.15114 6.54173)
)
;
    }
    procBoundary12to20
    {
        type            processor;
        value           nonuniform List<vector> 
50
(
(-3.86761 1.29681 -0.688336)
(-3.45923 2.79024 0.295215)
(-5.19408 2.37349 -1.1816)
(-6.52775 0.954951 -0.109181)
(-5.26653 0.273769 0.083544)
(-4.73504 -0.555598 -0.815922)
(-3.27482 1.26987 4.3267)
(-4.16768 1.73662 1.50361)
(-3.83723 0.586406 -0.116217)
(-3.85526 0.30963 -0.294784)
(-4.40147 0.835921 -2.91318)
(-4.20534 0.767308 -1.18092)
(-3.82571 0.942095 1.05565)
(-4.04542 -0.465183 -1.14683)
(-5.08372 -0.707814 -0.328359)
(-3.5459 -3.27943 -1.42237)
(-4.48871 -0.366692 -1.35037)
(-4.61823 -0.326066 -0.677141)
(-4.24634 -0.334254 -0.428256)
(-4.20608 0.887717 -0.794396)
(-4.60961 1.44669 -1.615)
(-3.86373 0.440229 -1.2356)
(-4.25159 0.134939 -1.36756)
(-3.60378 -0.469436 -0.8297)
(-4.53569 0.615355 -1.11543)
(-6.01809 0.828757 -1.14627)
(-3.58438 -0.564001 -0.748887)
(-2.21449 0.737673 -0.910033)
(-2.72215 0.882333 -0.636629)
(-2.39571 2.72739 -5.44416)
(-4.05081 -0.942688 -0.213903)
(-4.22318 1.8759 0.679424)
(-3.39052 -10.0901 -1.06302)
(-3.58126 -3.53518 -2.23704)
(-3.84379 1.10213 0.211006)
(-3.55311 1.12795 0.500693)
(-4.15506 1.29644 0.0619146)
(-3.77752 0.738906 0.271132)
(-4.9748 5.06993 -3.69583)
(-3.2898 2.05056 -0.774423)
(-1.9059 -1.66685 0.293942)
(-2.98565 -1.38627 0.176125)
(-3.39418 -0.650484 0.364971)
(-3.82426 -0.334887 0.587044)
(-3.70353 -0.976083 0.492171)
(-3.63938 -1.23624 0.323175)
(-3.91779 -0.551411 0.130707)
(-5.05077 0.29919 -0.371924)
(-4.70478 0.563045 -0.313749)
(-7.98088 3.29265 2.77692)
)
;
    }
}


// ************************************************************************* //
