/*--------------------------------*- C++ -*----------------------------------*\
| =========                 |                                                 |
| \\      /  F ield         | OpenFOAM: The Open Source CFD Toolbox           |
|  \\    /   O peration     | Version:  2.4.0                                 |
|   \\  /    A nd           | Web:      www.OpenFOAM.org                      |
|    \\/     M anipulation  |                                                 |
\*---------------------------------------------------------------------------*/
FoamFile
{
    version     2.0;
    format      ascii;
    class       volVectorField;
    location    "0.09";
    object      gradp;
}
// * * * * * * * * * * * * * * * * * * * * * * * * * * * * * * * * * * * * * //

dimensions      [1 -2 -2 0 0 0 0];

internalField   nonuniform List<vector> 
200
(
(-6.45877e+15 5.03612e+15 -6.00756e+14)
(-7.22779e+15 5.32244e+15 -5.76599e+14)
(-8.1349e+15 6.34645e+15 -1.24721e+15)
(-9.28616e+15 7.26962e+15 -1.30774e+15)
(-9.45049e+15 9.48131e+15 -2.11804e+15)
(-9.58136e+15 1.22708e+16 -2.87395e+15)
(-1.03178e+16 1.86682e+16 -4.33461e+15)
(-1.50192e+16 2.7981e+16 -5.77142e+15)
(-2.81297e+16 4.60808e+16 -7.19476e+15)
(-3.94138e+16 3.0181e+16 -7.34245e+15)
(-6.1069e+15 5.16472e+15 -1.61622e+15)
(-5.63935e+15 5.65409e+15 -1.48799e+15)
(-5.79863e+15 5.6342e+15 -1.54424e+15)
(-5.40323e+15 7.04217e+15 -1.82137e+15)
(-4.23505e+15 8.2917e+15 -2.42789e+15)
(1.79279e+15 1.05181e+16 -3.78273e+15)
(1.14249e+16 1.31025e+16 -6.88155e+15)
(3.06396e+16 2.36248e+16 -1.15709e+16)
(-2.50069e+16 1.34482e+16 -2.25593e+16)
(-8.79873e+16 1.19322e+16 -1.32447e+16)
(-6.57097e+15 4.94999e+15 -8.86638e+14)
(-6.28884e+15 4.6495e+15 -8.30769e+14)
(-5.35874e+15 4.39755e+15 -1.20492e+15)
(-3.97116e+15 3.62835e+15 -1.87162e+15)
(-2.49863e+15 3.09071e+15 -2.38524e+15)
(4.01974e+13 1.81344e+15 -3.23109e+15)
(1.58957e+16 -2.75171e+15 -4.55995e+15)
(-1.43277e+16 -1.25683e+16 -1.00374e+16)
(-5.15149e+16 -3.51783e+16 -1.07831e+15)
(-5.09094e+16 -2.71726e+16 -2.31672e+15)
(-6.11242e+15 3.27636e+15 -1.33092e+15)
(-6.74424e+15 3.79506e+15 -1.26931e+15)
(-7.84095e+15 3.77313e+15 -9.97031e+14)
(-8.01691e+15 3.63746e+15 -6.52531e+14)
(-7.86488e+15 2.24213e+15 -1.16376e+15)
(-9.89204e+15 4.28589e+14 -1.44195e+15)
(-1.73384e+16 -3.78625e+15 -1.00577e+15)
(-3.42136e+16 -1.66842e+16 1.2521e+15)
(-5.42157e+16 -1.6043e+16 6.19542e+15)
(-6.2809e+16 -2.5467e+16 1.3161e+16)
(-8.50624e+15 2.96101e+15 2.71849e+15)
(-9.29642e+15 4.52912e+15 1.00818e+15)
(-1.04746e+16 5.17875e+15 -7.42282e+14)
(-1.20728e+16 6.79876e+15 -1.5455e+15)
(-1.44624e+16 8.2132e+15 -2.53641e+15)
(-1.66744e+16 1.00821e+16 -4.31508e+15)
(-1.95897e+16 1.22982e+16 -6.90784e+15)
(-2.41716e+16 1.58743e+16 -9.39988e+15)
(-3.3157e+16 1.77334e+16 -1.2216e+16)
(-4.30416e+16 1.86882e+16 -1.36427e+16)
(-9.47665e+15 4.70731e+15 -3.84066e+14)
(-5.40902e+15 5.24742e+15 -8.21294e+14)
(-6.86545e+15 5.70185e+15 -1.79911e+15)
(-8.23091e+15 6.13997e+15 -2.32678e+15)
(-1.05114e+16 7.86417e+15 -3.88784e+15)
(-1.24589e+16 9.94667e+15 -6.17695e+15)
(-1.34972e+16 1.27419e+16 -1.01589e+16)
(-1.95294e+16 1.67993e+16 -1.6731e+16)
(-3.03631e+16 2.32345e+16 -2.84697e+16)
(-4.14658e+16 1.99734e+16 -1.98931e+16)
(-7.82311e+15 5.40646e+15 -2.97448e+15)
(-7.30734e+15 4.99939e+15 -1.95828e+15)
(-8.68945e+15 5.27308e+15 -1.76277e+15)
(-7.74819e+15 5.49849e+15 -2.95694e+15)
(-6.84896e+15 5.11331e+15 -4.725e+15)
(-6.91886e+15 5.55869e+15 -6.41574e+15)
(-5.88438e+15 6.64954e+15 -8.85492e+15)
(-3.18642e+15 7.94854e+15 -1.62819e+16)
(-2.68088e+16 1.08293e+16 -1.18549e+16)
(-4.82338e+16 1.50766e+16 -9.95208e+15)
(-7.04003e+15 3.9799e+15 -4.31025e+14)
(-5.67578e+15 4.04587e+15 -1.97256e+15)
(-5.86724e+15 5.71165e+15 -2.61916e+15)
(-8.55046e+15 6.58125e+15 -2.99196e+15)
(-1.0391e+16 5.54917e+15 -3.24069e+15)
(-9.38645e+15 4.3807e+15 -3.69169e+15)
(-8.71748e+15 3.54811e+15 -3.33935e+15)
(-1.11697e+16 1.22852e+15 -2.02718e+15)
(-1.6107e+16 -2.78967e+15 2.3244e+15)
(-3.2347e+16 5.08479e+15 7.50089e+15)
(-5.82862e+15 3.70448e+15 7.19038e+14)
(-1.83023e+16 4.77414e+15 5.11409e+14)
(-1.63067e+16 5.04592e+15 1.41917e+14)
(-1.50274e+16 6.54208e+15 -7.52731e+14)
(-1.83132e+16 7.41021e+15 -1.34089e+15)
(-2.35699e+16 8.4219e+15 -1.84909e+15)
(-2.65891e+16 1.03307e+16 -1.93589e+15)
(-3.20054e+16 1.08586e+16 -2.1358e+15)
(-4.17068e+16 1.20975e+16 -2.50739e+15)
(-4.66102e+16 1.29767e+16 -1.53154e+15)
(-7.11453e+15 -3.94404e+15 2.0349e+15)
(-1.01675e+16 9.07751e+14 9.78855e+14)
(-1.06162e+16 4.00142e+15 3.48197e+14)
(-1.20872e+16 4.78387e+15 -6.69919e+14)
(-1.65556e+16 4.78995e+15 -1.87283e+15)
(-1.82745e+16 7.15706e+15 -2.71061e+15)
(-2.23481e+16 9.98715e+15 -2.6205e+15)
(-2.79551e+16 1.26136e+16 -2.55286e+15)
(-3.51255e+16 1.40261e+16 -3.52348e+14)
(-4.89736e+16 1.78372e+16 -1.78025e+15)
(-7.53565e+15 4.87486e+15 -5.42446e+14)
(-2.41134e+15 2.80748e+15 -7.34717e+14)
(-8.55445e+15 3.08547e+15 -1.34388e+15)
(-1.34503e+16 2.56405e+15 -3.02837e+15)
(-1.35668e+16 4.12615e+15 -3.07236e+15)
(-1.31755e+16 5.78984e+15 -3.04172e+15)
(-1.5676e+16 8.1595e+15 -4.0085e+15)
(-2.39275e+16 1.09579e+16 -5.87002e+15)
(-3.12595e+16 1.40923e+16 -9.25079e+15)
(-3.85968e+16 1.66577e+16 -5.23703e+15)
(-9.48636e+15 8.88301e+15 1.36e+14)
(-1.37463e+16 6.69212e+15 -6.96403e+14)
(-1.1103e+16 4.16867e+15 -2.93133e+15)
(-1.00058e+16 3.38039e+15 -3.59292e+15)
(-1.0104e+16 3.92746e+15 -3.69951e+15)
(-1.02078e+16 6.06576e+15 -2.421e+15)
(-1.2012e+16 6.80449e+15 -2.75881e+15)
(-1.60896e+16 8.14351e+15 -3.43966e+15)
(-2.37259e+16 1.04971e+16 -4.46616e+15)
(-3.20134e+16 1.21597e+16 -5.94692e+15)
(-8.29514e+15 5.79632e+15 -3.06186e+15)
(-1.11432e+16 5.61599e+15 -1.49861e+15)
(-1.45198e+16 6.40833e+15 -5.94023e+14)
(-1.68178e+16 6.84939e+15 -5.79244e+14)
(-1.79707e+16 7.34494e+15 -1.33117e+15)
(-1.85784e+16 8.3955e+15 -1.07815e+15)
(-2.05071e+16 1.20464e+16 -1.02864e+15)
(-2.60004e+16 1.60577e+16 -8.4473e+14)
(-3.12233e+16 2.15812e+16 -2.05575e+15)
(-5.12623e+16 2.04487e+16 -1.00397e+15)
(-7.40506e+15 2.68893e+15 1.22961e+13)
(-1.08065e+16 3.25361e+15 -8.15275e+13)
(-1.21415e+16 3.32458e+15 4.4117e+14)
(-1.53382e+16 2.49895e+15 -4.32462e+13)
(-1.70416e+16 5.09383e+15 -2.37302e+14)
(-1.48515e+16 8.03847e+15 -4.29732e+14)
(-1.29924e+16 9.42576e+15 -4.68395e+14)
(-1.22713e+16 1.08246e+16 6.02001e+14)
(-2.78908e+16 1.24451e+16 1.03033e+15)
(-4.2608e+16 1.40446e+16 1.49087e+15)
(-8.40931e+15 2.36822e+15 1.6442e+15)
(-9.87193e+15 2.31898e+15 6.93889e+14)
(-1.60291e+16 2.58354e+13 -1.42547e+14)
(-1.32793e+16 8.2169e+14 -7.27209e+14)
(-6.89169e+15 2.19062e+15 -1.52755e+14)
(-9.91452e+15 6.02206e+15 2.06282e+13)
(-1.49349e+16 6.42825e+15 1.09769e+15)
(-1.99617e+16 6.52966e+15 6.65726e+14)
(-2.47833e+16 4.24726e+15 7.04937e+14)
(-3.7214e+16 8.40991e+15 7.76099e+14)
(-9.93254e+15 5.60728e+15 -3.26434e+14)
(-1.54912e+16 5.21027e+15 7.74357e+14)
(-1.51361e+16 4.28038e+15 1.21116e+15)
(-1.10086e+16 4.79036e+15 -6.71768e+14)
(-6.64086e+15 6.05122e+15 -4.58826e+14)
(-6.3762e+15 4.97599e+15 9.68277e+14)
(-1.19772e+16 3.93357e+15 1.87419e+15)
(-1.66332e+16 4.11226e+15 9.60462e+14)
(-2.41303e+16 5.33187e+15 -4.17413e+14)
(-3.09742e+16 5.25473e+15 1.27506e+15)
(-9.08659e+15 4.34154e+15 -4.61658e+14)
(-1.04052e+16 5.12936e+15 -4.25239e+14)
(-1.33647e+16 6.06293e+15 -2.31017e+14)
(-1.73863e+16 7.36257e+15 -6.42694e+13)
(-1.99097e+16 7.92767e+15 -4.08652e+14)
(-2.26018e+16 9.05283e+15 -6.7019e+14)
(-2.58422e+16 1.0975e+16 -1.66597e+15)
(-3.52921e+16 1.43784e+16 -2.33739e+15)
(-4.22163e+16 1.70626e+16 -4.56963e+15)
(-4.38157e+16 1.90374e+16 -5.7727e+15)
(-7.86747e+15 3.58567e+15 -7.90456e+14)
(-8.7951e+15 4.41575e+15 -3.93682e+14)
(-1.04937e+16 4.72378e+15 -1.61901e+14)
(-1.42583e+16 4.54712e+15 1.21269e+14)
(-1.77924e+16 6.67542e+15 1.75577e+14)
(-1.9014e+16 8.91509e+15 -1.13341e+14)
(-1.90466e+16 1.33893e+16 -1.1252e+15)
(-2.31592e+16 1.50303e+16 -2.00528e+15)
(-3.22811e+16 1.84432e+16 -4.52767e+15)
(-5.74503e+16 2.06854e+16 -3.37725e+15)
(-7.51811e+15 4.33289e+15 9.88016e+13)
(-8.12894e+15 4.17689e+15 3.01097e+14)
(-1.3102e+16 4.31747e+15 6.43485e+14)
(-1.3483e+16 1.55842e+15 1.21584e+15)
(-1.11737e+16 3.77171e+15 5.79841e+14)
(-9.1741e+15 8.02666e+15 -1.22298e+14)
(-1.36117e+16 1.19076e+16 8.11224e+14)
(-2.51843e+16 1.15315e+16 2.9121e+14)
(-3.09063e+16 1.17759e+16 -8.20842e+14)
(-3.64722e+16 1.63124e+16 -1.62223e+15)
(-7.68758e+15 6.73908e+15 4.37463e+14)
(-8.82595e+15 6.5726e+15 7.67513e+14)
(-1.57306e+16 7.03466e+15 2.52037e+15)
(-1.53498e+16 8.4166e+15 5.81723e+14)
(-4.85588e+15 7.89893e+15 1.16376e+15)
(-2.74211e+15 7.2924e+15 1.13953e+15)
(-1.2037e+16 5.18888e+15 2.29942e+15)
(-2.34227e+16 7.9374e+15 1.12084e+15)
(-2.27191e+16 1.27385e+16 1.77714e+14)
(-2.13576e+16 1.68597e+16 1.56182e+15)
)
;

boundaryField
{
    inlet
    {
        type            zeroGradient;
    }
    outlet
    {
        type            zeroGradient;
    }
    bottom
    {
        type            zeroGradient;
    }
    top
    {
        type            symmetryPlane;
    }
    side1
    {
        type            symmetryPlane;
    }
    side2
    {
        type            symmetryPlane;
    }
    procBoundary11to3
    {
        type            processor;
        value           nonuniform List<vector> 
50
(
(-6.10353e+15 3.6235e+15 -3.19268e+14)
(-8.26e+15 2.75649e+15 -9.92167e+14)
(-9.693e+15 3.98401e+15 -8.1443e+14)
(-1.1673e+16 4.08255e+15 -1.52708e+15)
(-1.42374e+16 6.30525e+15 -1.63532e+15)
(-1.65809e+16 7.96668e+15 -2.41482e+15)
(-1.99954e+16 1.17729e+16 -2.9003e+15)
(-2.41857e+16 1.48148e+16 -4.00421e+15)
(-2.9407e+16 1.87635e+16 -4.84224e+15)
(-3.44926e+16 1.79439e+16 -6.06169e+15)
(-8.55793e+15 4.1259e+15 4.48212e+14)
(-9.84452e+15 4.24151e+15 -4.78608e+14)
(-1.14047e+16 3.64858e+15 -9.86286e+14)
(-1.42998e+16 4.61097e+15 -1.87206e+15)
(-1.70781e+16 5.15801e+15 -2.59341e+15)
(-2.06288e+16 6.93115e+15 -3.77138e+15)
(-2.50815e+16 8.79163e+15 -4.94797e+15)
(-3.03999e+16 1.14089e+16 -6.02955e+15)
(-3.59909e+16 1.32534e+16 -7.23016e+15)
(-4.43997e+16 1.38433e+16 -9.14038e+15)
(-9.58356e+15 9.04045e+15 2.62831e+14)
(-1.28504e+16 6.20304e+15 2.99556e+14)
(-1.4152e+16 4.96269e+15 -4.20286e+14)
(-1.68157e+16 4.36438e+15 -7.01558e+14)
(-2.03152e+16 5.43714e+15 -1.33017e+15)
(-2.41155e+16 5.27419e+15 -1.65646e+15)
(-2.72215e+16 6.02845e+15 -2.46315e+15)
(-3.14887e+16 6.71633e+15 -2.66747e+15)
(-3.93616e+16 6.15895e+15 -2.75723e+15)
(-4.79207e+16 3.83572e+15 -2.88055e+15)
(-9.40366e+15 3.60086e+15 -3.85868e+14)
(-1.20305e+16 4.05903e+15 -3.03535e+14)
(-1.46083e+16 4.02473e+15 -1.94458e+14)
(-1.72114e+16 4.13702e+15 -5.56054e+14)
(-2.01338e+16 4.50405e+15 -5.60712e+14)
(-2.42544e+16 5.65823e+15 -8.24066e+14)
(-2.83167e+16 7.66909e+15 -8.71056e+14)
(-3.13409e+16 9.83999e+15 -1.59788e+15)
(-3.66728e+16 1.12333e+16 -2.07284e+15)
(-4.66481e+16 1.30058e+16 -2.29708e+15)
(-1.01666e+16 2.56846e+15 1.18781e+14)
(-1.22379e+16 3.12717e+15 -8.95325e+13)
(-1.49601e+16 3.90138e+15 5.39716e+13)
(-1.79877e+16 4.19667e+15 -1.9947e+14)
(-2.11729e+16 4.40908e+15 -1.88628e+14)
(-2.51086e+16 5.22899e+15 -5.24171e+14)
(-2.96978e+16 6.10912e+15 -4.55577e+14)
(-3.53344e+16 7.56936e+15 -9.55751e+14)
(-4.15991e+16 6.77003e+15 -1.70353e+15)
(-4.78152e+16 8.54156e+15 -2.49521e+15)
)
;
    }
    procBoundary11to10
    {
        type            processor;
        value           nonuniform List<vector> 
20
(
(-5.96514e+15 5.32413e+15 6.32357e+13)
(-6.53918e+15 5.71019e+15 -4.3495e+14)
(-6.34205e+15 4.65226e+15 -4.39476e+14)
(-5.27348e+15 2.87977e+15 -9.79437e+14)
(-8.09569e+15 4.98847e+15 8.1126e+14)
(-1.19655e+16 4.90585e+15 -5.06411e+14)
(-7.86849e+15 3.78108e+15 -1.65682e+15)
(-8.1814e+15 2.67154e+15 -9.18205e+14)
(2.37959e+15 3.53963e+15 4.4544e+14)
(-4.73802e+15 1.76127e+15 3.31482e+14)
(-1.04355e+16 3.99339e+15 -5.51529e+14)
(-4.03728e+15 4.45355e+15 2.07507e+14)
(-6.39371e+15 4.61669e+15 -4.80493e+14)
(-4.1544e+15 3.3107e+15 1.53767e+14)
(-9.03907e+15 3.58272e+15 6.88408e+14)
(-7.63374e+15 4.69251e+15 2.12238e+14)
(-7.82941e+15 3.9798e+15 -1.77909e+14)
(-6.68956e+15 3.63151e+15 -2.49177e+14)
(-7.98852e+15 4.08695e+15 2.25967e+13)
(-6.01105e+15 5.48252e+15 6.59625e+13)
)
;
    }
    procBoundary11to12
    {
        type            processor;
        value           nonuniform List<vector> 
20
(
(-3.90548e+16 1.93334e+16 -8.32845e+15)
(-8.132e+16 7.70041e+15 -8.02136e+15)
(-5.28624e+16 -2.25891e+16 -2.42187e+14)
(-3.03669e+16 -1.14367e+16 1.57148e+16)
(-5.06748e+16 1.92004e+16 -1.44649e+16)
(-5.27034e+16 2.06384e+16 -1.62779e+16)
(-4.75993e+16 1.53887e+16 -8.00717e+15)
(-3.69415e+16 1.01689e+16 1.1948e+16)
(-5.56136e+16 1.15711e+16 -5.07637e+15)
(-5.51496e+16 1.80328e+16 -7.09304e+14)
(-4.94743e+16 2.25723e+16 -5.80709e+15)
(-4.26909e+16 1.44596e+16 -4.03716e+15)
(-6.26882e+16 2.36013e+16 -1.18245e+15)
(-6.13834e+16 1.94693e+16 -1.61865e+15)
(-4.8069e+16 1.00641e+16 1.36885e+15)
(-3.92624e+16 1.11616e+16 2.91253e+15)
(-5.88983e+16 1.22451e+16 -2.24255e+15)
(-7.88348e+16 2.21149e+16 -9.16589e+15)
(-6.08878e+16 2.98222e+16 -5.89038e+14)
(-3.88706e+16 3.03731e+16 3.18291e+15)
)
;
    }
    procBoundary11to19
    {
        type            processor;
        value           nonuniform List<vector> 
50
(
(-4.74039e+15 2.25422e+15 -4.46926e+14)
(-5.29531e+15 3.14458e+15 -6.74009e+14)
(-5.67394e+15 4.91846e+15 6.65793e+12)
(-7.03315e+15 6.11097e+15 -3.17488e+13)
(-8.91637e+15 6.90701e+15 -3.18345e+14)
(-1.20166e+16 6.92862e+15 -7.61028e+14)
(-1.83299e+16 8.01989e+15 2.40234e+13)
(-3.88412e+16 1.05772e+16 1.15808e+15)
(-6.90805e+16 1.70471e+16 7.20502e+15)
(-4.16969e+16 2.30438e+16 1.67781e+16)
(-5.07444e+15 4.93313e+15 5.29668e+14)
(-3.84384e+15 6.2778e+15 -1.47618e+14)
(-3.61871e+15 6.91234e+15 -1.51556e+15)
(-8.07316e+15 7.67809e+15 -3.11761e+15)
(-1.12501e+16 8.24536e+15 -3.67168e+15)
(-1.0921e+16 8.71906e+15 -2.89251e+15)
(-1.21887e+16 9.18581e+15 -2.23571e+15)
(-1.5862e+16 8.0834e+15 -7.64593e+14)
(-1.90963e+16 7.7628e+15 4.73271e+15)
(-2.23167e+16 8.93963e+15 1.35646e+16)
(-3.05852e+15 4.55051e+15 4.74668e+14)
(-1.184e+16 8.21841e+15 -6.96749e+12)
(-1.51779e+16 7.66627e+15 -2.23843e+15)
(-1.39327e+16 8.25442e+15 -4.14767e+15)
(-8.19605e+15 9.19362e+15 -2.75858e+15)
(-7.42145e+15 1.04212e+16 -2.66966e+15)
(-1.15205e+16 1.04212e+16 -3.76758e+15)
(-1.65422e+16 1.03338e+16 -4.06768e+15)
(-2.32271e+16 8.482e+15 -4.17482e+15)
(-3.06719e+16 1.0533e+16 -5.13082e+15)
(-7.37378e+15 5.16828e+15 3.04246e+14)
(-1.25257e+16 6.5629e+15 6.1919e+14)
(-1.6869e+16 9.479e+15 1.6487e+15)
(-9.73764e+15 9.81574e+15 2.42042e+15)
(-6.52043e+15 1.14155e+16 2.32941e+15)
(-1.41498e+16 8.71748e+15 7.8728e+14)
(-1.66624e+16 7.46858e+15 8.79357e+13)
(-1.71651e+16 3.71259e+15 5.36907e+14)
(-2.24983e+16 7.40106e+14 2.10577e+15)
(-2.55546e+16 -4.36074e+15 3.71358e+15)
(-5.33796e+15 6.02486e+15 8.06173e+14)
(-7.53778e+15 6.90199e+15 1.15255e+15)
(-9.41396e+15 6.87124e+15 2.36491e+15)
(-1.17544e+16 1.08692e+16 3.48223e+15)
(-1.34221e+16 9.35582e+15 1.73466e+15)
(-1.45942e+16 7.58181e+15 1.32546e+15)
(-1.23217e+16 5.66894e+15 1.59579e+15)
(-1.00852e+16 5.91662e+15 2.68192e+15)
(-1.30617e+16 1.02236e+16 3.80828e+15)
(-1.20304e+15 1.42578e+16 5.63086e+15)
)
;
    }
}


// ************************************************************************* //
