/*--------------------------------*- C++ -*----------------------------------*\
| =========                 |                                                 |
| \\      /  F ield         | OpenFOAM: The Open Source CFD Toolbox           |
|  \\    /   O peration     | Version:  2.4.0                                 |
|   \\  /    A nd           | Web:      www.OpenFOAM.org                      |
|    \\/     M anipulation  |                                                 |
\*---------------------------------------------------------------------------*/
FoamFile
{
    version     2.0;
    format      ascii;
    class       volVectorField;
    location    "0.01";
    object      gradp;
}
// * * * * * * * * * * * * * * * * * * * * * * * * * * * * * * * * * * * * * //

dimensions      [1 -2 -2 0 0 0 0];

internalField   nonuniform List<vector> 
200
(
(5780.18 449.275 17.1261)
(7055.2 -711.342 -699.515)
(9149.13 -1156.72 -1962.95)
(11344.1 -1269.97 -3584.99)
(6654.93 -2825.69 -5515.25)
(-825.315 -4450.75 -6934.19)
(2861.04 -4458.09 -6497.42)
(3863.42 -7151.1 -6309.53)
(-14289.2 -8402.36 -4323.66)
(-23531.6 -6267.42 -1104.7)
(3038.34 -2494.75 -997.779)
(3843.22 407.544 -1479.6)
(8031.87 -1083.2 -2324.01)
(8006.13 -4261.72 -4189.5)
(293.364 -8243.9 -6776.32)
(-4090.11 -8426.35 -4224.46)
(-2539.66 -6056.96 -3411.08)
(-4025.13 -8593.8 -2300.45)
(-12521.8 -10255 -1274.36)
(-3813.24 -1811.33 3327.78)
(19116.3 7809.39 815.742)
(9878.32 7471.4 -3151.83)
(-189.402 6110.26 -2987.47)
(-2977.34 5213.72 -3958)
(-1674.33 1674.59 -4862.29)
(3548.57 3174.43 -3260.1)
(2526.14 2296.41 -234.086)
(-4532.7 2147.07 -431.901)
(-724.233 2357.52 844.36)
(10074.4 6329.89 1078.02)
(13259 13187.9 -4871.99)
(444.938 6805.96 -5355.06)
(3516.49 5342.89 -5816.25)
(-865.202 8049.91 -8540.1)
(-3785.2 10213 -9569.34)
(-2846.46 11081.3 -5794.75)
(-4594.38 9519.25 -4651.59)
(-3902.92 8035.99 -4731.07)
(-4156.18 8405.72 -2055.85)
(-1562.76 5376.32 -448.505)
(2131.68 -1174.57 557.737)
(718.963 -1959.48 -1482.73)
(-84.4072 -1734.41 -3103.45)
(-23.2956 -2237.18 -3918.74)
(-4062.49 -4843.4 -3541.91)
(-3968.27 -115.185 -2056.55)
(4859.94 480.069 -1634.26)
(10819.4 -736.571 -1603.69)
(2366.29 -3523.47 -1580.08)
(-2298.15 824.544 3674.83)
(-3003.83 -1216.97 -1778.09)
(-400.718 -3516.17 -2262.35)
(-639.797 -2722.43 -3035.17)
(-6241.27 -4858.53 -4398.55)
(181.487 -7199.17 -2876.42)
(6678.67 -2547.8 -1518.23)
(3617.17 3964.38 -174.245)
(2812.36 810.415 -518.327)
(5488.52 -1986.18 283.503)
(7976.63 1681.03 5693.56)
(-2728.72 1610.66 -2489.17)
(-2291.96 1270.67 -7024.23)
(-2769.13 522.67 -14173.6)
(-8976.78 -1747.25 -5227.57)
(558.962 -2794.23 770.712)
(18358.8 661.976 -3193.8)
(11576.4 311.598 -3519.29)
(-1081.67 -1741.91 -2055.11)
(4107.52 1107.14 -222.983)
(5275.9 287.838 -547.209)
(-1190.42 2054.5 -8211.09)
(-2576.7 685.596 -10895.7)
(-6675.65 -1842.54 -10720.9)
(-12875.1 -4033.28 -12058.7)
(4999.95 2532.8 -10635.2)
(12890.3 2589.64 -15851.7)
(-1190.61 1134.16 -12799.9)
(4403.44 5802.22 -10471.2)
(9548.02 3869.96 -7846.29)
(5367.65 1704.17 -5030.57)
(-4303.5 -3288.06 -38.9575)
(-4660.59 -1958.74 -310.559)
(1353.9 -1047.47 -3.78515)
(9941 -2037.66 191.755)
(12613.9 -1760.91 223.477)
(5279.15 -3589.43 1425.84)
(4310.19 -2122.06 1444.79)
(4036.81 -5414.52 -371.234)
(2602.1 -5420.63 -1767.23)
(-2090.61 -3037.45 -247.253)
(-3551.57 -7369.8 -692.981)
(-179.413 -8458.85 -1365.26)
(1196.04 -18795.5 -1038.57)
(8514.11 -6355.85 455.936)
(9510.39 -1343.71 3254.32)
(4556.86 -10245.9 1235.25)
(660.029 -9073.01 813.893)
(-2560.34 -9316.07 530.177)
(7356.23 -8083.67 884.176)
(6890.38 -8566.59 -64.8204)
(-5640.64 -2483.4 -2285.66)
(-27512 -6341.88 -4303.16)
(5559.89 -6186.86 -8369.6)
(44844.6 -7042.53 -2187.96)
(4833.76 -10739.5 1697.13)
(-10179.5 -19759.1 335.55)
(6169.92 -17904.7 -3712.68)
(6015.5 -13777.5 -2345.65)
(4101.07 -10650.2 -1751.42)
(4270.12 -10828.7 -2519.11)
(-4305.27 8089.64 -1497.84)
(-7586.32 12472.8 -608.897)
(-205.249 25022.1 -1700.53)
(-591.227 4539.62 -887.917)
(-15922.7 -13505.6 1761.16)
(-9773.45 -13355.3 -2582.57)
(12623.1 -18657.1 -2331.11)
(11948.7 -13739.3 -1311.34)
(13253.9 -16886.1 -2794.59)
(10073.3 -10209.8 -5231.02)
(-568.037 -2221.01 2233.07)
(831.514 -3647 3122.99)
(1523 -3390.07 3359.81)
(703.943 -1814.49 2657.65)
(-113.416 5.94146 543.34)
(-60.0806 -420.137 -1575.33)
(-890.706 -529.361 -2305.41)
(541.002 705.687 -4880.17)
(2763.03 718.772 -4480.12)
(1714.52 1116.44 -5548.03)
(-3376.91 -4811.69 4183.27)
(-1506.6 -9904.32 4582.34)
(5188.03 -16107.7 5821.88)
(7495.96 -8666.08 4209.62)
(2675.28 -4841.32 1482.88)
(-1130.68 -4292.27 931.479)
(1360.94 -4287.58 -831.627)
(3037.27 -2348.65 -1713.52)
(3584.53 -1960.89 -1377.44)
(318.384 -1953.94 -4561.75)
(-23779.9 322.888 12129.1)
(-21760.6 2480.85 11873.5)
(3999.48 -536.463 18074.2)
(23236.8 -3897.42 7372.58)
(8634.21 -5183.29 1683.03)
(1047.41 -5446.54 4595.81)
(2996.53 -4720.41 2996.02)
(5194.37 -4688.34 1314.85)
(3552.45 -4778.89 728.32)
(1853.06 -7978.08 24.7625)
(-3796.18 8047.82 7434.19)
(-3225.3 12633 9290.15)
(-7568.52 17228.8 7520.18)
(-1797.69 15546.8 7020.41)
(-422.951 2501.54 6612.53)
(-204.939 -3778 11092.5)
(2877.34 -1304.5 9145.27)
(2920.32 -1538.03 6944.23)
(-2994.95 -3164.34 5120.11)
(1604.2 -1616.22 3083.87)
(235.789 -167.746 2812.64)
(-1055.01 376.228 2650.33)
(-135.172 2891.83 2223.1)
(928.276 445.48 2132.15)
(-931.623 -257.652 2293.21)
(-3836.84 421.462 1876.46)
(-6265.3 235.99 1112.97)
(-2922.29 -347.87 196.901)
(464.971 -456.332 30.6892)
(1497.5 -1459.41 -521.243)
(1150.92 8463.83 4095.93)
(5064.14 5542.03 5164.85)
(3.33179 4747.46 6149.29)
(-5370.69 1188.03 3544.63)
(-979.661 479.784 2128.46)
(-2849.56 -372.11 2402.46)
(-7803.97 -590.733 1591.31)
(-4306.93 595.967 -461.572)
(-1758.11 249.843 -703.75)
(1109.42 349.874 -2131.15)
(-362.458 2718.07 11109.8)
(-8487.74 1190.61 12304.3)
(-8843.17 -3469.58 15257.6)
(-7607.08 -2545.27 8290.97)
(-4051.89 -2532.09 5618.9)
(-5977.87 -3501.46 4326.56)
(-4329.15 -1941.64 3423.5)
(-1241.14 74.8691 2037.29)
(-27.215 -254.076 1412.4)
(1108.14 1404.28 918.64)
(3518.46 -12927.4 5592.92)
(-7311.15 -8602.42 4358.45)
(-7468.43 -6838.22 4316.09)
(-3495.71 -3483.09 4389.73)
(-2892.04 -3028.83 3785.46)
(-1668.66 -2727.49 3618.14)
(-651.314 -1789.69 3328.05)
(-931.806 -1292.25 2515.43)
(900.709 -914.604 2124.26)
(2913.49 153.846 3732.82)
)
;

boundaryField
{
    inlet
    {
        type            zeroGradient;
    }
    outlet
    {
        type            zeroGradient;
    }
    bottom
    {
        type            zeroGradient;
    }
    top
    {
        type            symmetryPlane;
    }
    side1
    {
        type            symmetryPlane;
    }
    side2
    {
        type            symmetryPlane;
    }
    procBoundary5to4
    {
        type            processor;
        value           nonuniform List<vector> 
20
(
(4561.84 659.58 440.641)
(4893.62 -6260.52 408.576)
(2148.71 2361.08 3674.74)
(19635.9 22768.5 -839.624)
(504.743 608.276 1668.42)
(-4494.51 -1085.97 -203.008)
(2157.67 363.965 712.319)
(2419.12 1873.39 -5406.83)
(-4650.08 -2334.7 533.102)
(-2488.72 -7790.27 -1248.67)
(-2390.64 -5965.03 2275.34)
(-3683.17 7341.13 205.403)
(-944.861 -2242.56 1704.46)
(-3542.9 1701.61 3112.82)
(-12347.8 2690.49 10224.1)
(-8312.51 -2136.31 6845.24)
(1430.12 -81.3349 2399.14)
(1446.06 5841.15 3749.9)
(7604.8 6.8426 4986.34)
(3956.27 -12960.8 2072.63)
)
;
    }
    procBoundary5to6
    {
        type            processor;
        value           nonuniform List<vector> 
20
(
(-3594.02 1456.8 2311.78)
(9302.41 6547.99 2409.97)
(5704.91 3482.76 -655.187)
(218.27 863.244 109.906)
(2461.87 1613.91 5120.22)
(3807.54 1800.84 3628.38)
(3039.66 -197.348 -2036.84)
(3642.87 677.691 -4210.03)
(-10221.1 -930.136 -513.268)
(-2119.66 -4903.3 -1509.03)
(3377.01 -9058.7 -2821.06)
(4664.58 -6166.83 -3970.67)
(85.0911 20.7025 -3358.84)
(-2334.03 -1891.62 -3183.99)
(213.979 -4135.98 -259.799)
(8623.85 -448.124 2882.67)
(1915.8 -650.368 -37.1313)
(5882.69 55.1628 -456.55)
(5865.6 647.958 1179.61)
(817.563 -147.21 2533.41)
)
;
    }
    procBoundary5to13
    {
        type            processor;
        value           nonuniform List<vector> 
50
(
(-12808.8 -2773.43 -6142.62)
(-5811.66 -2383.36 -6977.06)
(2298.5 -1518.04 -7478.37)
(6762.81 -2673.84 -11510)
(4388.53 1894.36 -9662.4)
(2161.13 992.141 -8567.41)
(-3564.57 4638.16 -5474.77)
(-6759.76 5729.16 -1828.01)
(-6043.57 6654.86 -1990.49)
(-5010.51 6477.26 -1217.07)
(-5104.3 2234.8 -5675.57)
(-10086 1689.88 -3482.46)
(-12206.9 1205.04 -1874.13)
(-226.089 4440.58 -7421.51)
(13804.8 7925.32 -14053.4)
(15561.5 5684.72 -18466.7)
(18001.5 11909.2 -21129.5)
(4389.94 11454.9 -15664.7)
(-4088.58 11120.6 -16030.4)
(-1108.65 5571.95 -10288.6)
(4622.69 6869.25 1460.17)
(6352.95 12389.4 3163.96)
(-10306.5 13775.2 3549.98)
(-32210.8 17865.7 10049.6)
(-30956.1 8582.6 1677.6)
(-20482.6 18016.5 -3644.22)
(5401.99 13676.9 -5236.84)
(9557.49 8031.77 -6933.3)
(11159.9 7696.9 -6147.86)
(25708.8 8195.7 -4594.35)
(5758.67 8563.12 -1006.54)
(-3398.64 6537.72 -1298.48)
(9827.02 9625.92 -1838.54)
(-6217.73 8130.91 2358.38)
(-30015.3 5513.85 8230.99)
(-6564.67 2358.01 11238.2)
(7476.46 -213.422 13538.2)
(1474.69 789.938 9094.24)
(3396.07 389.001 10710.5)
(7285.49 4889.76 6502.06)
(8354.27 -5854.35 -1999.66)
(3690.57 -2823.19 -967.83)
(1395.49 -963.161 215.719)
(11.6969 1709.22 -3602.68)
(-2540.69 2508.46 2162.41)
(-3499.59 2740.21 4983.13)
(-1458.67 788.619 3120.25)
(509.03 3235.9 2190.9)
(2864.98 1297.15 2818.48)
(2642.93 1728.17 2024.93)
)
;
    }
}


// ************************************************************************* //
