/*--------------------------------*- C++ -*----------------------------------*\
| =========                 |                                                 |
| \\      /  F ield         | OpenFOAM: The Open Source CFD Toolbox           |
|  \\    /   O peration     | Version:  2.4.0                                 |
|   \\  /    A nd           | Web:      www.OpenFOAM.org                      |
|    \\/     M anipulation  |                                                 |
\*---------------------------------------------------------------------------*/
FoamFile
{
    version     2.0;
    format      ascii;
    class       volVectorField;
    location    "0.01";
    object      Uc;
}
// * * * * * * * * * * * * * * * * * * * * * * * * * * * * * * * * * * * * * //

dimensions      [0 1 -1 0 0 0 0];

internalField   nonuniform List<vector> 
200
(
(6.61099e-28 1.8417e-28 -1.17978e-30)
(3.87559e-30 1.07849e-30 -7.31488e-33)
(2.22687e-32 6.19001e-33 -4.42834e-35)
(1.25705e-34 3.49032e-35 -2.62478e-37)
(6.9849e-37 1.93724e-37 -1.52673e-39)
(3.82674e-39 1.06013e-39 -8.73183e-42)
(2.06999e-41 5.72798e-42 -4.91868e-44)
(1.10687e-43 3.05936e-44 -2.7329e-46)
(5.8569e-46 1.61695e-46 -1.4996e-48)
(3.06952e-48 8.46435e-49 -8.13545e-51)
(1.43612e-27 5.78875e-28 -6.72788e-29)
(8.3947e-30 3.38327e-30 -3.93105e-31)
(4.80975e-32 1.93816e-32 -2.25134e-33)
(2.70744e-34 1.09085e-34 -1.26674e-35)
(1.50024e-36 6.04368e-37 -7.01619e-38)
(8.19676e-39 3.30155e-39 -3.8317e-40)
(4.4219e-41 1.78082e-41 -2.06617e-42)
(2.35821e-43 9.49567e-44 -1.1014e-44)
(1.24454e-45 5.01057e-46 -5.81001e-47)
(6.50555e-48 2.61875e-48 -3.03567e-49)
(2.71689e-29 1.09646e-29 -1.27767e-30)
(1.67589e-31 6.76303e-32 -7.87984e-33)
(1.01046e-33 4.07744e-34 -4.7502e-35)
(5.97074e-36 2.40916e-36 -2.80631e-37)
(3.4651e-38 1.39805e-38 -1.62832e-39)
(1.97872e-40 7.98293e-41 -9.29652e-42)
(1.11357e-42 4.49225e-43 -5.23075e-44)
(6.18445e-45 2.49469e-45 -2.90441e-46)
(3.39347e-47 1.36877e-47 -1.59335e-48)
(1.84158e-49 7.42755e-50 -8.64501e-51)
(2.72015e-31 1.09821e-31 -1.28073e-32)
(1.76602e-33 7.1297e-34 -8.31421e-35)
(1.11793e-35 4.51307e-36 -5.26255e-37)
(6.91959e-38 2.79332e-38 -3.25699e-39)
(4.19787e-40 1.69454e-40 -1.97568e-41)
(2.50114e-42 1.00958e-42 -1.177e-43)
(1.46607e-44 5.91754e-45 -6.89828e-46)
(8.46702e-47 3.41741e-47 -3.98347e-48)
(4.82417e-49 1.94701e-49 -2.26933e-50)
(2.7147e-51 1.09559e-51 -1.27685e-52)
(4.90145e-30 1.36395e-30 -9.2308e-33)
(3.03236e-32 8.42906e-33 -6.02133e-35)
(1.83365e-34 5.09138e-35 -3.8256e-37)
(1.0866e-36 3.01371e-37 -2.37438e-39)
(6.32384e-39 1.75196e-39 -1.44322e-41)
(3.62124e-41 1.00209e-41 -8.6094e-44)
(2.04353e-43 5.64851e-44 -5.04976e-46)
(1.138e-45 3.1419e-46 -2.91684e-48)
(6.26106e-48 1.72661e-48 -1.66149e-50)
(3.40678e-50 9.38387e-51 -9.34427e-53)
(1.06202e-29 4.28008e-30 -4.97234e-31)
(6.55133e-32 2.63989e-32 -3.06604e-33)
(3.95026e-34 1.59155e-34 -1.84796e-35)
(2.33429e-36 9.40343e-37 -1.09153e-37)
(1.35477e-38 5.45673e-39 -6.33228e-40)
(7.73673e-41 3.11573e-41 -3.61462e-42)
(4.35425e-43 1.75327e-43 -2.03343e-44)
(2.41836e-45 9.73625e-46 -1.12887e-46)
(1.32706e-47 5.34187e-48 -6.19183e-49)
(7.20213e-50 2.89867e-50 -3.35889e-51)
(2.11981e-31 8.55418e-32 -9.96521e-33)
(1.37609e-33 5.55268e-34 -6.46794e-35)
(8.70992e-36 3.51432e-36 -4.09313e-37)
(5.39049e-38 2.17483e-38 -2.53273e-39)
(3.26983e-40 1.31915e-40 -1.53604e-41)
(1.94797e-42 7.85816e-43 -9.14905e-44)
(1.14169e-44 4.60529e-45 -5.36113e-46)
(6.59283e-47 2.65919e-47 -3.09522e-48)
(3.75588e-49 1.51481e-49 -1.76296e-50)
(2.11329e-51 8.52268e-52 -9.91744e-53)
(2.23341e-33 9.01631e-34 -1.05125e-34)
(1.52216e-35 6.14479e-36 -7.16418e-37)
(1.00922e-37 4.07393e-38 -4.74953e-39)
(6.52918e-40 2.63555e-40 -3.07243e-41)
(4.13233e-42 1.66797e-42 -1.94434e-43)
(2.56411e-44 1.03493e-44 -1.20633e-45)
(1.56277e-46 6.30741e-47 -7.35144e-48)
(9.37054e-49 3.78184e-49 -4.40749e-50)
(5.5355e-51 2.23397e-51 -2.60334e-52)
(3.22554e-53 1.30168e-53 -1.51677e-54)
(1.92243e-32 5.34376e-33 -3.80922e-35)
(1.25183e-34 3.47589e-35 -2.60817e-37)
(7.94759e-37 2.20432e-37 -1.73545e-39)
(4.93347e-39 1.3668e-39 -1.12575e-41)
(3.00146e-41 8.30607e-42 -7.13817e-44)
(1.79331e-43 4.95705e-44 -4.43451e-46)
(1.05407e-45 2.91031e-46 -2.70441e-48)
(6.10416e-48 1.68342e-48 -1.62184e-50)
(3.48726e-50 9.60606e-51 -9.57846e-53)
(1.9676e-52 5.41363e-53 -5.57825e-55)
(4.15473e-32 1.67412e-32 -1.94407e-33)
(2.69759e-34 1.08682e-34 -1.26174e-35)
(1.70775e-36 6.87931e-37 -7.98435e-38)
(1.05711e-38 4.25773e-39 -4.94031e-40)
(6.41359e-41 2.58282e-41 -2.99605e-42)
(3.82156e-43 1.53875e-43 -1.78444e-44)
(2.24023e-45 9.01892e-46 -1.0456e-46)
(1.29389e-47 5.2083e-48 -6.03645e-49)
(7.37266e-50 2.96725e-50 -3.43807e-51)
(4.14913e-52 1.66963e-52 -1.93399e-53)
(8.72656e-34 3.52115e-34 -4.10087e-35)
(5.94765e-36 2.39971e-36 -2.79453e-37)
(3.94345e-38 1.59097e-38 -1.85254e-39)
(2.55128e-40 1.02924e-40 -1.19832e-41)
(1.61474e-42 6.51376e-43 -7.58292e-44)
(1.00197e-44 4.04159e-45 -4.7044e-46)
(6.10686e-47 2.46313e-47 -2.86672e-48)
(3.66182e-49 1.47685e-49 -1.71861e-50)
(2.1632e-51 8.72381e-52 -1.01506e-52)
(1.26053e-53 5.08311e-54 -5.91366e-55)
(9.65246e-36 3.89645e-36 -4.54206e-37)
(6.89121e-38 2.78171e-38 -3.2425e-39)
(4.77623e-40 1.9279e-40 -2.24716e-41)
(3.22408e-42 1.30133e-42 -1.51675e-43)
(2.12537e-44 8.57827e-45 -9.9977e-46)
(1.37143e-46 5.53505e-47 -6.45051e-48)
(8.67932e-49 3.5028e-49 -4.08186e-50)
(5.39655e-51 2.17785e-51 -2.53769e-52)
(3.30152e-53 1.33231e-53 -1.55233e-54)
(1.98998e-55 8.03013e-56 -9.35549e-57)
(5.29442e-35 1.47005e-35 -1.10068e-37)
(3.61977e-37 1.00397e-37 -7.89332e-40)
(2.40741e-39 6.66973e-40 -5.48958e-42)
(1.56225e-41 4.32337e-42 -3.71496e-44)
(9.91724e-44 2.7414e-44 -2.45323e-46)
(6.1719e-46 1.70414e-46 -1.58469e-48)
(3.77264e-48 1.04047e-48 -1.00342e-50)
(2.26865e-50 6.24957e-51 -6.23931e-53)
(1.344e-52 3.69805e-53 -3.81588e-55)
(7.85359e-55 2.1584e-55 -2.29856e-57)
(1.14128e-34 4.59794e-35 -5.33707e-36)
(7.78024e-37 3.13402e-37 -3.6369e-38)
(5.15967e-39 2.07811e-39 -2.41093e-40)
(3.33889e-41 1.34458e-41 -1.5595e-42)
(2.11371e-43 8.51067e-44 -9.8684e-45)
(1.31188e-45 5.28139e-46 -6.12225e-47)
(7.99758e-48 3.21919e-48 -3.73069e-49)
(4.79664e-50 1.93046e-50 -2.23656e-51)
(2.83425e-52 1.1405e-52 -1.32096e-53)
(1.65194e-54 6.64634e-55 -7.69581e-56)
(2.51628e-36 1.01522e-36 -1.18204e-37)
(1.79655e-38 7.24792e-39 -8.43819e-40)
(1.24524e-40 5.02342e-41 -5.84781e-42)
(8.40615e-43 3.3909e-43 -3.94696e-44)
(5.54177e-45 2.23531e-45 -2.60158e-46)
(3.57611e-47 1.44235e-47 -1.6785e-48)
(2.26333e-49 9.12804e-50 -1.06212e-50)
(1.40735e-51 5.67546e-52 -6.60303e-53)
(8.61039e-54 3.4721e-54 -4.03905e-55)
(5.19017e-56 2.09277e-56 -2.43417e-57)
(2.91545e-38 1.17681e-38 -1.3715e-39)
(2.17593e-40 8.78274e-41 -1.02355e-41)
(1.5736e-42 6.35133e-43 -7.40161e-44)
(1.10642e-44 4.46555e-45 -5.20375e-46)
(7.58509e-47 3.06125e-47 -3.56711e-48)
(5.08241e-49 2.05112e-49 -2.38991e-50)
(3.33547e-51 1.34604e-51 -1.56828e-52)
(2.14787e-53 8.66744e-54 -1.00978e-54)
(1.35928e-55 5.48497e-56 -6.38965e-57)
(8.46576e-58 3.41596e-58 -3.97907e-59)
(1.1506e-37 3.19124e-38 -2.4941e-40)
(8.24159e-40 2.28333e-40 -1.86939e-42)
(5.73067e-42 1.58592e-42 -1.35627e-44)
(3.88068e-44 1.07275e-44 -9.55823e-47)
(2.56624e-46 7.0859e-47 -6.56272e-49)
(1.66103e-48 4.5812e-49 -4.40123e-51)
(1.05442e-50 2.90478e-51 -2.88938e-53)
(6.5758e-53 1.80944e-53 -1.86038e-55)
(4.03495e-55 1.10898e-55 -1.17677e-57)
(2.43921e-57 6.69616e-58 -7.32324e-60)
(2.47393e-37 9.96507e-38 -1.15202e-38)
(1.76688e-39 7.11607e-40 -8.22324e-41)
(1.22507e-41 4.93323e-42 -5.6984e-43)
(8.27264e-44 3.33083e-44 -3.84582e-45)
(5.45552e-46 2.19624e-46 -2.53472e-47)
(3.5216e-48 1.41749e-48 -1.63524e-49)
(2.22955e-50 8.97288e-51 -1.03467e-51)
(1.3868e-52 5.58036e-53 -6.43191e-54)
(8.48746e-55 3.41476e-55 -3.93409e-56)
(5.11776e-57 2.05871e-57 -2.37074e-58)
(5.7131e-39 2.30478e-39 -2.67265e-40)
(4.26457e-41 1.72031e-41 -1.9944e-42)
(3.08454e-43 1.24422e-43 -1.44208e-44)
(2.16911e-45 8.74904e-46 -1.01377e-46)
(1.48726e-47 5.99842e-48 -6.94862e-49)
(9.96694e-50 4.0196e-50 -4.65505e-51)
(6.54204e-52 2.63818e-52 -3.05439e-53)
(4.21337e-54 1.69899e-54 -1.96647e-55)
(2.66684e-56 1.0753e-56 -1.24422e-57)
(1.66119e-58 6.69761e-59 -7.74753e-60)
(6.92013e-41 2.79309e-41 -3.24163e-42)
(5.38955e-43 2.17525e-43 -2.5241e-44)
(4.06022e-45 1.63867e-45 -1.90109e-46)
(2.96912e-47 1.19827e-47 -1.38988e-48)
(2.11387e-49 8.53077e-50 -9.89281e-51)
(1.46894e-51 5.92783e-52 -6.87277e-53)
(9.98508e-54 4.02927e-54 -4.67051e-55)
(6.65193e-56 2.68413e-56 -3.11059e-57)
(4.35023e-58 1.7553e-58 -2.0337e-59)
(2.79692e-60 1.1285e-60 -1.30718e-61)
)
;

boundaryField
{
    inlet
    {
        type            calculated;
        value           nonuniform 0();
    }
    outlet
    {
        type            calculated;
        value           nonuniform 0();
    }
    bottom
    {
        type            calculated;
        value           uniform (0 0 0);
    }
    top
    {
        type            symmetryPlane;
    }
    side1
    {
        type            symmetryPlane;
    }
    side2
    {
        type            symmetryPlane;
    }
    procBoundary5to4
    {
        type            processor;
        value           nonuniform List<vector> 
20
(
(1.10217e-25 3.07381e-26 -1.85205e-28)
(2.40131e-25 9.68063e-26 -1.12542e-26)
(4.29167e-27 1.73212e-27 -2.01859e-28)
(4.07115e-29 1.64371e-29 -1.91697e-30)
(7.71938e-28 2.15046e-28 -1.37362e-30)
(1.67752e-27 6.76157e-28 -7.85723e-29)
(3.17301e-29 1.2805e-29 -1.49187e-30)
(3.17628e-31 1.28231e-31 -1.49516e-32)
(2.86857e-30 7.98243e-31 -5.38705e-33)
(6.2178e-30 2.50577e-30 -2.91055e-31)
(1.24103e-31 5.00784e-32 -5.83283e-33)
(1.3075e-33 5.27821e-34 -6.15293e-35)
(7.5055e-33 2.08626e-33 -1.48289e-35)
(1.6227e-32 6.53834e-33 -7.59122e-34)
(3.4083e-34 1.37519e-34 -1.60129e-35)
(3.76994e-36 1.52177e-36 -1.77356e-37)
(1.55339e-35 4.31307e-36 -3.2084e-38)
(3.34985e-35 1.34952e-35 -1.56075e-36)
(7.38639e-37 2.97999e-37 -3.45642e-38)
(8.559e-39 3.45467e-39 -4.01013e-40)
)
;
    }
    procBoundary5to6
    {
        type            processor;
        value           nonuniform List<vector> 
20
(
(1.5924e-50 4.38348e-51 -4.2702e-53)
(3.3706e-50 1.3566e-50 -1.57211e-51)
(9.89218e-52 3.98946e-52 -4.64273e-53)
(1.51013e-53 6.09426e-54 -7.10193e-55)
(1.83226e-52 5.03793e-53 -5.07539e-55)
(3.86886e-52 1.55687e-52 -1.80353e-53)
(1.17545e-53 4.74011e-54 -5.51508e-55)
(1.85576e-55 7.48862e-56 -8.72538e-57)
(1.09584e-54 3.00959e-55 -3.13214e-57)
(2.30824e-54 9.28705e-55 -1.07544e-55)
(7.25241e-56 2.92434e-56 -3.4017e-57)
(1.18296e-57 4.77337e-58 -5.56077e-59)
(4.52419e-57 1.24108e-57 -1.33281e-59)
(9.50647e-57 3.8242e-57 -4.42678e-58)
(3.08553e-58 1.24405e-58 -1.44681e-59)
(5.19463e-60 2.09595e-60 -2.44128e-61)
(1.45193e-59 3.97833e-60 -4.38042e-62)
(3.04345e-59 1.22409e-59 -1.40899e-60)
(1.01948e-60 4.11004e-61 -4.75294e-62)
(1.76992e-62 7.1409e-63 -8.26958e-64)
)
;
    }
    procBoundary5to13
    {
        type            processor;
        value           nonuniform List<vector> 
50
(
(1.91072e-33 7.71557e-34 -9.00102e-35)
(1.30148e-35 5.25529e-36 -6.13074e-37)
(8.6225e-38 3.48163e-38 -4.06152e-39)
(5.57356e-40 2.25045e-40 -2.6252e-41)
(3.52424e-42 1.42296e-42 -1.65984e-43)
(2.18472e-44 8.8208e-45 -1.02888e-45)
(1.33028e-46 5.37086e-47 -6.26439e-48)
(7.96931e-49 3.21741e-49 -3.75249e-50)
(4.7037e-51 1.89894e-51 -2.21463e-52)
(2.73863e-53 1.10558e-53 -1.28931e-54)
(1.64672e-35 6.64914e-36 -7.75545e-37)
(1.17476e-37 4.74337e-38 -5.53254e-39)
(8.13477e-40 3.28451e-40 -3.8309e-41)
(5.4856e-42 2.21482e-42 -2.58319e-43)
(3.61231e-44 1.45844e-44 -1.70095e-45)
(2.32836e-46 9.40025e-47 -1.09629e-47)
(1.47195e-48 5.9425e-49 -6.93006e-50)
(9.14256e-51 3.6909e-51 -4.30407e-52)
(5.5877e-53 2.25571e-53 -2.63033e-54)
(3.36479e-55 1.3583e-55 -1.58379e-56)
(7.4544e-38 3.00977e-38 -3.50989e-39)
(5.55902e-40 2.24445e-40 -2.61739e-41)
(4.01633e-42 1.62155e-42 -1.89097e-43)
(2.82093e-44 1.1389e-44 -1.32809e-45)
(1.93173e-46 7.79876e-47 -9.09407e-48)
(1.29289e-48 5.2195e-49 -6.08621e-50)
(8.47542e-51 3.4215e-51 -3.98949e-52)
(5.45182e-53 2.20082e-53 -2.56606e-54)
(3.44665e-55 1.39132e-55 -1.62214e-56)
(2.14451e-57 8.65652e-58 -1.00921e-58)
(2.35355e-40 9.5021e-41 -1.10789e-41)
(1.83129e-42 7.39341e-43 -8.62034e-44)
(1.37811e-44 5.5637e-45 -6.48696e-46)
(1.00659e-46 4.06369e-47 -4.73797e-48)
(7.15764e-49 2.88953e-49 -3.3689e-50)
(4.96771e-51 2.0054e-51 -2.33803e-52)
(3.37267e-53 1.36147e-53 -1.58723e-54)
(2.24418e-55 9.05895e-56 -1.05607e-56)
(1.466e-57 5.91754e-58 -6.89824e-59)
(9.41532e-60 3.8004e-60 -4.43002e-61)
(5.82902e-43 2.35324e-43 -2.73194e-44)
(4.7246e-45 1.90734e-45 -2.21395e-46)
(3.69774e-47 1.49277e-47 -1.73245e-48)
(2.80484e-49 1.13228e-49 -1.31385e-50)
(2.0684e-51 8.34968e-52 -9.6869e-53)
(1.48689e-53 6.00209e-54 -6.96202e-55)
(1.04434e-55 4.21552e-56 -4.88877e-57)
(7.18101e-58 2.89857e-58 -3.36082e-59)
(4.84253e-60 1.9546e-60 -2.26584e-61)
(3.20745e-62 1.29459e-62 -1.50042e-63)
)
;
    }
}


// ************************************************************************* //
