/*--------------------------------*- C++ -*----------------------------------*\
| =========                 |                                                 |
| \\      /  F ield         | OpenFOAM: The Open Source CFD Toolbox           |
|  \\    /   O peration     | Version:  2.4.0                                 |
|   \\  /    A nd           | Web:      www.OpenFOAM.org                      |
|    \\/     M anipulation  |                                                 |
\*---------------------------------------------------------------------------*/
FoamFile
{
    version     2.0;
    format      ascii;
    class       volVectorField;
    location    "0.01";
    object      Ur;
}
// * * * * * * * * * * * * * * * * * * * * * * * * * * * * * * * * * * * * * //

dimensions      [0 1 -1 0 0 0 0];

internalField   nonuniform List<vector> 
200
(
(0.034366 0.0180865 2.3776)
(0.468347 -0.401874 2.90564)
(0.574215 -0.00533767 2.90136)
(0.0681199 1.47818 5.78885)
(-1.06662 -0.331159 1.56517)
(-2.00817 0.491753 9.20598)
(-2.31268 0.425603 4.37594)
(-2.39672 0.0177952 6.99387)
(0.426135 3.84423 9.29707)
(-4.99898 1.85817 18.823)
(-0.410796 -0.501849 1.64926)
(-0.383117 0.126123 2.93191)
(-1.19618 0.596805 2.27909)
(-1.46198 0.416626 2.20621)
(-1.1942 4.26703 12.6517)
(-3.36197 -1.09726 7.35386)
(-2.78691 -2.22218 4.57633)
(-2.87823 -2.47528 -0.997595)
(-2.50034 0.251706 15.7166)
(-5.61192 0.551405 8.7261)
(-1.84977 3.26962 0.407256)
(-1.61711 5.67288 0.58111)
(-2.10181 2.23751 1.07656)
(-2.04259 1.47819 5.51241)
(-3.18419 1.00899 9.69447)
(-2.04561 -4.40865 -1.56453)
(-2.2426 -4.23077 -2.2183)
(-2.63176 -2.07 4.8376)
(-4.47395 -0.716194 3.41167)
(-4.84607 -2.79852 -4.37072)
(-8.35128 -7.33566 -4.22061)
(-4.188 4.20303 -1.61208)
(-3.86231 7.61137 1.09063)
(-2.96962 0.944258 1.20632)
(-2.65026 -1.75501 -2.7109)
(-1.83145 -0.729288 -2.93301)
(-2.683 0.170753 -0.677764)
(-3.04004 0.329075 -2.14238)
(-3.32907 0.496111 -2.17214)
(-0.965845 -0.85424 -0.694289)
(-4.94173 0.715623 -5.839)
(-3.38242 -0.0528063 -1.08022)
(-3.16421 0.151639 0.298976)
(-2.11219 0.949977 -1.17598)
(-2.80744 3.26849 3.41564)
(-4.05086 1.43143 2.92602)
(-4.38455 0.197758 1.09758)
(-5.75013 -1.15244 -5.9996)
(-2.82876 1.38228 1.0304)
(-3.71525 2.18324 7.853)
(-3.58974 0.562992 -3.43235)
(-2.82035 -0.101984 -10.4706)
(-3.53115 -0.555595 -1.75116)
(-3.5212 1.47807 -0.0602096)
(-1.83937 2.99655 -2.18661)
(-1.20717 4.52928 6.0199)
(-3.82058 2.18236 2.18928)
(-3.66766 0.907706 2.31441)
(-3.19659 3.77491 4.72748)
(-0.74578 1.95708 4.20389)
(-3.32667 3.95891 -4.5932)
(-3.82524 1.54661 -4.91006)
(-2.41987 2.25768 -15.8399)
(-2.52004 2.56681 -5.62407)
(-1.97 -0.200846 -4.02655)
(0.902347 5.73446 -6.42976)
(-0.170886 0.681476 0.15537)
(-3.83772 -2.95473 -1.4707)
(-2.91522 1.05794 1.27421)
(-1.82246 1.45579 0.620729)
(-5.05044 2.46633 -3.0155)
(-4.88847 6.55396 -5.99415)
(-3.85264 1.57605 -3.72306)
(-2.89692 0.380532 -6.73718)
(-0.619897 2.85478 -5.2782)
(-4.20231 -3.76233 1.75716)
(8.02013 9.16034 -9.37365)
(-0.53374 6.66025 -5.06117)
(-0.989364 2.04978 -1.57797)
(-1.61167 0.986976 -0.580331)
(-4.50646 -0.0892117 1.29192)
(-5.39749 0.265828 1.13243)
(-4.49503 -0.121241 1.03354)
(-3.57078 0.708807 1.84984)
(-1.94694 1.54888 2.0819)
(-3.0567 0.576624 2.33014)
(-4.07257 0.237319 1.03603)
(-3.57681 1.03692 1.18538)
(-3.91523 1.94434 2.60525)
(-4.81204 1.31145 2.07715)
(-2.88479 0.777346 -9.20138)
(-6.24304 -0.491001 0.667291)
(-7.17472 -3.80834 0.651837)
(-6.09765 -5.77319 -0.17541)
(-5.46179 0.67207 -2.91183)
(-2.10047 11.0553 12.575)
(-3.40886 0.570598 5.86637)
(-4.55092 1.04893 0.510203)
(-2.4728 0.911318 1.69418)
(-4.70118 3.99037 5.36033)
(-3.50209 1.53672 -8.95636)
(-2.86549 3.24294 -20.762)
(-2.23609 3.96302 -0.864932)
(-21.9401 -4.79089 4.00824)
(-5.12541 -4.31327 -5.87119)
(-6.86225 -1.26657 -1.37936)
(-6.15024 11.2123 16.1796)
(-4.65012 0.541506 6.56262)
(-3.25595 -0.338947 -0.733025)
(-3.13074 -0.782948 -1.15142)
(-2.17434 6.2534 -10.878)
(-4.34927 3.35266 -4.6375)
(-7.88079 -0.837516 -5.38582)
(-4.39944 1.72364 -1.20355)
(-1.7248 -13.5943 -18.4513)
(-3.4632 -0.751688 -13.1389)
(-7.61088 -5.14832 2.20754)
(-3.30412 -0.217278 2.7096)
(-1.8878 -0.292529 1.93274)
(-2.55104 -0.861355 -0.00640218)
(-3.79186 0.593705 0.538337)
(-3.73974 0.0118835 1.06451)
(-3.72766 0.533063 1.40636)
(-2.86541 1.06732 -0.251376)
(-3.82076 1.29086 3.10766)
(-4.07474 0.161797 1.53158)
(-3.543 0.218371 0.438886)
(-3.62785 1.02402 0.562297)
(-4.71004 3.69131 -0.399878)
(-4.1923 -3.45437 13.8727)
(-4.86997 1.12325 0.769702)
(-5.34783 0.789554 0.515565)
(-3.84694 -2.27605 0.18981)
(-3.3745 1.39224 0.360629)
(-3.43433 2.11879 1.12344)
(-4.04473 0.180596 1.84156)
(-3.74816 0.291142 1.13815)
(-3.18444 1.03969 1.27642)
(-2.28119 2.37399 -2.70327)
(-1.15749 -0.0884251 23.0091)
(-3.30742 3.10857 -14.8259)
(-7.80354 1.47768 1.5904)
(-8.43133 -0.720282 4.64957)
(-1.9263 0.263481 0.87136)
(-2.23694 2.04391 -0.872707)
(-5.75588 8.91938 1.00691)
(-5.61364 1.92141 2.93487)
(-3.3897 0.538992 0.396926)
(-2.68543 -0.83202 -1.34425)
(-3.3288 13.587 1.23676)
(-2.52841 1.46557 -5.45979)
(-4.34204 1.27476 -3.13022)
(-2.95684 4.56853 -2.81949)
(-3.87139 -6.58194 -6.5698)
(-5.24338 0.605797 -0.524205)
(-8.62273 2.50053 1.17223)
(-5.43565 2.17864 1.00003)
(-5.28674 0.314681 1.90645)
(-4.88577 -0.203671 1.35157)
(-3.71311 -0.67618 0.52346)
(-3.42843 1.19615 0.129337)
(-2.79946 1.41926 1.72551)
(-3.82528 1.71726 1.56303)
(-4.19423 1.10945 0.423705)
(-4.4623 1.09393 -0.249328)
(-4.60025 0.891652 -0.310364)
(-4.82792 0.776975 -0.109518)
(-3.80067 0.77488 1.90063)
(-6.03628 0.708612 -7.16231)
(-4.45835 0.430709 -2.6516)
(-4.23644 0.923779 1.23342)
(-3.246 3.63312 -5.93777)
(-4.50051 3.7338 1.00006)
(-4.60588 1.80446 1.59627)
(-6.80132 5.24466 1.60545)
(-5.41306 1.69116 0.052824)
(-4.8625 1.20619 0.0570704)
(-4.21745 1.43339 0.0165418)
(-5.94991 1.5569 -1.72693)
(-4.07528 1.17882 -1.82136)
(-3.38278 2.99598 -2.85998)
(-4.66819 -3.97746 -0.70637)
(-6.41448 8.49987 -66.495)
(-13.4853 6.30297 1.21397)
(-7.09425 2.46952 2.36668)
(-6.57491 0.917425 1.97831)
(-5.07328 0.810439 0.6026)
(-4.71171 0.714646 -0.275119)
(-4.01332 1.50861 -0.0523675)
(-3.46713 1.2546 0.700382)
(-1.08374 1.85216 -0.273144)
(-1.2999 8.99969 0.822833)
(-4.7506 -2.14396 0.245558)
(-5.19265 -0.823535 0.150601)
(-4.6152 0.318273 0.0493932)
(-4.86856 0.251961 0.403862)
(-4.36125 0.204718 0.886721)
(-5.22512 0.0848028 0.633886)
(-4.14366 -0.093735 0.444805)
(-4.67026 1.43098 0.906608)
)
;

boundaryField
{
    inlet
    {
        type            calculated;
        value           nonuniform 0();
    }
    outlet
    {
        type            calculated;
        value           nonuniform 0();
    }
    bottom
    {
        type            calculated;
        value           uniform (0 0 0);
    }
    top
    {
        type            symmetryPlane;
    }
    side1
    {
        type            symmetryPlane;
    }
    side2
    {
        type            symmetryPlane;
    }
    procBoundary5to4
    {
        type            processor;
        value           nonuniform List<vector> 
20
(
(-1.57004 1.1415 -3.98972)
(-0.26469 -0.248021 0.197869)
(-6.40442 -4.09676 -0.576826)
(-12.7865 -33.0203 1.69086)
(-3.86691 0.793971 -2.15045)
(-4.22153 -0.443041 0.482133)
(-7.1669 0.978585 9.89646)
(-8.1447 -3.6417 0.68485)
(-4.6718 0.385908 0.149659)
(-4.07695 -0.0381553 -3.46028)
(-2.76788 3.07363 -7.96556)
(-4.12321 3.98986 -1.33217)
(-3.64047 0.582513 -3.6062)
(-1.93319 1.50903 -5.19046)
(-2.84608 1.87545 -11.0503)
(2.64 9.24096 -21.6008)
(-3.18855 0.594618 0.757693)
(-2.70229 1.30213 0.323745)
(-1.51411 0.638957 -1.19343)
(-2.29917 -2.15786 -1.8786)
)
;
    }
    procBoundary5to6
    {
        type            processor;
        value           nonuniform List<vector> 
20
(
(-7.99004 -0.498227 7.76112)
(-7.31135 -7.81674 -9.2723)
(-2.83256 -2.84597 -3.16359)
(-2.33147 -1.89302 -1.59707)
(-1.31625 2.42887 10.5092)
(-1.49169 4.52232 14.5316)
(-2.11152 0.889311 -0.650461)
(-2.20256 2.18279 -0.396671)
(-4.05063 1.57005 0.438509)
(-2.38647 1.78491 0.74721)
(-1.60018 1.67524 0.795923)
(-2.7533 0.513831 -0.730573)
(-2.38256 -0.795509 1.8431)
(-3.66274 0.404116 3.6312)
(-3.05925 1.09579 1.09031)
(-3.36057 0.788472 0.400227)
(-3.15818 0.510507 -0.379269)
(-2.41022 1.09149 -0.160523)
(-2.71693 2.47391 0.234987)
(-3.85461 1.39173 0.35609)
)
;
    }
    procBoundary5to13
    {
        type            processor;
        value           nonuniform List<vector> 
50
(
(-8.45027 0.835493 -0.912599)
(-7.85737 0.37123 -1.98748)
(-3.83263 1.23614 -2.17676)
(-4.68732 8.24104 9.05064)
(-2.4989 1.63025 0.909999)
(-1.611 0.387627 -1.56256)
(-1.31085 1.89628 -1.75864)
(-3.91316 4.76486 -1.86097)
(-2.59016 -4.27786 1.24062)
(-2.75638 -6.4339 -2.5984)
(-6.10875 1.77583 -2.40878)
(-5.27311 2.00917 -0.800381)
(-4.37972 3.76352 -4.96111)
(-3.91963 2.25551 -3.13855)
(-1.5729 3.32686 -11.7612)
(-2.13151 2.71156 -1.964)
(-8.41598 -8.8341 10.4882)
(1.85698 2.90389 6.58722)
(-4.27542 3.98245 -2.31713)
(-3.93695 3.44203 -3.55018)
(-1.70948 7.35571 2.13072)
(-0.69933 6.97314 -9.28562)
(-5.58969 5.08089 -5.55494)
(3.11367 -21.9615 -26.2127)
(-5.59872 -2.18983 -1.0149)
(-11.3958 -1.2981 2.77301)
(-6.92644 1.03616 0.858122)
(-13.0924 -17.3045 18.2187)
(0.105141 -3.09024 14.912)
(-2.68015 3.71108 -0.967555)
(-1.4952 4.4507 -2.45733)
(0.99337 4.18736 4.23702)
(-3.51132 -2.2484 -0.190679)
(-4.87025 1.33352 -0.345633)
(-8.29119 2.13551 -1.88005)
(-6.23538 1.06338 0.664497)
(-11.5735 -1.97298 2.77975)
(-5.1362 0.581065 1.07469)
(-3.72801 1.44758 0.835709)
(-2.86072 1.92465 0.359115)
(-4.18848 1.74699 -0.0858825)
(-2.75145 2.31072 -0.143122)
(-1.01912 11.4311 1.52269)
(-3.54316 1.18999 -1.28456)
(-3.77791 1.07863 -0.0222167)
(-4.86942 0.242122 -0.222405)
(-3.77038 4.46675 3.46761)
(-4.19517 1.91477 0.620635)
(-4.82909 1.42135 0.509729)
(-4.19208 1.11526 0.305015)
)
;
    }
}


// ************************************************************************* //
