/*--------------------------------*- C++ -*----------------------------------*\
| =========                 |                                                 |
| \\      /  F ield         | OpenFOAM: The Open Source CFD Toolbox           |
|  \\    /   O peration     | Version:  2.4.0                                 |
|   \\  /    A nd           | Web:      www.OpenFOAM.org                      |
|    \\/     M anipulation  |                                                 |
\*---------------------------------------------------------------------------*/
FoamFile
{
    version     2.0;
    format      ascii;
    class       volScalarField;
    location    "0.01";
    object      alpha;
}
// * * * * * * * * * * * * * * * * * * * * * * * * * * * * * * * * * * * * * //

dimensions      [0 0 0 0 0 0 0];

internalField   nonuniform List<scalar> 
60
(
3.24218e-59
2.83785e-61
2.47349e-63
2.07896e-65
1.68019e-67
9.22375e-62
7.30171e-64
6.02165e-66
5.00015e-68
4.0935e-70
2.49256e-64
1.92831e-66
1.53061e-68
1.23734e-70
1.00432e-72
6.32027e-67
4.97227e-69
3.92011e-71
3.11963e-73
2.50056e-75
4.19531e-61
3.79107e-63
3.40835e-65
2.95138e-67
2.45479e-69
1.23293e-63
1.00495e-65
8.53301e-68
7.29142e-70
6.13817e-72
3.43685e-66
2.73387e-68
2.23078e-70
1.85329e-72
1.54522e-74
8.97808e-69
7.25626e-71
5.87453e-73
4.79888e-75
3.94708e-77
2.8132e-63
2.62222e-65
2.42977e-67
2.16604e-69
1.85283e-71
8.5329e-66
7.15592e-68
6.25138e-70
5.49327e-72
4.7522e-74
2.45161e-68
2.00382e-70
1.67975e-72
1.43326e-74
1.22681e-76
6.59306e-71
5.4708e-73
4.54534e-75
3.80931e-77
3.21326e-79
)
;

boundaryField
{
    inlet
    {
        type            zeroGradient;
    }
    outlet
    {
        type            zeroGradient;
    }
    bottom
    {
        type            fixedValue;
        value           uniform 0;
    }
    top
    {
        type            symmetryPlane;
    }
    side1
    {
        type            symmetryPlane;
    }
    side2
    {
        type            symmetryPlane;
    }
    procBoundary51to35
    {
        type            processor;
        value           nonuniform List<scalar> 
15
(
4.37127e-56
3.20638e-58
2.31979e-60
1.66833e-62
1.19675e-64
5.57586e-58
4.21533e-60
3.14099e-62
2.32507e-64
1.71574e-66
3.68698e-60
2.87043e-62
2.20115e-64
1.67587e-66
1.27131e-68
)
;
    }
    procBoundary51to50
    {
        type            processor;
        value           nonuniform List<scalar> 
12
(
1.33482e-56
2.9593e-59
6.44253e-62
1.39452e-64
1.70211e-58
3.88831e-61
8.71711e-64
1.94226e-66
1.12516e-60
2.64631e-63
6.1047e-66
1.3991e-68
)
;
    }
    procBoundary51to52
    {
        type            processor;
        value           nonuniform List<scalar> 
12
(
2.85805e-70
9.23577e-73
2.78532e-75
7.86095e-78
4.21979e-72
1.40276e-74
4.34694e-77
1.25946e-79
3.21788e-74
1.0997e-76
3.49957e-79
1.04035e-81
)
;
    }
    procBoundary51to115
    {
        type            processor;
        value           nonuniform List<scalar> 
20
(
3.74432e-66
3.43229e-68
3.09143e-70
2.69418e-72
2.27358e-74
1.08724e-68
9.54711e-71
8.48433e-73
7.44785e-75
6.3962e-77
3.00939e-71
2.63769e-73
2.34369e-75
2.07296e-77
1.80594e-79
7.92453e-74
7.06409e-76
6.35777e-78
5.69758e-80
5.03967e-82
)
;
    }
}


// ************************************************************************* //
