/*--------------------------------*- C++ -*----------------------------------*\
| =========                 |                                                 |
| \\      /  F ield         | OpenFOAM: The Open Source CFD Toolbox           |
|  \\    /   O peration     | Version:  2.4.0                                 |
|   \\  /    A nd           | Web:      www.OpenFOAM.org                      |
|    \\/     M anipulation  |                                                 |
\*---------------------------------------------------------------------------*/
FoamFile
{
    version     2.0;
    format      ascii;
    class       volScalarField;
    location    "0.01";
    object      p;
}
// * * * * * * * * * * * * * * * * * * * * * * * * * * * * * * * * * * * * * //

dimensions      [1 -1 -2 0 0 0 0];

internalField   nonuniform List<scalar> 
60
(
-1.38628e+18
-1.13073e+18
-9.94008e+17
-9.3701e+17
-9.57934e+17
-2.31689e+18
-2.00024e+18
-1.6844e+18
-1.5401e+18
-1.46057e+18
-2.7452e+18
-2.48231e+18
-2.37699e+18
-2.18811e+18
-1.90949e+18
-2.94485e+18
-2.5762e+18
-2.45946e+18
-2.37487e+18
-2.25377e+18
-2.16283e+18
-1.99289e+18
-1.63717e+18
-1.33786e+18
-1.18073e+18
-2.73895e+18
-2.51277e+18
-2.32646e+18
-2.11401e+18
-1.76628e+18
-2.94067e+18
-2.70225e+18
-2.55104e+18
-2.42907e+18
-2.30972e+18
-3.16608e+18
-2.90298e+18
-2.68667e+18
-2.49997e+18
-2.37909e+18
-3.36084e+18
-2.99856e+18
-2.6535e+18
-2.16912e+18
-1.72675e+18
-3.90099e+18
-3.46744e+18
-3.06159e+18
-2.69435e+18
-2.25888e+18
-4.03183e+18
-3.45543e+18
-3.1499e+18
-2.94274e+18
-2.7133e+18
-4.19645e+18
-3.68102e+18
-3.32643e+18
-3.09976e+18
-2.87194e+18
)
;

boundaryField
{
    inlet
    {
        type            zeroGradient;
    }
    outlet
    {
        type            fixedValue;
        value           nonuniform 0();
    }
    bottom
    {
        type            zeroGradient;
    }
    top
    {
        type            symmetryPlane;
    }
    side1
    {
        type            symmetryPlane;
    }
    side2
    {
        type            symmetryPlane;
    }
    procBoundary51to35
    {
        type            processor;
        value           nonuniform List<scalar> 
15
(
2.32649e+17
8.19388e+16
3.25606e+16
2.36905e+17
1.82442e+17
-9.19939e+17
-7.38396e+17
-5.16509e+17
-4.10998e+17
-4.74426e+17
-2.57812e+18
-2.27184e+18
-1.97773e+18
-1.66589e+18
-1.36382e+18
)
;
    }
    procBoundary51to50
    {
        type            processor;
        value           nonuniform List<scalar> 
12
(
-1.61568e+18
-2.71646e+18
-3.22428e+18
-3.42912e+18
-2.38856e+18
-3.13864e+18
-3.45465e+18
-3.56775e+18
-3.84668e+18
-4.38678e+18
-4.50866e+18
-4.47653e+18
)
;
    }
    procBoundary51to52
    {
        type            processor;
        value           nonuniform List<scalar> 
12
(
-8.46988e+17
-1.38622e+18
-1.7597e+18
-1.95642e+18
-1.08331e+18
-1.51732e+18
-2.03895e+18
-2.26843e+18
-1.48188e+18
-1.7691e+18
-2.32231e+18
-2.5958e+18
)
;
    }
    procBoundary51to115
    {
        type            processor;
        value           nonuniform List<scalar> 
20
(
-5.19228e+18
-4.4454e+18
-3.8785e+18
-3.38299e+18
-2.74685e+18
-5.15657e+18
-4.55937e+18
-4.03673e+18
-3.55582e+18
-2.97941e+18
-5.05373e+18
-4.29252e+18
-3.96178e+18
-3.7307e+18
-3.42621e+18
-5.00777e+18
-4.50334e+18
-4.05844e+18
-3.68418e+18
-3.38646e+18
)
;
    }
}


// ************************************************************************* //
