/*--------------------------------*- C++ -*----------------------------------*\
| =========                 |                                                 |
| \\      /  F ield         | OpenFOAM: The Open Source CFD Toolbox           |
|  \\    /   O peration     | Version:  2.4.0                                 |
|   \\  /    A nd           | Web:      www.OpenFOAM.org                      |
|    \\/     M anipulation  |                                                 |
\*---------------------------------------------------------------------------*/
FoamFile
{
    version     2.0;
    format      ascii;
    class       surfaceScalarField;
    location    "0.01";
    object      phib;
}
// * * * * * * * * * * * * * * * * * * * * * * * * * * * * * * * * * * * * * //

dimensions      [0 3 -1 0 0 0 0];

internalField   nonuniform List<scalar> 
133
(
-48531.5
68497.3
42183.9
-62438.5
160314
44816.9
23886.5
180476
61162.7
40166.9
72018.6
18194.4
136352
27242
-96712.5
44598.7
41496.6
-91824
101670
53755
-22470.2
74360.4
36761.7
-77382.7
93893.6
33037.6
105272
32932.2
-88045.8
25867.5
15970
-52631.1
31305.4
34950.1
-81950.3
60939.4
42740.2
-88995.8
70482
30457.2
34132.4
9625.67
-147607
26688.2
-166556
50254
-204535
98918.8
-191238
57185.5
15572.4
-78268.3
111261
69669.1
-84632.9
103714
53411.2
-65432.5
102698
38181.9
-67789.6
98083
38713.8
107057
51171.8
-198462
50638.2
93468.3
-186350
62547.5
82810.5
-169281
72616.3
49774.3
-187205
115326
33718.7
88420.4
26248.7
-152710
40885
42279
-171856
52246
64397.9
-212983
52074.2
104409
-177739
49598.9
60940.8
55636.4
7260.87
-308836
61098
-308013
101677
-343587
186567
-373386
136583
45767.4
-139176
45335.3
-142216
38434.7
-149005
30634.1
-165573
37306.4
40430.1
-225900
11566.4
-154918
-316.015
-133864
17437
-140794
47234.8
44986.9
-162034
24975.6
-165319
27002.9
-199476
54131.1
-191694
68801.2
40282.9
-470793
-449910
-402593
-258819
)
;

boundaryField
{
    inlet
    {
        type            fixedValue;
        value           nonuniform 0();
    }
    outlet
    {
        type            calculated;
        value           nonuniform 0();
    }
    bottom
    {
        type            fixedValue;
        value           uniform 0;
    }
    top
    {
        type            symmetryPlane;
        value           nonuniform 0();
    }
    side1
    {
        type            symmetryPlane;
        value           nonuniform 0();
    }
    side2
    {
        type            symmetryPlane;
        value           uniform 0;
    }
    procBoundary51to35
    {
        type            processor;
        value           nonuniform List<scalar> 
15
(
-90595.8
-191224
-327963
-106493
-90857.3
-153032
-105944
-98917.5
-116245
-139163
-29573.7
-48328.5
-49593
-38769.3
-34990.8
)
;
    }
    procBoundary51to50
    {
        type            processor;
        value           nonuniform List<scalar> 
12
(
28446.3
79114.6
90807
146786
92554.4
207114
136155
315312
118537
285832
161769
546058
)
;
    }
    procBoundary51to52
    {
        type            processor;
        value           nonuniform List<scalar> 
12
(
-32569.1
-79234.2
-27482
-172678
-59613.2
-161884
-142590
-347944
-168544
-146028
-191034
-168340
)
;
    }
    procBoundary51to115
    {
        type            processor;
        value           nonuniform List<scalar> 
20
(
74546.4
66344.6
63930.4
56744.2
48704.3
67305.9
50579.5
41917.4
30720
26926.1
29135.1
40363.9
101873
31592
11305
10809.4
107797
193381
61609.9
-4428.56
)
;
    }
}


// ************************************************************************* //
