/*--------------------------------*- C++ -*----------------------------------*\
| =========                 |                                                 |
| \\      /  F ield         | OpenFOAM: The Open Source CFD Toolbox           |
|  \\    /   O peration     | Version:  2.4.0                                 |
|   \\  /    A nd           | Web:      www.OpenFOAM.org                      |
|    \\/     M anipulation  |                                                 |
\*---------------------------------------------------------------------------*/
FoamFile
{
    version     2.0;
    format      ascii;
    class       volVectorField;
    location    "0.01";
    object      Ur;
}
// * * * * * * * * * * * * * * * * * * * * * * * * * * * * * * * * * * * * * //

dimensions      [0 1 -1 0 0 0 0];

internalField   nonuniform List<vector> 
60
(
(1.57436e+10 -6.5175e+10 -2.97371e+10)
(3.1776e+10 -1.4193e+11 -4.09847e+10)
(-6.32395e+09 -1.94498e+11 -4.79051e+10)
(-1.0504e+10 -7.27722e+10 -2.80298e+09)
(-1.84084e+09 -1.00031e+11 -1.6426e+10)
(3.70977e+10 -4.58511e+10 -2.5967e+10)
(4.03546e+10 -1.06363e+11 -4.20686e+10)
(1.73869e+10 -9.16417e+10 -2.44172e+10)
(1.93041e+10 -8.01855e+10 -2.81654e+10)
(3.63144e+10 -9.66927e+10 -1.65415e+10)
(3.61243e+10 -2.83558e+10 -1.22683e+10)
(2.59343e+10 -4.86934e+10 -1.94511e+10)
(2.99021e+10 -5.16231e+10 -2.32409e+10)
(3.47604e+10 -6.75387e+10 -2.39943e+10)
(2.04934e+10 -5.17413e+10 -5.78693e+09)
(5.90511e+10 -1.05677e+10 -1.76641e+10)
(6.09727e+10 -1.33145e+10 -2.98657e+10)
(7.58336e+10 -4.67569e+10 -8.57841e+10)
(7.86983e+10 -2.14871e+10 -2.75298e+10)
(7.53492e+10 -1.44043e+10 -2.44151e+10)
(3.55359e+10 -1.05912e+11 -7.4919e+10)
(3.36651e+10 -8.08901e+10 -6.32122e+10)
(2.78743e+10 -8.04508e+10 -6.09515e+10)
(3.02855e+10 -8.32358e+10 -4.11552e+10)
(2.23591e+10 -9.76009e+10 -5.71691e+10)
(8.32362e+10 -6.83884e+10 -9.95628e+10)
(7.56483e+10 -6.81683e+10 -9.18196e+10)
(7.11389e+10 -6.59962e+10 -5.26018e+10)
(7.26185e+10 -8.46151e+10 -4.19245e+10)
(6.8184e+10 -7.81395e+10 -4.13205e+10)
(5.56549e+10 -3.51704e+10 -4.00681e+10)
(6.78866e+10 -4.66366e+10 -7.52368e+10)
(7.59702e+10 -5.56133e+10 -1.01424e+11)
(7.90331e+10 -6.55275e+10 -6.56976e+10)
(6.41218e+10 -5.60315e+10 -1.12502e+10)
(1.29649e+11 -1.97935e+10 -8.07858e+10)
(1.22559e+11 -2.25145e+10 -1.09709e+11)
(1.29983e+11 -2.08183e+10 -1.70641e+11)
(1.44395e+11 -2.78216e+10 -1.65387e+11)
(1.52314e+11 -3.32857e+10 -5.46098e+10)
(5.195e+10 -3.21955e+10 -9.0898e+10)
(5.57142e+10 -3.71052e+10 -7.72726e+10)
(5.94278e+10 -3.42299e+10 -6.68946e+10)
(6.17283e+10 -2.89985e+10 -6.47929e+10)
(6.93389e+10 -2.79057e+10 -6.39909e+10)
(1.04366e+11 -2.3376e+10 -1.01556e+11)
(7.27428e+10 -1.4749e+10 -8.35589e+10)
(5.85204e+10 -1.86495e+10 -6.48924e+10)
(5.48004e+10 -3.399e+10 -4.1583e+10)
(5.71488e+10 -3.53886e+10 -3.46884e+10)
(6.23789e+10 -1.32367e+10 -4.75958e+10)
(6.6341e+10 -9.98446e+09 -6.44567e+10)
(7.52e+10 -2.84616e+10 -1.43355e+11)
(7.53622e+10 -4.90363e+10 -5.51579e+10)
(7.70566e+10 -3.66428e+10 -5.92627e+09)
(1.82081e+11 -1.52423e+10 -4.38902e+10)
(1.77899e+11 -1.41214e+10 -1.2977e+11)
(2.00363e+11 -2.84886e+10 -2.96976e+11)
(1.07871e+11 -2.3153e+10 -9.88901e+10)
(7.05371e+10 -1.37663e+10 3.14788e+10)
)
;

boundaryField
{
    inlet
    {
        type            calculated;
        value           nonuniform 0();
    }
    outlet
    {
        type            calculated;
        value           nonuniform 0();
    }
    bottom
    {
        type            calculated;
        value           uniform (0 0 0);
    }
    top
    {
        type            symmetryPlane;
    }
    side1
    {
        type            symmetryPlane;
    }
    side2
    {
        type            symmetryPlane;
    }
    procBoundary51to35
    {
        type            processor;
        value           nonuniform List<vector> 
15
(
(-1.74477e+10 -7.61339e+10 -3.04936e+10)
(-2.1571e+09 -1.71197e+11 -2.75342e+10)
(1.67139e+10 -2.72046e+11 -4.61381e+10)
(-3.04585e+10 -1.55835e+11 -4.3628e+10)
(-2.59927e+10 -8.28856e+10 -2.02428e+10)
(1.00343e+10 -1.15716e+11 -8.35962e+10)
(1.74559e+10 -1.00079e+11 -7.53328e+10)
(9.08727e+09 -9.9023e+10 -9.43067e+10)
(-1.06287e+10 -1.37923e+11 -1.06014e+11)
(-2.87232e+10 -1.30888e+11 -7.47826e+10)
(6.80158e+10 -2.74174e+10 -1.53659e+11)
(7.35624e+10 -3.96953e+10 -1.30876e+11)
(8.66999e+10 -4.59606e+10 -1.27706e+11)
(6.33844e+10 -4.77104e+10 -1.15377e+11)
(6.16829e+10 -3.93769e+10 -8.90113e+10)
)
;
    }
    procBoundary51to50
    {
        type            processor;
        value           nonuniform List<vector> 
12
(
(1.10532e+10 -6.04619e+10 -2.64267e+10)
(3.13123e+10 -3.80194e+10 -2.1913e+10)
(3.72134e+10 -2.23388e+10 -7.82044e+09)
(5.64461e+10 -8.40593e+09 -2.11678e+10)
(3.5742e+10 -7.93209e+10 -5.57739e+10)
(8.27838e+10 -5.17134e+10 -7.19239e+10)
(5.40663e+10 -2.26157e+10 -3.05248e+10)
(1.11194e+11 -1.13667e+10 -1.04719e+11)
(4.45124e+10 -2.02216e+10 -6.34042e+10)
(1.19819e+11 -1.77979e+10 -9.56422e+10)
(6.72693e+10 7.32822e+06 -4.89044e+10)
(2.49996e+11 6.94869e+08 -2.27388e+11)
)
;
    }
    procBoundary51to52
    {
        type            processor;
        value           nonuniform List<vector> 
12
(
(1.44587e+10 -5.05572e+10 -2.05836e+10)
(2.7262e+10 -2.28966e+10 -5.46289e+09)
(1.37929e+10 -3.03006e+10 -6.57026e+09)
(6.58864e+10 -1.41371e+10 -3.60299e+10)
(2.52857e+10 -9.79867e+10 -5.83776e+10)
(6.4606e+10 -8.24477e+10 -3.17684e+10)
(5.81171e+10 -7.86306e+10 -1.68036e+10)
(1.06589e+11 -4.23439e+10 1.28846e+09)
(6.19e+10 -3.65125e+10 -7.07328e+10)
(6.22498e+10 -3.37111e+10 -3.73857e+10)
(7.81322e+10 -4.19423e+10 -2.66352e+10)
(5.99166e+10 -2.0597e+10 1.06831e+10)
)
;
    }
    procBoundary51to115
    {
        type            processor;
        value           nonuniform List<vector> 
20
(
(1.23181e+11 4.02373e+10 -8.74505e+10)
(1.29034e+11 2.69415e+10 -7.61731e+10)
(1.32951e+11 4.73677e+09 -8.10194e+10)
(1.20619e+11 -1.28428e+10 -6.24611e+10)
(1.10345e+11 -1.07184e+10 -5.34221e+10)
(8.254e+10 2.06769e+10 -5.90255e+10)
(7.93209e+10 1.98194e+10 -6.75016e+10)
(6.84931e+10 5.03208e+09 -5.58308e+10)
(6.41405e+10 -9.99921e+09 -3.73034e+10)
(7.03791e+10 -1.14948e+10 -3.38008e+10)
(5.40525e+10 1.16421e+10 -2.60444e+10)
(6.69329e+10 7.28328e+09 -4.73975e+10)
(8.11794e+10 1.90337e+10 -1.12482e+11)
(5.41887e+10 -1.11805e+10 -9.60746e+09)
(4.46765e+10 -1.00562e+10 -1.14999e+10)
(1.25528e+11 -4.59017e+10 6.17875e+10)
(1.35798e+11 -1.25562e+10 -1.08734e+11)
(3.14377e+10 1.20169e+10 -1.45928e+11)
(5.96937e+10 5.61318e+09 -4.40018e+10)
(3.79396e+10 6.80916e+08 -4.14071e+10)
)
;
    }
}


// ************************************************************************* //
