/*--------------------------------*- C++ -*----------------------------------*\
| =========                 |                                                 |
| \\      /  F ield         | OpenFOAM: The Open Source CFD Toolbox           |
|  \\    /   O peration     | Version:  2.4.0                                 |
|   \\  /    A nd           | Web:      www.OpenFOAM.org                      |
|    \\/     M anipulation  |                                                 |
\*---------------------------------------------------------------------------*/
FoamFile
{
    version     2.0;
    format      ascii;
    class       surfaceScalarField;
    location    "0.01";
    object      phia;
}
// * * * * * * * * * * * * * * * * * * * * * * * * * * * * * * * * * * * * * //

dimensions      [0 3 -1 0 0 0 0];

internalField   nonuniform List<scalar> 
490
(
1.94348e-06
3.77371e-08
1.49115e-09
1.91897e-06
1.35736e-08
-2.70315e-09
1.90859e-06
5.00707e-08
-2.90635e-09
1.90096e-06
4.02054e-08
2.14558e-09
1.87436e-06
2.41503e-08
-1.05763e-09
1.79708e-06
2.71628e-08
-2.42869e-09
1.70763e-06
3.1415e-08
-7.96688e-10
1.64743e-06
2.7265e-08
-2.28168e-09
1.52387e-06
4.35007e-08
-1.53326e-09
5.56515e-08
5.78709e-09
1.94355e-06
3.76334e-08
1.46815e-09
1.91906e-06
1.39255e-08
-2.67706e-09
1.9086e-06
4.99309e-08
-2.8889e-09
1.90088e-06
4.01832e-08
2.10142e-09
1.87415e-06
2.42233e-08
-1.05302e-09
1.79702e-06
2.71766e-08
-2.41612e-09
1.70773e-06
3.13893e-08
-8.098e-10
1.64727e-06
2.73727e-08
-2.27168e-09
1.52426e-06
4.349e-08
-1.51614e-09
5.55256e-08
5.78228e-09
1.94362e-06
3.75276e-08
1.44531e-09
1.91916e-06
1.42689e-08
-2.65151e-09
1.90861e-06
4.97882e-08
-2.87157e-09
1.9008e-06
4.01576e-08
2.05802e-09
1.87393e-06
2.4294e-08
-1.0485e-09
1.79697e-06
2.71882e-08
-2.40369e-09
1.70783e-06
3.13617e-08
-8.22709e-10
1.64712e-06
2.74768e-08
-2.26176e-09
1.52463e-06
4.34758e-08
-1.499e-09
5.53971e-08
5.77739e-09
1.94368e-06
1.42263e-09
1.91925e-06
-2.62647e-09
1.90863e-06
-2.85433e-09
1.90071e-06
2.01537e-09
1.87371e-06
-1.04408e-09
1.79691e-06
-2.3914e-09
1.70792e-06
-8.35419e-10
1.64697e-06
-2.25193e-09
1.525e-06
-1.48184e-09
5.77239e-09
1.94355e-06
3.76078e-08
1.46817e-09
1.91906e-06
1.3915e-08
-2.67708e-09
1.9086e-06
4.98967e-08
-2.88892e-09
1.90088e-06
4.01553e-08
2.10146e-09
1.87415e-06
2.42064e-08
-1.05303e-09
1.79702e-06
2.71577e-08
-2.41613e-09
1.70773e-06
3.13677e-08
-8.09786e-10
1.64727e-06
2.73535e-08
-2.27168e-09
1.52425e-06
4.346e-08
-1.51606e-09
5.54873e-08
5.78229e-09
1.94362e-06
3.75073e-08
1.44534e-09
1.91916e-06
1.42601e-08
-2.65154e-09
1.90861e-06
4.97613e-08
-2.87159e-09
1.9008e-06
4.01356e-08
2.05807e-09
1.87393e-06
2.42804e-08
-1.04851e-09
1.79697e-06
2.71732e-08
-2.4037e-09
1.70783e-06
3.13446e-08
-8.22693e-10
1.64712e-06
2.74614e-08
-2.26177e-09
1.52463e-06
4.3452e-08
-1.49897e-09
5.53669e-08
5.77739e-09
1.94368e-06
3.74041e-08
1.42267e-09
1.91925e-06
1.45967e-08
-2.62651e-09
1.90863e-06
4.96223e-08
-2.85436e-09
1.90071e-06
4.01118e-08
2.01543e-09
1.87371e-06
2.43517e-08
-1.04409e-09
1.79691e-06
2.71862e-08
-2.39142e-09
1.70792e-06
3.1319e-08
-8.35399e-10
1.64697e-06
2.75652e-08
-2.25194e-09
1.52499e-06
4.34398e-08
-1.48185e-09
5.5243e-08
5.77241e-09
1.94374e-06
1.40016e-09
1.91934e-06
-2.60199e-09
1.90864e-06
-2.83724e-09
1.90063e-06
1.97351e-09
1.8735e-06
-1.03977e-09
1.79686e-06
-2.37928e-09
1.70802e-06
-8.47909e-10
1.64682e-06
-2.24219e-09
1.52535e-06
-1.46472e-09
5.76733e-09
1.94362e-06
3.74793e-08
1.44533e-09
1.91916e-06
1.4249e-08
-2.65152e-09
1.90861e-06
4.9724e-08
-2.87158e-09
1.9008e-06
4.01053e-08
2.05807e-09
1.87393e-06
2.42621e-08
-1.04851e-09
1.79697e-06
2.71528e-08
-2.40371e-09
1.70783e-06
3.1321e-08
-8.22693e-10
1.64712e-06
2.74406e-08
-2.26175e-09
1.52463e-06
4.34193e-08
-1.49884e-09
5.53251e-08
5.77739e-09
1.94368e-06
3.73821e-08
1.42267e-09
1.91925e-06
1.45876e-08
-2.62651e-09
1.90863e-06
4.9593e-08
-2.85436e-09
1.90071e-06
4.0088e-08
2.01544e-09
1.87371e-06
2.43372e-08
-1.04409e-09
1.79691e-06
2.717e-08
-2.39143e-09
1.70792e-06
3.13005e-08
-8.35396e-10
1.64697e-06
2.75487e-08
-2.25193e-09
1.52499e-06
4.34141e-08
-1.4818e-09
5.52102e-08
5.77241e-09
1.94374e-06
3.72815e-08
1.40017e-09
1.91934e-06
1.49176e-08
-2.60199e-09
1.90864e-06
4.94575e-08
-2.83725e-09
1.90063e-06
4.0066e-08
1.97353e-09
1.8735e-06
2.44091e-08
-1.03977e-09
1.79686e-06
2.71842e-08
-2.37928e-09
1.70802e-06
3.1277e-08
-8.47903e-10
1.64682e-06
2.76523e-08
-2.24219e-09
1.52535e-06
4.34039e-08
-1.46471e-09
5.50908e-08
5.76733e-09
1.94381e-06
1.37783e-09
1.91943e-06
-2.57796e-09
1.90865e-06
-2.82025e-09
1.90055e-06
1.93232e-09
1.87328e-06
-1.03554e-09
1.79681e-06
-2.36728e-09
1.70811e-06
-8.60216e-10
1.64666e-06
-2.23253e-09
1.52569e-06
-1.44759e-09
5.76217e-09
1.94368e-06
3.73519e-08
1.42103e-09
1.91925e-06
1.45755e-08
-2.62345e-09
1.90863e-06
4.95527e-08
-2.85106e-09
1.90071e-06
4.00552e-08
2.01311e-09
1.87371e-06
2.43173e-08
-1.04288e-09
1.79691e-06
2.71478e-08
-2.38866e-09
1.70792e-06
3.1275e-08
-8.34416e-10
1.64697e-06
2.75263e-08
-2.24929e-09
1.52499e-06
4.33788e-08
-1.47993e-09
5.5165e-08
5.76568e-09
1.94374e-06
3.72579e-08
1.39845e-09
1.91934e-06
1.49079e-08
-2.59876e-09
1.90864e-06
4.9426e-08
-2.83374e-09
1.90063e-06
4.00404e-08
1.9711e-09
1.8735e-06
2.43934e-08
-1.03848e-09
1.79686e-06
2.71668e-08
-2.37634e-09
1.70802e-06
3.12571e-08
-8.46834e-10
1.64681e-06
2.76346e-08
-2.23939e-09
1.52535e-06
4.33763e-08
-1.46283e-09
5.50555e-08
5.76014e-09
1.94381e-06
3.71599e-08
1.37604e-09
1.91943e-06
1.52316e-08
-2.57456e-09
1.90865e-06
4.92941e-08
-2.81653e-09
1.90055e-06
4.00202e-08
1.92981e-09
1.87328e-06
2.4466e-08
-1.03417e-09
1.79681e-06
2.71823e-08
-2.36416e-09
1.70811e-06
3.12357e-08
-8.59056e-10
1.64666e-06
2.7738e-08
-2.22957e-09
1.52569e-06
4.33682e-08
-1.44568e-09
5.49405e-08
5.75451e-09
1.94387e-06
1.35379e-09
1.91952e-06
-2.55083e-09
1.90866e-06
-2.79943e-09
1.90046e-06
1.8892e-09
1.87307e-06
-1.02995e-09
1.79675e-06
-2.35212e-09
1.7082e-06
-8.71086e-10
1.64652e-06
-2.21982e-09
1.52603e-06
-1.42849e-09
5.7488e-09
1.94374e-06
3.72253e-08
1.91934e-06
1.48951e-08
1.90864e-06
4.93826e-08
1.90063e-06
4.00051e-08
1.8735e-06
2.43721e-08
1.79686e-06
2.7143e-08
1.70802e-06
3.12297e-08
1.64681e-06
2.76105e-08
1.52535e-06
4.33384e-08
5.50068e-08
1.94381e-06
3.71346e-08
1.91943e-06
1.52214e-08
1.90865e-06
4.92603e-08
1.90055e-06
3.99928e-08
1.87328e-06
2.44493e-08
1.7968e-06
2.71637e-08
1.70811e-06
3.12143e-08
1.64666e-06
2.77191e-08
1.52569e-06
4.33386e-08
5.49027e-08
1.94387e-06
3.70392e-08
1.91952e-06
1.5539e-08
1.90866e-06
4.9132e-08
1.90046e-06
3.99744e-08
1.87307e-06
2.45225e-08
1.79675e-06
2.71805e-08
1.7082e-06
3.11949e-08
1.64652e-06
2.78224e-08
1.52603e-06
4.33325e-08
5.47921e-08
1.94393e-06
1.91961e-06
1.90868e-06
1.90038e-06
1.87286e-06
1.7967e-06
1.70829e-06
1.64637e-06
1.52636e-06
)
;

boundaryField
{
    inlet
    {
        type            calculated;
        value           nonuniform 0();
    }
    outlet
    {
        type            calculated;
        value           nonuniform 0();
    }
    bottom
    {
        type            calculated;
        value           uniform 0;
    }
    top
    {
        type            symmetryPlane;
        value           uniform 0;
    }
    side1
    {
        type            symmetryPlane;
        value           nonuniform 0();
    }
    side2
    {
        type            symmetryPlane;
        value           nonuniform 0();
    }
    procBoundary9to1
    {
        type            processor;
        value           nonuniform List<scalar> 
50
(
-3.78365e-08
-1.32121e-08
-5.02049e-08
-4.02219e-08
-2.40736e-08
-2.71454e-08
-3.1437e-08
-2.7152e-08
-4.35055e-08
-5.57718e-08
-3.77028e-08
-1.35602e-08
-5.00251e-08
-4.01683e-08
-2.4128e-08
-2.71378e-08
-3.13862e-08
-2.72396e-08
-4.34608e-08
-5.56003e-08
-3.75701e-08
-1.39005e-08
-4.98466e-08
-4.01147e-08
-2.41819e-08
-2.71303e-08
-3.13361e-08
-2.73258e-08
-4.34162e-08
-5.54309e-08
-3.74384e-08
-1.42331e-08
-4.96695e-08
-4.00611e-08
-2.42354e-08
-2.71229e-08
-3.12867e-08
-2.74105e-08
-4.33718e-08
-5.52637e-08
-3.73077e-08
-1.45585e-08
-4.94937e-08
-4.00074e-08
-2.42885e-08
-2.71156e-08
-3.1238e-08
-2.74938e-08
-4.33274e-08
-5.50985e-08
)
;
    }
    procBoundary9to8
    {
        type            processor;
        value           nonuniform List<scalar> 
20
(
-1.97225e-06
-1.97221e-06
-1.97216e-06
-1.97211e-06
-1.97221e-06
-1.97216e-06
-1.97211e-06
-1.97206e-06
-1.97216e-06
-1.97211e-06
-1.97206e-06
-1.97201e-06
-1.97211e-06
-1.97206e-06
-1.97201e-06
-1.97197e-06
-1.97206e-06
-1.97201e-06
-1.97197e-06
-1.97192e-06
)
;
    }
    procBoundary9to10
    {
        type            processor;
        value           nonuniform List<scalar> 
20
(
1.40942e-06
1.40971e-06
1.40999e-06
1.41026e-06
1.4097e-06
1.40999e-06
1.41026e-06
1.41053e-06
1.40998e-06
1.41026e-06
1.41053e-06
1.41079e-06
1.41026e-06
1.41053e-06
1.41079e-06
1.41104e-06
1.41052e-06
1.41079e-06
1.41104e-06
1.41129e-06
)
;
    }
    procBoundary9to17
    {
        type            processor;
        value           nonuniform List<scalar> 
50
(
3.74321e-08
1.45908e-08
4.96466e-08
4.01363e-08
2.4362e-08
2.71972e-08
3.13344e-08
2.75721e-08
4.3457e-08
5.52762e-08
3.7313e-08
1.49089e-08
4.94843e-08
4.00932e-08
2.442e-08
2.71959e-08
3.12937e-08
2.76587e-08
4.34221e-08
5.51273e-08
3.71947e-08
1.52205e-08
4.93231e-08
4.00502e-08
2.44775e-08
2.71946e-08
3.12536e-08
2.7744e-08
4.33872e-08
5.49802e-08
3.70775e-08
1.55253e-08
4.91633e-08
4.00073e-08
2.45347e-08
2.71935e-08
3.12142e-08
2.78279e-08
4.33525e-08
5.4835e-08
3.6961e-08
1.58238e-08
4.90048e-08
3.99643e-08
2.45915e-08
2.71924e-08
3.11753e-08
2.79104e-08
4.33178e-08
5.46916e-08
)
;
    }
}


// ************************************************************************* //
