/*--------------------------------*- C++ -*----------------------------------*\
| =========                 |                                                 |
| \\      /  F ield         | OpenFOAM: The Open Source CFD Toolbox           |
|  \\    /   O peration     | Version:  2.4.0                                 |
|   \\  /    A nd           | Web:      www.OpenFOAM.org                      |
|    \\/     M anipulation  |                                                 |
\*---------------------------------------------------------------------------*/
FoamFile
{
    version     2.0;
    format      ascii;
    class       volVectorField;
    location    "0.01";
    object      Ua;
}
// * * * * * * * * * * * * * * * * * * * * * * * * * * * * * * * * * * * * * //

dimensions      [0 1 -1 0 0 0 0];

internalField   nonuniform List<vector> 
200
(
(0.868187 0.0115866 6.82234e-05)
(0.869748 0.0257887 -0.00167785)
(0.831003 0.0154147 5.25808e-05)
(0.835926 0.0171144 0.00965395)
(0.830494 0.0491225 0.000462892)
(0.801913 0.0335925 0.000794116)
(0.800605 0.0210807 -0.000647797)
(0.749469 0.0273224 0.0030945)
(0.712643 0.026509 0.00308582)
(0.687121 0.0338353 0.00172266)
(0.868234 0.0116727 6.60659e-05)
(0.869579 0.0257074 -0.00166463)
(0.831184 0.0154706 8.5214e-05)
(0.835888 0.017218 0.00958311)
(0.830369 0.0488832 0.000513983)
(0.802 0.0336012 0.000787085)
(0.800349 0.0211718 -0.000622743)
(0.749517 0.0273079 0.00308155)
(0.712703 0.0265592 0.003079)
(0.686998 0.0338542 0.00174265)
(0.868279 0.0117559 6.40224e-05)
(0.869412 0.0256244 -0.00165138)
(0.831363 0.0155245 0.000117313)
(0.83585 0.0173188 0.00951299)
(0.830246 0.048643 0.00056395)
(0.802086 0.0336061 0.000780358)
(0.800096 0.0212597 -0.000598075)
(0.749564 0.0272912 0.00306873)
(0.712761 0.026606 0.00307231)
(0.686876 0.0338693 0.00176263)
(0.868323 0.0118366 6.20901e-05)
(0.869247 0.0255407 -0.00163809)
(0.83154 0.0155769 0.000148885)
(0.835813 0.0174175 0.00944359)
(0.830125 0.0484037 0.000612816)
(0.802169 0.0336085 0.000773934)
(0.799848 0.0213453 -0.000573781)
(0.74961 0.0272733 0.00305603)
(0.712818 0.0266506 0.00306574)
(0.686755 0.0338821 0.00178261)
(0.868234 0.0116634 6.60704e-05)
(0.869579 0.0256876 -0.00166464)
(0.831184 0.0154584 8.51537e-05)
(0.835888 0.0172043 0.00958323)
(0.830369 0.0488457 0.000513887)
(0.802 0.033575 0.0007871)
(0.800349 0.0211551 -0.000622787)
(0.749517 0.0272867 0.00308157)
(0.712702 0.0265384 0.00307903)
(0.686998 0.0338278 0.00174265)
(0.868279 0.0117485 6.40273e-05)
(0.869412 0.0256091 -0.0016514)
(0.831363 0.0155149 0.000117244)
(0.83585 0.017308 0.00951314)
(0.830246 0.0486141 0.000563842)
(0.802085 0.0335857 0.000780375)
(0.800097 0.0212466 -0.000598125)
(0.749564 0.0272748 0.00306875)
(0.71276 0.0265898 0.00307233)
(0.686876 0.0338488 0.0017626)
(0.868322 0.0118305 6.20952e-05)
(0.869247 0.0255284 -0.00163812)
(0.831539 0.0155691 0.000148809)
(0.835813 0.0174086 0.00944376)
(0.830126 0.0483805 0.000612699)
(0.802169 0.0335919 0.000773949)
(0.799848 0.0213346 -0.000573839)
(0.74961 0.02726 0.00305606)
(0.712817 0.0266373 0.00306575)
(0.686755 0.0338654 0.00178255)
(0.868365 0.01191 6.02716e-05)
(0.869084 0.0254467 -0.00162481)
(0.831714 0.0156216 0.000179858)
(0.835777 0.0175069 0.00937508)
(0.830007 0.048147 0.000660482)
(0.802251 0.0335952 0.00076782)
(0.799603 0.0214199 -0.00054992)
(0.749655 0.0272436 0.00304348)
(0.712874 0.0266822 0.00305931)
(0.686634 0.0338791 0.00180249)
(0.868279 0.0117384 6.4029e-05)
(0.869412 0.0255874 -0.00165138)
(0.831363 0.0155017 0.000117232)
(0.83585 0.0172932 0.00951315)
(0.830246 0.0485729 0.000563819)
(0.802085 0.0335571 0.000780383)
(0.800097 0.0212284 -0.000598127)
(0.749564 0.0272517 0.00306876)
(0.712759 0.0265672 0.00307236)
(0.686876 0.03382 0.00176266)
(0.868322 0.0118226 6.20971e-05)
(0.869247 0.0255117 -0.00163811)
(0.831539 0.0155588 0.000148792)
(0.835813 0.0173971 0.00944378)
(0.830126 0.0483488 0.000612669)
(0.802169 0.0335698 0.000773956)
(0.799848 0.0213204 -0.000573848)
(0.74961 0.0272421 0.00305606)
(0.712817 0.0266198 0.00306577)
(0.686755 0.0338431 0.00178256)
(0.868365 0.0119036 6.02735e-05)
(0.869084 0.0254333 -0.00162482)
(0.831713 0.0156133 0.000179837)
(0.835777 0.0174975 0.00937513)
(0.830007 0.0481216 0.000660449)
(0.802251 0.0335774 0.000767824)
(0.799603 0.0214084 -0.000549936)
(0.749655 0.0272292 0.00304349)
(0.712874 0.026668 0.00305931)
(0.686635 0.0338612 0.00180247)
(0.868405 0.0119819 5.85558e-05)
(0.868923 0.0253535 -0.00161148)
(0.831885 0.0156659 0.000210373)
(0.835741 0.0175955 0.00930716)
(0.82989 0.0478939 0.00070718)
(0.802331 0.0335816 0.000761985)
(0.799362 0.0214935 -0.000526381)
(0.7497 0.0272144 0.00303105)
(0.712929 0.0267132 0.00305298)
(0.686515 0.033876 0.00182238)
(0.868322 0.0118116 6.20984e-05)
(0.869247 0.0254883 -0.00163807)
(0.831539 0.0155445 0.000148794)
(0.835813 0.0173811 0.00944375)
(0.830126 0.0483043 0.000612665)
(0.802169 0.0335389 0.000773966)
(0.799848 0.0213007 -0.000573834)
(0.74961 0.0272171 0.00305606)
(0.712816 0.0265954 0.00306581)
(0.686754 0.033812 0.00178265)
(0.868364 0.0118951 6.0275e-05)
(0.869084 0.0254153 -0.00162479)
(0.831713 0.0156022 0.000179834)
(0.835777 0.0174851 0.00937512)
(0.830007 0.0480876 0.000660439)
(0.802251 0.0335536 0.000767831)
(0.799603 0.0213932 -0.000549931)
(0.749655 0.02721 0.00304349)
(0.712873 0.0266491 0.00305933)
(0.686634 0.0338372 0.0018025)
(0.868405 0.011975 5.85571e-05)
(0.868923 0.0253391 -0.00161148)
(0.831885 0.015657 0.000210367)
(0.835741 0.0175854 0.00930718)
(0.82989 0.0478668 0.000707169)
(0.802331 0.0335625 0.000761987)
(0.799362 0.0214812 -0.000526385)
(0.749699 0.027199 0.00303105)
(0.712929 0.026698 0.00305298)
(0.686515 0.0338567 0.00182237)
(0.868445 0.0120521 5.69425e-05)
(0.868764 0.0252613 -0.00159813)
(0.832054 0.0157098 0.000240401)
(0.835705 0.017683 0.00923992)
(0.829775 0.0476447 0.000752873)
(0.80241 0.0335677 0.000756431)
(0.799124 0.0215661 -0.000503188)
(0.749743 0.0271857 0.00301872)
(0.712984 0.0267436 0.00304676)
(0.686397 0.0338726 0.00184224)
(0.868364 0.0118833 6.01381e-05)
(0.869084 0.02539 -0.00162097)
(0.831714 0.0155869 0.000179389)
(0.835776 0.0174679 0.00935337)
(0.830007 0.0480395 0.000658848)
(0.802251 0.0335203 0.000766069)
(0.799602 0.021372 -0.000548654)
(0.749655 0.027183 0.00303644)
(0.712872 0.0266228 0.00305226)
(0.686633 0.0338037 0.00179842)
(0.868405 0.0119659 5.84144e-05)
(0.868923 0.0253198 -0.00160745)
(0.831885 0.0156452 0.000209809)
(0.835741 0.0175721 0.00928408)
(0.82989 0.0478301 0.000705345)
(0.802331 0.033537 0.000760106)
(0.799361 0.0214649 -0.00052509)
(0.749699 0.0271783 0.00302352)
(0.712928 0.0266778 0.0030454)
(0.686515 0.0338311 0.00181786)
(0.868445 0.0120448 5.67941e-05)
(0.868764 0.0252459 -0.0015939)
(0.832055 0.0157003 0.000239723)
(0.835705 0.0176723 0.00921549)
(0.829775 0.0476155 0.000750809)
(0.80241 0.0335473 0.000754432)
(0.799123 0.0215531 -0.000501879)
(0.749743 0.0271692 0.00301074)
(0.712983 0.0267274 0.00303867)
(0.686397 0.033852 0.00183733)
(0.868483 0.0121209 5.52749e-05)
(0.868607 0.02517 -0.0015803)
(0.832222 0.0157532 0.000269139)
(0.835671 0.0177695 0.00914759)
(0.829662 0.047399 0.000795258)
(0.802487 0.0335535 0.000749043)
(0.798888 0.0216378 -0.000479014)
(0.749786 0.0271574 0.00299807)
(0.713037 0.0267735 0.00303208)
(0.686279 0.0338689 0.0018568)
)
;

boundaryField
{
    inlet
    {
        type            calculated;
        value           nonuniform 0();
    }
    outlet
    {
        type            calculated;
        value           nonuniform 0();
    }
    bottom
    {
        type            calculated;
        value           uniform (0 0 0);
    }
    top
    {
        type            symmetryPlane;
    }
    side1
    {
        type            symmetryPlane;
    }
    side2
    {
        type            symmetryPlane;
    }
    procBoundary9to1
    {
        type            processor;
        value           nonuniform List<vector> 
50
(
(0.868139 0.0114968 7.04975e-05)
(0.869919 0.0258664 -0.00169104)
(0.830819 0.0153556 1.94053e-05)
(0.835965 0.0170069 0.00972551)
(0.830621 0.0493571 0.000410649)
(0.801825 0.0335776 0.00080146)
(0.800865 0.0209848 -0.000673241)
(0.749421 0.0273325 0.00310757)
(0.712584 0.0264533 0.00309275)
(0.687245 0.0338103 0.00170267)
(0.868187 0.0115741 6.82271e-05)
(0.869748 0.0257616 -0.00167786)
(0.831003 0.0153982 5.25311e-05)
(0.835926 0.017096 0.00965405)
(0.830494 0.0490708 0.000462812)
(0.801913 0.0335569 0.000794129)
(0.800605 0.021058 -0.000647833)
(0.749469 0.0272934 0.00309452)
(0.712643 0.0264807 0.00308585)
(0.68712 0.0337994 0.00172274)
(0.868233 0.0116496 6.60715e-05)
(0.869579 0.0256577 -0.00166462)
(0.831184 0.0154404 8.51497e-05)
(0.835888 0.0171842 0.00958322)
(0.830369 0.0487887 0.000513875)
(0.802 0.0335358 0.000787108)
(0.800349 0.0211302 -0.000622781)
(0.749517 0.0272549 0.00308157)
(0.712701 0.0265075 0.00307907)
(0.686996 0.0337883 0.00174284)
(0.868278 0.0117233 6.40298e-05)
(0.869412 0.0255548 -0.00165132)
(0.831363 0.015482 0.000117242)
(0.83585 0.0172712 0.00951308)
(0.830246 0.0485108 0.000563822)
(0.802085 0.0335143 0.000780396)
(0.800096 0.0212013 -0.000598101)
(0.749564 0.027217 0.00306875)
(0.712758 0.0265335 0.00307241)
(0.686873 0.0337769 0.00176296)
(0.868322 0.0117953 6.19674e-05)
(0.869246 0.025453 -0.00163444)
(0.83154 0.0155233 0.000148458)
(0.835813 0.0173572 0.00942335)
(0.830125 0.048237 0.000611293)
(0.802168 0.0334925 0.000772327)
(0.799847 0.0212713 -0.000572575)
(0.749609 0.0271796 0.00304947)
(0.712814 0.0265589 0.00305927)
(0.68675 0.0337652 0.00177921)
)
;
    }
    procBoundary9to8
    {
        type            processor;
        value           nonuniform List<vector> 
20
(
(0.875492 0.012644 0.00141383)
(0.875483 0.0126245 0.00141782)
(0.875474 0.0126041 0.00142164)
(0.875465 0.0125835 0.00142531)
(0.875483 0.0126147 0.0014178)
(0.875474 0.0125966 0.00142163)
(0.875466 0.0125773 0.0014253)
(0.875456 0.0125576 0.00142881)
(0.875474 0.012586 0.00142161)
(0.875466 0.0125691 0.00142529)
(0.875456 0.012551 0.00142881)
(0.875447 0.0125322 0.00143217)
(0.875465 0.0125577 0.00142527)
(0.875456 0.0125422 0.0014288)
(0.875447 0.0125251 0.00143217)
(0.875438 0.0125072 0.00143539)
(0.875456 0.0125299 0.00142545)
(0.875447 0.0125156 0.0014286)
(0.875438 0.0124996 0.00143158)
(0.875428 0.0124827 0.00143441)
)
;
    }
    procBoundary9to10
    {
        type            processor;
        value           nonuniform List<vector> 
20
(
(0.60873 0.0458716 0.00728783)
(0.609012 0.04571 0.00730148)
(0.609287 0.0455477 0.0073147)
(0.609556 0.0453864 0.0073275)
(0.609011 0.0456747 0.00730146)
(0.609286 0.0455204 0.00731467)
(0.609555 0.0453644 0.00732747)
(0.609818 0.0452086 0.00733986)
(0.609286 0.0454817 0.00731466)
(0.609555 0.0453346 0.00732746)
(0.609818 0.0451847 0.00733985)
(0.610075 0.0450343 0.00735184)
(0.609555 0.0452928 0.00732745)
(0.609818 0.0451527 0.00733984)
(0.610075 0.0450087 0.00735183)
(0.610327 0.0448636 0.00736344)
(0.609818 0.0451076 0.00732269)
(0.610075 0.0449743 0.00733343)
(0.610327 0.0448361 0.00734379)
(0.610573 0.0446962 0.00735378)
)
;
    }
    procBoundary9to17
    {
        type            processor;
        value           nonuniform List<vector> 
50
(
(0.868354 0.0119034 5.96526e-05)
(0.869107 0.0254635 -0.00162598)
(0.831712 0.0156271 0.000174213)
(0.835779 0.0174993 0.00937921)
(0.830029 0.0481778 0.000660519)
(0.802253 0.033617 0.000768663)
(0.79964 0.0214246 -0.000552586)
(0.749675 0.0272552 0.00304344)
(0.712894 0.0266879 0.0030602)
(0.686694 0.0338844 0.00179822)
(0.868393 0.0119731 5.79165e-05)
(0.868952 0.0253726 -0.00161296)
(0.831882 0.0156716 0.000203419)
(0.835744 0.0175849 0.00931236)
(0.829917 0.047929 0.000707158)
(0.802333 0.0336062 0.000763019)
(0.799408 0.0214978 -0.000529685)
(0.749724 0.0272268 0.00303102)
(0.712954 0.0267185 0.00305407)
(0.686585 0.0338808 0.00181732)
(0.868431 0.0120414 5.62889e-05)
(0.868799 0.0252827 -0.00159992)
(0.832051 0.0157156 0.000232147)
(0.83571 0.0176694 0.00924612)
(0.829807 0.0476836 0.000752877)
(0.802413 0.0335951 0.000757648)
(0.799179 0.0215702 -0.00050711)
(0.749772 0.0271989 0.00301869)
(0.713014 0.0267485 0.00304804)
(0.686477 0.0338771 0.00183642)
(0.868468 0.0121082 5.4767e-05)
(0.868647 0.0251936 -0.00158687)
(0.832218 0.0157591 0.000260379)
(0.835676 0.0177528 0.00918056)
(0.829699 0.047442 0.000797634)
(0.80249 0.0335837 0.000752551)
(0.798953 0.0216415 -0.000484881)
(0.749819 0.0271715 0.00300648)
(0.713073 0.0267778 0.00304212)
(0.68637 0.0338731 0.00185549)
(0.868503 0.0121735 5.31895e-05)
(0.868498 0.0251055 -0.00156915)
(0.832382 0.0158022 0.000287221)
(0.835643 0.0178353 0.00908858)
(0.829593 0.0472038 0.00083886)
(0.802567 0.033572 0.000745499)
(0.79873 0.0217119 -0.000461643)
(0.749866 0.0271446 0.00298548)
(0.713131 0.0268065 0.00302723)
(0.686263 0.0338689 0.0018689)
)
;
    }
}


// ************************************************************************* //
