/*--------------------------------*- C++ -*----------------------------------*\
| =========                 |                                                 |
| \\      /  F ield         | OpenFOAM: The Open Source CFD Toolbox           |
|  \\    /   O peration     | Version:  2.4.0                                 |
|   \\  /    A nd           | Web:      www.OpenFOAM.org                      |
|    \\/     M anipulation  |                                                 |
\*---------------------------------------------------------------------------*/
FoamFile
{
    version     2.0;
    format      ascii;
    class       volVectorField;
    location    "0.12";
    object      gradp;
}
// * * * * * * * * * * * * * * * * * * * * * * * * * * * * * * * * * * * * * //

dimensions      [1 -2 -2 0 0 0 0];

internalField   nonuniform List<vector> 
200
(
(7.79875e+19 -2.32107e+21 -2.75151e+20)
(1.89931e+20 -2.27895e+21 -3.71548e+20)
(-8.85023e+19 -2.75122e+21 -4.95653e+20)
(-1.1221e+21 -3.28107e+21 -6.33097e+20)
(-2.65394e+21 -3.94534e+21 -7.42921e+20)
(-4.46535e+21 -4.58342e+21 -8.05765e+20)
(-3.31463e+21 -4.55467e+21 -8.43872e+20)
(-3.30962e+21 -4.40319e+21 -2.14395e+21)
(-4.11e+21 -4.60308e+21 -2.97344e+21)
(-4.46154e+21 -6.86718e+21 -2.87522e+21)
(-5.58309e+19 -2.18259e+21 -1.14842e+20)
(-8.67064e+20 -2.42866e+21 -1.92862e+20)
(-1.84342e+21 -2.77885e+21 -9.21748e+19)
(-2.65557e+21 -3.3479e+21 -8.82234e+19)
(-3.84895e+21 -3.8365e+21 -1.00149e+19)
(-3.66951e+21 -3.56053e+21 1.85086e+17)
(-4.14963e+21 -3.09559e+21 -5.24311e+20)
(-3.82117e+21 -3.9028e+21 -4.33747e+20)
(-5.97148e+21 -4.41898e+21 -1.67801e+21)
(-9.32693e+21 -5.77068e+21 -1.97295e+21)
(-4.14156e+20 -1.13478e+21 1.09507e+20)
(-1.00258e+21 -1.28915e+21 1.53601e+20)
(-1.92697e+21 -1.28485e+21 1.47962e+20)
(-3.23741e+21 -1.35936e+21 3.09266e+20)
(-3.07921e+21 -1.35093e+21 3.31157e+20)
(-2.98352e+21 -1.03516e+21 -1.49178e+20)
(-3.99916e+21 -9.65964e+20 -3.73608e+20)
(-5.95641e+21 -6.6954e+20 -7.01615e+20)
(-7.84576e+21 -1.8125e+21 -7.45646e+20)
(-8.22338e+21 -1.5846e+21 -1.23546e+21)
(-3.64557e+20 -1.97183e+20 1.54313e+20)
(-1.1672e+21 -1.72384e+20 1.60162e+20)
(-1.98385e+21 -2.79493e+20 2.19116e+20)
(-2.78772e+21 -2.00825e+20 3.07306e+20)
(-3.20054e+21 -5.46507e+19 3.46662e+20)
(-2.89959e+21 -2.61493e+20 5.94232e+19)
(-3.41839e+21 -1.26829e+19 -4.05363e+20)
(-5.51425e+21 2.88914e+19 -9.13665e+20)
(-7.8016e+21 2.08396e+20 -1.44339e+21)
(-8.99447e+21 5.0971e+19 -1.50635e+21)
(-2.30482e+20 -2.14872e+21 -2.40505e+20)
(-5.15677e+20 -2.22188e+21 -3.06504e+20)
(-9.25461e+20 -2.29249e+21 -4.91392e+20)
(-1.91335e+21 -2.55308e+21 -6.90352e+20)
(-3.20648e+21 -2.65804e+21 -8.47658e+20)
(-4.78839e+21 -3.06772e+21 -1.04074e+21)
(-7.59682e+21 -3.53359e+21 -1.44589e+21)
(-1.01242e+22 -3.36518e+21 -2.26192e+21)
(-6.45005e+21 -3.9572e+21 -1.89592e+21)
(-5.1391e+21 -4.13729e+21 -2.17155e+21)
(-3.05494e+20 -1.56714e+21 4.61865e+18)
(-7.94528e+20 -1.58843e+21 -5.57361e+19)
(-1.50857e+21 -1.74906e+21 2.65155e+18)
(-2.39266e+21 -1.84012e+21 -1.92403e+19)
(-3.56604e+21 -2.11798e+21 8.19795e+19)
(-5.31526e+21 -2.50999e+21 2.138e+20)
(-5.53821e+21 -2.34317e+21 -2.02268e+20)
(-7.51302e+21 -1.59506e+21 -4.70103e+20)
(-1.08969e+22 -8.54511e+20 -1.48138e+21)
(-8.89155e+21 -3.14706e+21 -8.22815e+20)
(-2.73055e+20 -7.04134e+20 3.17252e+20)
(-8.79527e+20 -7.24307e+20 3.80667e+20)
(-1.42884e+21 -7.86787e+20 4.3184e+20)
(-2.65118e+21 -7.26516e+20 5.93452e+20)
(-4.54623e+21 -7.80243e+20 8.02639e+20)
(-5.23877e+21 -9.4038e+20 5.45827e+20)
(-5.76696e+21 -7.75647e+20 4.76068e+20)
(-7.14693e+21 -1.43741e+21 -2.1919e+20)
(-9.55405e+21 -1.43711e+21 -4.17239e+20)
(-1.08252e+22 -8.38049e+20 -5.42129e+20)
(-3.4584e+20 -1.25493e+20 3.74017e+20)
(-9.59834e+20 -1.61885e+20 4.20794e+20)
(-1.51299e+21 -1.65646e+20 5.47191e+20)
(-2.37957e+21 -2.03961e+20 7.10189e+20)
(-3.99377e+21 -2.98431e+19 7.95572e+20)
(-5.30607e+21 7.22683e+19 6.60985e+20)
(-6.53227e+21 -6.34909e+19 9.68454e+19)
(-8.83595e+21 -3.1039e+20 -4.15397e+20)
(-9.6982e+21 -9.08002e+20 -7.63146e+20)
(-9.19613e+21 -3.82463e+20 -8.10481e+20)
(-1.33211e+20 -1.94626e+21 5.91174e+19)
(-6.12907e+20 -2.06248e+21 1.44502e+20)
(-1.31681e+21 -2.25368e+21 1.86711e+20)
(-2.26215e+21 -2.5061e+21 2.8574e+20)
(-3.77518e+21 -2.57204e+21 4.73809e+20)
(-6.37968e+21 -2.45027e+21 8.47727e+20)
(-7.22242e+21 -2.78059e+21 1.12992e+21)
(-4.74974e+21 -3.29944e+21 1.84137e+21)
(-3.8208e+21 -3.92516e+21 2.59402e+21)
(-4.81711e+21 -4.80079e+21 1.89409e+21)
(-2.48966e+20 -1.29018e+21 2.34358e+20)
(-8.73359e+20 -1.32919e+21 2.98346e+20)
(-1.72663e+21 -1.30168e+21 3.46467e+20)
(-2.40172e+21 -1.29381e+21 4.67852e+20)
(-3.10322e+21 -1.19603e+21 6.57098e+20)
(-4.5791e+21 -1.02203e+21 9.86291e+20)
(-6.33812e+21 -2.04626e+19 1.38777e+21)
(-7.91435e+21 -6.34422e+20 1.43221e+21)
(-7.10016e+21 -2.05309e+21 2.11266e+21)
(-7.41208e+21 -3.16361e+21 2.78482e+21)
(-2.1123e+20 -5.43745e+20 3.68406e+20)
(-6.35902e+20 -5.26697e+20 4.09847e+20)
(-1.24606e+21 -4.1359e+20 4.8212e+20)
(-2.05085e+21 -1.92275e+20 5.02057e+20)
(-3.23161e+21 -2.09179e+20 7.6076e+20)
(-4.02855e+21 -3.19666e+20 1.23962e+21)
(-6.44721e+21 -4.87382e+20 1.4681e+21)
(-8.81499e+21 -5.82011e+20 1.63069e+21)
(-8.87917e+21 -6.63323e+20 1.78984e+21)
(-8.72105e+21 -1.56487e+21 2.17747e+21)
(-2.14871e+20 -1.06359e+20 3.74627e+20)
(-6.13048e+20 -1.0818e+20 4.48075e+20)
(-1.05779e+21 -9.4932e+19 4.95928e+20)
(-1.9929e+21 -1.4045e+19 5.46214e+20)
(-3.358e+21 -6.59585e+19 6.74714e+20)
(-5.13551e+21 -7.72406e+19 1.01178e+21)
(-6.86281e+21 -6.19439e+20 1.18091e+21)
(-8.26623e+21 -2.85041e+20 1.39497e+21)
(-9.06587e+21 -3.45056e+20 1.75573e+21)
(-9.22791e+21 -3.78392e+20 1.53435e+21)
(4.27497e+19 -1.97233e+21 1.13918e+20)
(-1.07378e+20 -2.10823e+21 9.7075e+19)
(-4.73502e+20 -2.3415e+21 2.34518e+20)
(-9.94639e+20 -2.54421e+21 4.2438e+20)
(-1.40812e+21 -2.6542e+21 7.22953e+20)
(-2.68883e+21 -2.82996e+21 1.16701e+21)
(-4.41715e+21 -3.03386e+21 2.04503e+21)
(-5.43912e+21 -3.09602e+21 2.34062e+21)
(-6.28134e+21 -3.25037e+21 2.0067e+21)
(-6.25962e+21 -3.5166e+21 1.57841e+21)
(-1.00734e+20 -1.07228e+21 2.17279e+20)
(-4.3578e+20 -1.16387e+21 2.54057e+20)
(-9.66156e+20 -1.27641e+21 3.53219e+20)
(-1.39864e+21 -1.49401e+21 5.38551e+20)
(-1.90703e+21 -1.65886e+21 6.84104e+20)
(-2.9771e+21 -1.88297e+21 9.21138e+20)
(-4.11128e+21 -1.80209e+21 1.33055e+21)
(-5.19339e+21 -1.93216e+21 1.78755e+21)
(-6.56855e+21 -2.1412e+21 2.12629e+21)
(-6.93529e+21 -2.69366e+21 1.51319e+21)
(-1.40443e+20 -4.79704e+20 2.77578e+20)
(-5.1564e+20 -4.84741e+20 3.01592e+20)
(-1.13377e+21 -5.47648e+20 3.19108e+20)
(-1.75954e+21 -6.01137e+20 3.77523e+20)
(-2.18604e+21 -7.52057e+20 4.72875e+20)
(-2.97529e+21 -8.99599e+20 7.28015e+20)
(-4.51553e+21 -1.10663e+21 8.9743e+20)
(-6.11735e+21 -1.49699e+21 1.69073e+21)
(-7.80436e+21 -2.0082e+21 2.26584e+21)
(-8.76836e+21 -2.8388e+21 2.31877e+21)
(-1.10807e+20 -1.15539e+20 2.96208e+20)
(-5.71669e+20 -1.00722e+20 3.08415e+20)
(-1.19895e+21 -1.43554e+20 3.14315e+20)
(-1.80746e+21 -1.33311e+20 3.46601e+20)
(-2.50396e+21 -1.67516e+20 4.75144e+20)
(-3.68624e+21 -2.92271e+20 6.95908e+20)
(-5.30606e+21 -5.2299e+20 1.1521e+21)
(-6.99655e+21 -6.87536e+20 1.60071e+21)
(-9.25217e+21 -9.62587e+20 1.99777e+21)
(-9.85317e+21 -1.41145e+21 2.40031e+21)
(-1.8711e+20 -2.03354e+21 8.9447e+19)
(-2.26989e+20 -2.1872e+21 1.76158e+19)
(-2.69439e+20 -2.34812e+21 5.20688e+19)
(-6.99159e+20 -2.57668e+21 8.13855e+19)
(-1.39877e+21 -2.85411e+21 1.44407e+20)
(-2.14903e+21 -3.22782e+21 8.43063e+19)
(-3.46685e+21 -3.35683e+21 3.13092e+20)
(-4.87238e+21 -3.76364e+21 3.81275e+20)
(-6.25989e+21 -4.12347e+21 4.90197e+20)
(-7.70657e+21 -5.24032e+21 3.87978e+20)
(-1.31278e+20 -1.02833e+21 1.02382e+20)
(-4.38351e+20 -1.00196e+21 9.28368e+19)
(-8.16248e+20 -1.16633e+21 1.01578e+20)
(-1.34289e+21 -1.36878e+21 1.39683e+20)
(-1.87894e+21 -1.59615e+21 1.19001e+20)
(-2.51048e+21 -1.72441e+21 1.48463e+20)
(-3.56561e+21 -1.85662e+21 2.64818e+20)
(-5.36797e+21 -1.67425e+21 3.18983e+20)
(-7.97809e+21 -1.63847e+21 2.10261e+20)
(-8.42149e+21 -1.97902e+21 -1.21498e+20)
(-1.34383e+20 -4.17459e+20 1.16917e+20)
(-5.03004e+20 -4.39724e+20 1.18811e+20)
(-1.00308e+21 -4.75836e+20 1.20866e+20)
(-1.5588e+21 -4.99397e+20 1.59651e+20)
(-2.11003e+21 -5.43516e+20 1.83597e+20)
(-2.66997e+21 -6.80035e+20 1.83403e+20)
(-3.36652e+21 -7.72906e+20 2.79007e+20)
(-4.43607e+21 -8.80943e+20 5.42469e+20)
(-6.86944e+21 -8.68958e+20 8.04408e+20)
(-9.04456e+21 -1.45476e+20 8.3463e+20)
(-1.75806e+20 -7.65514e+19 1.41285e+20)
(-5.55105e+20 -9.72632e+19 1.20972e+20)
(-9.35595e+20 -1.02602e+20 1.46461e+20)
(-1.47825e+21 -6.352e+19 2.0327e+20)
(-2.24022e+21 -6.23286e+19 2.49339e+20)
(-2.96926e+21 -1.28612e+20 2.8569e+20)
(-3.96743e+21 -2.11973e+20 4.73393e+20)
(-5.56008e+21 -4.29068e+20 7.04012e+20)
(-6.50716e+21 -7.73976e+20 9.2229e+20)
(-7.19695e+21 -2.47926e+20 1.56183e+21)
)
;

boundaryField
{
    inlet
    {
        type            zeroGradient;
    }
    outlet
    {
        type            zeroGradient;
    }
    bottom
    {
        type            zeroGradient;
    }
    top
    {
        type            symmetryPlane;
    }
    side1
    {
        type            symmetryPlane;
    }
    side2
    {
        type            symmetryPlane;
    }
    procBoundary24to16
    {
        type            processor;
        value           nonuniform List<vector> 
50
(
(-1.40071e+20 -2.34973e+21 -2.22559e+20)
(-6.74819e+18 -2.17264e+21 -2.28531e+20)
(1.60825e+20 -1.97739e+21 -3.78886e+20)
(-2.67335e+20 -2.06071e+21 -5.43214e+20)
(-1.24424e+21 -2.45973e+21 -8.14579e+20)
(-2.45085e+21 -3.02838e+21 -9.47129e+20)
(-4.5101e+21 -3.64398e+21 -1.16249e+21)
(-3.72437e+21 -3.35094e+21 -1.0825e+21)
(-1.0435e+21 -3.24595e+21 -2.08169e+21)
(-4.78203e+21 -2.89817e+21 -3.67912e+21)
(-1.5918e+20 -2.71172e+21 -2.29635e+20)
(-5.06996e+20 -2.65417e+21 -1.91031e+20)
(-8.46161e+20 -2.63104e+21 -3.08312e+20)
(-1.66155e+21 -2.66364e+21 -5.03597e+20)
(-2.53677e+21 -2.83043e+21 -7.76333e+20)
(-3.56416e+21 -3.02356e+21 -1.11942e+21)
(-4.94329e+21 -3.94425e+21 -1.31107e+21)
(-6.6658e+21 -5.17412e+21 -1.15994e+21)
(-9.35269e+21 -7.00473e+21 -1.90508e+21)
(-4.30189e+21 -6.81576e+21 -2.11431e+21)
(-1.65381e+19 -2.71249e+21 1.24114e+20)
(-2.58517e+20 -2.79816e+21 2.27319e+20)
(-8.39388e+20 -2.95276e+21 3.77102e+20)
(-1.765e+21 -3.12905e+21 4.62306e+20)
(-3.21487e+21 -3.44226e+21 6.54696e+20)
(-4.16201e+21 -4.06205e+21 8.37692e+20)
(-4.63978e+21 -5.22795e+21 1.07544e+21)
(-5.62519e+21 -6.28278e+21 1.26398e+21)
(-4.09747e+21 -6.37085e+21 1.67089e+21)
(-3.27166e+21 -6.49092e+21 2.39689e+21)
(1.71076e+20 -3.05938e+21 2.71829e+20)
(3.02569e+20 -3.10354e+21 3.32009e+20)
(-9.42032e+19 -3.16934e+21 4.12239e+20)
(-7.73253e+20 -3.14875e+21 5.82669e+20)
(-1.33554e+21 -3.20574e+21 8.60397e+20)
(-2.21776e+21 -3.11216e+21 1.4071e+21)
(-3.57916e+21 -3.66121e+21 1.6907e+21)
(-4.76038e+21 -4.44296e+21 2.07767e+21)
(-5.72738e+21 -5.40877e+21 2.25023e+21)
(-5.77833e+21 -6.09549e+21 1.7879e+21)
(1.76039e+20 -3.14917e+21 1.4064e+20)
(1.90798e+20 -3.24752e+21 1.4219e+20)
(-3.72773e+19 -3.22865e+21 1.05711e+20)
(-3.30895e+20 -3.25783e+21 1.5998e+20)
(-5.76674e+20 -3.42583e+21 2.43948e+20)
(-1.50506e+21 -4.05537e+21 3.97124e+20)
(-2.49396e+21 -4.8044e+21 4.66669e+20)
(-3.83468e+21 -7.04271e+21 7.36249e+20)
(-5.02474e+21 -5.84214e+21 7.55949e+20)
(-3.82927e+21 -5.99773e+21 9.55824e+20)
)
;
    }
    procBoundary24to25
    {
        type            processor;
        value           nonuniform List<vector> 
20
(
(-9.56043e+21 -6.87553e+21 -3.18518e+21)
(-7.84545e+21 -6.2999e+21 -1.54196e+21)
(-8.01197e+21 -1.64627e+21 -1.55871e+21)
(-8.94096e+21 -1.77148e+20 -1.50641e+21)
(-5.79731e+21 -6.25203e+21 -2.00704e+21)
(-7.03149e+21 -3.69756e+21 -8.82994e+20)
(-9.56823e+21 -1.58941e+21 -5.72759e+20)
(-8.61004e+21 -9.34713e+19 -8.36097e+20)
(-6.58673e+21 -5.99537e+21 2.24386e+21)
(-8.14575e+21 -4.00506e+21 2.72399e+21)
(-8.69659e+21 -1.57124e+21 2.4326e+21)
(-9.42217e+21 -5.98488e+20 1.5504e+21)
(-5.80158e+21 -3.82885e+21 1.10375e+21)
(-7.41308e+21 -3.39557e+21 1.81085e+21)
(-9.36838e+21 -3.46714e+21 2.16475e+21)
(-9.81673e+21 -1.50499e+21 2.63244e+21)
(-6.94269e+21 -6.41958e+21 3.80252e+19)
(-6.07163e+21 -2.30746e+21 -2.54174e+20)
(-8.79049e+21 -2.56689e+20 7.18095e+20)
(-8.47106e+21 1.4983e+20 1.75236e+21)
)
;
    }
}


// ************************************************************************* //
