/*--------------------------------*- C++ -*----------------------------------*\
| =========                 |                                                 |
| \\      /  F ield         | OpenFOAM: The Open Source CFD Toolbox           |
|  \\    /   O peration     | Version:  2.4.0                                 |
|   \\  /    A nd           | Web:      www.OpenFOAM.org                      |
|    \\/     M anipulation  |                                                 |
\*---------------------------------------------------------------------------*/
FoamFile
{
    version     2.0;
    format      ascii;
    class       volScalarField;
    location    "0.12";
    object      nut;
}
// * * * * * * * * * * * * * * * * * * * * * * * * * * * * * * * * * * * * * //

dimensions      [0 2 -1 0 0 0 0];

internalField   nonuniform List<scalar> 
200
(
1.22594e+06
1.25809e+06
1.50888e+06
1.23663e+06
1.31765e+06
1.64866e+06
1.55606e+06
1.7041e+06
2.19016e+06
3.82425e+06
1.60466e+06
1.21031e+06
1.56335e+06
1.3989e+06
1.72899e+06
1.93424e+06
1.73413e+06
2.14328e+06
2.45088e+06
3.22785e+06
1.01476e+06
1.61991e+06
1.40351e+06
1.64916e+06
1.83148e+06
2.05604e+06
2.46658e+06
2.07621e+06
2.84002e+06
3.36625e+06
1.26445e+06
1.2965e+06
1.50239e+06
1.92675e+06
1.91987e+06
2.40164e+06
2.23792e+06
2.52274e+06
2.43741e+06
2.88906e+06
804448
762504
1.07656e+06
2.48478e+06
593558
1.22775e+06
1.72048e+06
1.20037e+06
2.10864e+06
2.42535e+06
805024
919722
772787
951983
1.01062e+06
953075
1.48523e+06
1.66379e+06
2.31697e+06
2.38844e+06
1.05699e+06
863029
991246
883655
809929
1.50788e+06
1.36516e+06
1.53514e+06
1.76277e+06
1.90081e+06
677150
1.05147e+06
883991
688899
1.17451e+06
1.1774e+06
1.77662e+06
1.50343e+06
1.31784e+06
872014
2.17344e+06
1.8345e+06
680416
1.29563e+06
1.77562e+06
2.06285e+06
2.47966e+06
3.80769e+06
4.79147e+06
6.89864e+06
1.79346e+06
1.64407e+06
498116
1.42989e+06
1.48488e+06
2.36491e+06
1.98433e+06
3.19654e+06
5.71395e+06
3.15995e+06
762701
1.2727e+06
874282
1.38755e+06
1.75385e+06
2.0496e+06
4.37561e+06
6.41021e+06
6.26399e+06
4.19414e+06
1.72351e+06
1.51259e+06
1.19831e+06
1.73495e+06
1.89291e+06
3.38244e+06
6.64474e+06
1.03027e+07
5.63328e+06
6.15661e+06
669863
1.20957e+06
1.46233e+06
1.57057e+06
3.18695e+06
1.76035e+06
2.23648e+06
8.47055e+06
1.80254e+07
7.92201e+06
1.45867e+06
1.31481e+06
1.81153e+06
2.1522e+06
1.97034e+06
3.33474e+06
9.23806e+06
1.92958e+07
1.33062e+07
1.09483e+07
2.15858e+06
1.94879e+06
2.68026e+06
2.86351e+06
3.81206e+06
1.03248e+07
1.91507e+07
3.12197e+07
2.0172e+07
1.20638e+07
1.76164e+06
2.26274e+06
3.95469e+06
6.04603e+06
6.49127e+06
1.62987e+07
3.75095e+07
1.94619e+07
1.57903e+07
1.80408e+07
842761
813639
975687
3.23827e+06
2.88934e+06
1.65361e+06
1.10152e+07
3.2499e+07
1.27055e+07
3.40266e+07
847543
1.09844e+06
1.86002e+06
3.37539e+06
2.65369e+06
1.68951e+07
3.26633e+07
2.20059e+07
5.42804e+07
2.4043e+07
1.34848e+06
1.80155e+06
2.35935e+06
4.20604e+06
1.97608e+07
2.83493e+07
3.25018e+07
6.55292e+07
3.76186e+07
3.92724e+07
1.52941e+06
2.55382e+06
3.85782e+06
1.23699e+07
2.00202e+07
4.46729e+07
4.41825e+07
4.02683e+07
2.58344e+07
1.19589e+07
)
;

boundaryField
{
    inlet
    {
        type            calculated;
        value           nonuniform 0();
    }
    outlet
    {
        type            calculated;
        value           nonuniform 0();
    }
    bottom
    {
        type            calculated;
        value           nonuniform List<scalar> 
40
(
1.27527e-18
1.80514e-18
1.29833e-18
1.78587e-18
1.51726e-18
1.44007e-18
2.04699e-18
1.78899e-18
1.5851e-18
1.98852e-18
1.84324e-18
2.18778e-18
1.76182e-18
1.83507e-18
2.37726e-18
2.34446e-18
1.61778e-18
2.3106e-18
2.29184e-18
2.68509e-18
2.04261e-18
2.15126e-18
2.79496e-18
2.88567e-18
1.92325e-18
2.56844e-18
2.83416e-18
3.0788e-18
2.03055e-18
2.71043e-18
2.85021e-18
3.25023e-18
3.37453e-18
2.8831e-18
3.62431e-18
3.37592e-18
4.47131e-18
4.361e-18
4.16947e-18
3.77299e-18
)
;
    }
    top
    {
        type            symmetryPlane;
    }
    side1
    {
        type            symmetryPlane;
    }
    side2
    {
        type            symmetryPlane;
    }
    procBoundary20to12
    {
        type            processor;
        value           nonuniform List<scalar> 
50
(
1.30246e+06
1.93943e+06
1.98848e+06
1.64157e+06
1.0514e+06
1.38413e+06
1.81021e+06
1.7544e+06
3.12218e+06
2.33392e+06
921464
1.96461e+06
2.58002e+06
851996
1.95054e+06
1.67952e+06
1.19822e+06
2.00636e+06
2.76613e+06
2.35245e+06
3.34548e+06
1.05094e+06
1.17987e+06
1.88328e+06
2.15154e+06
1.60148e+06
2.6191e+06
2.56009e+06
3.04922e+06
2.41607e+06
637544
853362
1.24805e+06
1.49246e+06
1.64166e+06
4.65415e+06
1.74224e+06
2.6837e+06
7.08174e+06
1.31852e+07
503700
861814
873063
1.06262e+06
4.7097e+06
3.21759e+06
1.91088e+06
8.15332e+06
2.13629e+07
6.75919e+06
)
;
    }
    procBoundary20to19
    {
        type            processor;
        value           nonuniform List<scalar> 
20
(
1.17004e+06
1.16356e+06
2.22879e+06
902770
1.09409e+06
741894
923125
1.53891e+06
1.51054e+06
282985
1.46421e+06
598856
820525
1.30736e+06
1.594e+06
1.9215e+06
598779
865100
753855
750261
)
;
    }
    procBoundary20to21
    {
        type            processor;
        value           nonuniform List<scalar> 
20
(
2.98729e+06
4.02486e+06
3.12166e+06
3.05121e+06
1.87783e+06
1.7553e+06
1.06792e+06
903648
3.48644e+06
3.20086e+06
3.76527e+06
4.21211e+06
9.78117e+06
5.84757e+06
1.46124e+07
7.92822e+06
1.0105e+07
2.65927e+07
8.52273e+06
1.03597e+07
)
;
    }
    procBoundary20to28
    {
        type            processor;
        value           nonuniform List<scalar> 
50
(
1.11565e+06
1.23477e+06
1.83879e+06
1.73575e+06
2.37714e+06
2.54307e+06
2.63983e+06
2.92465e+06
2.57505e+06
3.67663e+06
1.49782e+06
756320
687780
1.05197e+06
953786
1.59323e+06
1.06177e+06
1.19045e+06
708604
1.22327e+06
601971
1.20016e+06
1.47271e+06
1.79601e+06
2.57625e+06
5.04337e+06
7.50957e+06
3.13492e+06
4.34279e+06
3.95917e+06
2.47834e+06
3.12649e+06
3.51581e+06
3.48879e+06
1.00341e+07
2.67099e+07
1.28807e+07
1.34364e+07
1.35788e+07
1.10054e+07
3.87601e+06
4.34159e+06
4.44212e+06
1.01953e+07
4.05853e+07
2.87371e+07
3.54737e+07
2.26457e+07
1.42048e+07
9.43919e+06
)
;
    }
}


// ************************************************************************* //
