/*--------------------------------*- C++ -*----------------------------------*\
| =========                 |                                                 |
| \\      /  F ield         | OpenFOAM: The Open Source CFD Toolbox           |
|  \\    /   O peration     | Version:  2.4.0                                 |
|   \\  /    A nd           | Web:      www.OpenFOAM.org                      |
|    \\/     M anipulation  |                                                 |
\*---------------------------------------------------------------------------*/
FoamFile
{
    version     2.0;
    format      ascii;
    class       Cloud<softParticle>;
    location    "0.01/lagrangian/defaultCloud";
    object      positions;
}
// * * * * * * * * * * * * * * * * * * * * * * * * * * * * * * * * * * * * * //

40
(
(0.0107267 0.000319294 8.97411e-05) 7
(0.0108819 0.000466952 9.21124e-05) 7
(0.0107763 8.86865e-05 8.78938e-05) 7
(0.0109641 0.000109838 8.52811e-05) 7
(0.0112166 0.000210796 8.74363e-05) 7
(0.0113919 0.000178184 8.85196e-05) 8
(0.0114918 0.000417803 8.59537e-05) 8
(0.0115675 0.000210696 8.64049e-05) 8
(0.0117258 9.45555e-05 8.54517e-05) 8
(0.0119689 0.000124034 8.6807e-05) 9
(0.0121705 0.000150766 8.71272e-05) 9
(0.0122991 0.000398152 9.51016e-05) 9
(0.0124914 0.000501539 9.06639e-05) 9
(0.0123781 8.55851e-05 8.61733e-05) 9
(0.0105044 0.000251 8.56469e-05) 6
(0.0102015 0.000151456 8.52526e-05) 6
(0.0103909 9.26738e-05 8.91458e-05) 6
(0.0100241 0.00016499 8.59905e-05) 6
(0.00953935 8.94976e-05 8.65674e-05) 5
(0.00981341 0.000130511 9.42101e-05) 5
(0.00986563 0.000330226 8.5533e-05) 5
(0.0090247 0.000303359 8.62e-05) 4
(0.00919656 0.000160505 0.000133604) 4
(0.00942063 0.000259346 8.58515e-05) 5
(0.00847291 0.000151849 8.60825e-05) 3
(0.00870116 0.000150944 8.51852e-05) 3
(0.00884166 0.000248959 8.59243e-05) 4
(0.007813 8.51144e-05 8.64232e-05) 2
(0.00797806 0.000146663 8.72362e-05) 2
(0.00816385 0.000216008 8.72335e-05) 3
(0.0083723 0.000330251 8.74035e-05) 3
(0.00710545 8.75587e-05 8.5368e-05) 1
(0.00724812 0.000189185 8.58416e-05) 1
(0.00735416 0.000372989 8.58537e-05) 1
(0.00751748 0.000304481 8.5646e-05) 2
(0.00760255 0.000102769 8.52855e-05) 2
(0.00638227 8.78929e-05 8.71495e-05) 0
(0.00654554 0.000149949 8.7822e-05) 0
(0.00672065 0.000165006 8.54201e-05) 0
(0.00690704 0.000105041 8.51699e-05) 1
)


// ************************************************************************* //
