/*--------------------------------*- C++ -*----------------------------------*\
| =========                 |                                                 |
| \\      /  F ield         | OpenFOAM: The Open Source CFD Toolbox           |
|  \\    /   O peration     | Version:  2.4.0                                 |
|   \\  /    A nd           | Web:      www.OpenFOAM.org                      |
|    \\/     M anipulation  |                                                 |
\*---------------------------------------------------------------------------*/
FoamFile
{
    version     2.0;
    format      ascii;
    class       vectorField;
    location    "0.01/lagrangian/defaultCloud";
    object      U;
}
// * * * * * * * * * * * * * * * * * * * * * * * * * * * * * * * * * * * * * //


40
(
(0.784031 0.0385517 0.00271006)
(0.781568 0.0684913 0.00295895)
(0.71513 0.0023157 0.00922135)
(0.72346 0.00945681 -0.000282266)
(0.740485 0.0197424 0.00154686)
(0.739938 0.0113885 0.0100296)
(0.720907 0.0625839 0.00025654)
(0.694914 0.0200038 0.0017433)
(0.692239 0.0107112 0.0006159)
(0.704069 -0.000738195 -0.00113596)
(0.71669 0.00415628 0.00706172)
(0.705477 0.0690722 0.00189714)
(0.709749 0.0973542 -0.0060372)
(0.61381 0.000252707 0.00591861)
(0.77368 0.0256861 -0.000311428)
(0.78852 0.0175185 0.00269644)
(0.790923 0.0059739 0.00332586)
(0.860397 0.0318936 -0.0093956)
(0.797693 0.00334164 0.000115953)
(0.76443 0.00500879 0.000462158)
(0.791141 0.0522595 0.00173793)
(0.839106 0.0868133 0.0057282)
(0.831784 0.0421557 0.00129205)
(0.85048 0.074374 0.00121544)
(0.816669 0.000761105 0.00612245)
(0.843711 0.00361063 -0.000540402)
(0.824707 0.0275038 -0.00737101)
(0.820134 -0.00186632 -0.00240817)
(0.832016 0.00632748 0.000857301)
(0.839347 0.023572 -0.000606762)
(0.845652 0.036658 0.0366373)
(0.885159 0.00181191 -0.00184042)
(0.875574 0.0207017 -6.20666e-05)
(0.855319 0.0727346 -0.00151766)
(0.848092 0.0485834 0.00297912)
(0.815914 0.00675021 -0.00265017)
(0.869936 -0.0107731 0.00374391)
(0.864514 0.0197424 -0.000579564)
(0.883404 0.0233729 -0.00285081)
(0.870186 0.0122024 -0.00380687)
)


// ************************************************************************* //
