/*--------------------------------*- C++ -*----------------------------------*\
| =========                 |                                                 |
| \\      /  F ield         | OpenFOAM: The Open Source CFD Toolbox           |
|  \\    /   O peration     | Version:  2.4.0                                 |
|   \\  /    A nd           | Web:      www.OpenFOAM.org                      |
|    \\/     M anipulation  |                                                 |
\*---------------------------------------------------------------------------*/
FoamFile
{
    version     2.0;
    format      ascii;
    class       volSymmTensorField;
    location    "0.09";
    object      B;
}
// * * * * * * * * * * * * * * * * * * * * * * * * * * * * * * * * * * * * * //

dimensions      [0 2 -2 0 0 0 0];

internalField   nonuniform List<symmTensor> 
200
(
(4.54451e+12 -1.5869e+12 3.77181e+11 6.2149e+12 -9.16842e+11 6.58973e+12)
(1.6545e+12 1.64401e+12 5.33733e+11 2.00111e+12 1.25952e+12 4.69642e+12)
(1.27053e+12 -4.06325e+11 7.91654e+10 2.6896e+12 -8.08349e+11 2.70787e+12)
(1.19626e+12 -9.65657e+11 -3.23863e+11 1.17071e+12 3.99698e+11 2.03332e+12)
(9.07449e+12 1.31074e+12 2.40546e+10 8.50693e+12 -3.94328e+11 8.71372e+12)
(5.56547e+12 -3.27455e+12 -1.22366e+11 7.6603e+12 1.15123e+12 6.79994e+12)
(8.49759e+11 1.33911e+12 4.35404e+11 -1.06262e+11 -1.32887e+12 5.03815e+11)
(3.49763e+12 9.59113e+11 6.7643e+11 6.38469e+12 8.7019e+11 4.41157e+12)
(1.14254e+12 -3.93986e+11 2.26336e+11 1.36709e+12 -5.68086e+10 1.93527e+12)
(5.85567e+11 4.60304e+10 -3.01065e+11 2.55758e+12 2.27045e+11 1.89509e+12)
(8.16096e+12 8.68043e+11 6.21963e+11 6.47076e+12 -1.18321e+11 8.16895e+12)
(1.38098e+12 -7.41504e+11 -4.76819e+10 3.12337e+12 1.17219e+11 2.54964e+12)
(-3.8053e+11 -4.72297e+11 -3.67026e+11 2.01345e+11 -3.43065e+11 4.21119e+11)
(1.19957e+12 2.96109e+11 1.30855e+11 2.06482e+12 9.42143e+10 1.6382e+12)
(4.64524e+12 -9.01822e+11 -1.478e+11 5.14556e+12 8.45075e+10 5.06201e+12)
(4.42796e+12 1.49661e+12 -1.28845e+11 2.78402e+12 -2.30653e+11 3.88838e+12)
(6.6613e+12 -1.94477e+11 5.7082e+11 1.17312e+13 1.37775e+12 7.70813e+12)
(6.79454e+11 -1.0988e+12 1.20869e+11 2.33406e+11 1.25071e+11 1.36846e+12)
(2.45214e+12 -5.35876e+09 -6.70671e+11 6.32834e+12 9.38756e+10 3.68507e+12)
(-2.28121e+11 -2.56651e+11 7.28865e+09 -1.33108e+11 9.42943e+10 7.61241e+11)
(3.30679e+12 -4.64237e+11 2.72056e+10 3.91229e+12 -2.01586e+11 3.43278e+12)
(1.04406e+13 6.72967e+11 3.01997e+11 9.2678e+12 -1.71679e+11 9.99072e+12)
(2.12488e+12 -1.39047e+11 4.9108e+10 4.34077e+12 6.28395e+11 3.53032e+12)
(-2.02167e+11 -3.01816e+12 -1.80474e+12 2.24652e+12 -3.30741e+11 2.23998e+12)
(1.32373e+12 3.2158e+11 -1.38284e+11 1.66892e+12 2.86383e+11 1.37037e+12)
(3.26133e+12 -1.17967e+12 -3.63398e+11 4.69635e+12 2.08297e+11 3.77628e+12)
(5.42908e+11 3.45665e+11 -2.33332e+11 -6.80871e+11 1.69646e+11 4.83144e+11)
(3.5202e+12 -5.72859e+10 -5.50105e+11 6.30775e+12 4.56537e+11 4.23451e+12)
(2.43933e+10 -2.15991e+11 -1.13637e+11 9.85555e+10 1.42096e+11 3.22213e+11)
(2.09248e+12 2.31075e+11 -5.61467e+11 3.44428e+12 3.44228e+11 2.4795e+12)
(6.17383e+11 -1.42838e+11 -1.20592e+11 1.28706e+12 -1.22143e+10 7.00562e+11)
(2.96719e+12 -1.80678e+11 -7.70991e+10 3.56108e+12 -2.82869e+10 3.01229e+12)
(2.38983e+12 3.2168e+11 7.22188e+10 1.37174e+12 -2.0701e+11 1.95511e+12)
(4.30032e+12 5.37106e+10 -2.16799e+11 6.02872e+12 5.08404e+11 4.62783e+12)
(-5.04379e+10 -1.09701e+12 -9.31748e+11 4.16119e+11 -1.51377e+11 8.21527e+11)
(9.12818e+11 3.82396e+11 -4.68194e+11 2.12296e+12 3.99755e+11 1.21467e+12)
(1.19775e+12 2.62812e+11 -1.43887e+11 1.11271e+12 8.08385e+10 8.81015e+11)
(4.84028e+11 -6.59112e+10 -1.25613e+11 6.19491e+11 2.49096e+11 6.57453e+11)
(1.00003e+12 -2.77356e+11 -3.59873e+11 1.35699e+12 5.79597e+10 1.26809e+12)
(1.14798e+12 1.05354e+11 -1.72437e+11 1.23511e+12 1.57871e+11 1.1674e+12)
(5.65288e+11 1.41755e+12 -3.33768e+11 3.41155e+12 3.72065e+12 3.80135e+12)
(5.67864e+12 -8.45548e+11 -4.66014e+11 9.97346e+12 -1.83262e+12 6.23963e+12)
(1.63706e+11 -5.01365e+11 -4.8421e+11 -3.11097e+11 4.22835e+11 4.8773e+11)
(2.70498e+12 -2.76953e+11 6.61163e+10 3.95082e+12 -7.1145e+11 2.52986e+12)
(1.20541e+12 -3.53673e+11 -1.89487e+11 1.44308e+12 2.44226e+11 1.51723e+12)
(5.77188e+12 1.18849e+12 1.232e+11 5.15623e+12 -7.83464e+11 5.40083e+12)
(4.77774e+12 -1.62172e+12 7.81868e+10 7.23883e+12 7.51045e+11 6.43934e+12)
(2.21748e+12 8.59744e+11 1.4437e+12 2.83069e+12 1.19745e+11 6.24503e+12)
(1.10031e+12 3.39885e+11 -1.2786e+11 3.52067e+12 -2.41523e+11 1.96903e+12)
(-2.41303e+11 -2.91864e+11 7.65413e+10 8.33398e+11 1.75056e+11 1.04838e+12)
(3.8862e+12 -3.40998e+11 -5.61022e+11 6.45665e+12 -4.04705e+10 4.03052e+12)
(7.2004e+11 -4.39174e+12 -2.53203e+12 -6.85185e+11 -1.33793e+12 1.92e+12)
(5.30309e+12 -2.3057e+11 1.25513e+11 6.80067e+12 2.64209e+11 5.13986e+12)
(5.75669e+11 -3.32534e+11 -1.60808e+10 -5.30649e+11 -2.79386e+11 4.30413e+11)
(2.5561e+12 -2.27755e+11 2.4918e+11 5.0769e+12 1.93468e+11 3.35373e+12)
(2.47291e+12 -7.22751e+11 -2.54734e+11 3.22247e+12 1.81915e+11 2.96958e+12)
(1.11688e+12 4.47991e+11 -9.43135e+10 3.78057e+11 -3.44798e+11 9.74305e+11)
(4.19036e+12 -1.07983e+12 -1.18402e+11 7.25321e+12 1.71699e+11 5.17634e+12)
(8.73659e+10 9.14424e+09 2.31946e+11 -5.07314e+10 -1.98601e+11 6.32582e+11)
(3.18412e+12 7.09405e+10 -2.4831e+11 5.79318e+12 1.32776e+11 3.78676e+12)
(2.55199e+12 4.82208e+11 3.10732e+11 7.07275e+11 -2.95844e+11 2.00965e+12)
(3.34032e+12 -1.83646e+11 -1.19801e+11 4.42771e+12 4.59462e+11 2.99034e+12)
(2.04144e+11 -1.44555e+12 -9.96786e+11 1.80166e+11 -9.04101e+11 2.45695e+11)
(2.65202e+12 8.96143e+10 9.95828e+10 3.97395e+12 4.13682e+11 2.72204e+12)
(8.614e+11 -1.15439e+11 8.17578e+10 -2.93065e+11 -2.54145e+11 2.40114e+11)
(2.36434e+12 -2.93372e+11 8.57056e+10 3.97572e+12 1.9311e+11 2.78285e+12)
(4.56511e+11 -3.28244e+11 -1.51079e+11 9.72741e+11 1.13549e+10 7.55957e+11)
(-1.33756e+11 2.10096e+11 3.25541e+10 1.75925e+11 -2.12275e+10 1.15586e+11)
(1.79475e+12 -1.04009e+10 -1.81637e+10 2.42174e+12 1.30575e+10 1.73882e+12)
(-9.63518e+09 -1.33935e+10 4.66497e+09 8.27572e+09 -1.90281e+10 1.75739e+10)
(1.05471e+12 1.71508e+10 -7.26716e+09 1.37392e+12 6.49748e+10 1.14611e+12)
(6.95447e+09 -5.84868e+10 6.90206e+10 -3.0531e+11 -2.97707e+10 -4.549e+10)
(1.53859e+12 -5.93552e+10 4.02463e+10 2.2058e+12 2.67231e+11 1.55101e+12)
(-6.28555e+09 2.31754e+10 -1.10725e+10 6.46505e+10 -7.28426e+10 -7.84806e+10)
(9.38496e+11 6.91939e+10 6.15989e+10 1.48433e+12 2.82755e+11 9.28838e+11)
(5.81988e+09 -9.52289e+09 -2.51703e+08 -2.59882e+10 -2.14996e+10 -1.0791e+10)
(1.26363e+12 -1.57739e+09 6.38347e+10 2.13965e+12 1.68805e+11 1.42812e+12)
(2.75665e+10 -8.87513e+09 -5.04845e+09 5.17469e+10 -1.56669e+10 2.32629e+10)
(3.65205e+11 9.16581e+10 8.65856e+10 6.42263e+11 1.13339e+11 4.05522e+11)
(-2.16022e+10 2.99421e+09 4.50334e+09 1.73755e+09 -1.01398e+10 -1.45467e+10)
(1.27526e+13 -1.9374e+12 -5.1837e+11 2.47278e+13 -4.4071e+12 1.47865e+13)
(1.80754e+10 -1.10928e+12 -8.12591e+11 8.4897e+10 5.40786e+11 6.59063e+11)
(6.92489e+12 -5.50973e+11 1.22201e+11 1.14638e+13 -1.38632e+12 6.84304e+12)
(4.63392e+11 -4.50819e+11 -3.40763e+11 1.0089e+12 2.08258e+11 9.10721e+11)
(3.94372e+12 -6.58868e+11 1.66843e+11 5.23402e+12 -5.21153e+11 3.422e+12)
(1.1557e+12 -5.90309e+11 -1.74224e+11 1.1086e+12 1.15895e+11 1.2455e+12)
(2.04505e+13 2.75499e+12 1.96715e+12 2.11432e+13 6.83899e+10 2.20161e+13)
(1.177e+13 -5.08515e+11 -2.04388e+11 1.52532e+13 -4.06188e+11 1.32604e+13)
(1.92135e+12 -4.23041e+12 -3.56156e+12 4.91521e+12 -1.16965e+11 3.30488e+12)
(3.20899e+12 7.55078e+11 -1.31425e+11 6.68588e+12 -1.79458e+11 3.6456e+12)
(-8.82088e+10 -6.13454e+12 -3.24017e+12 -3.99502e+12 -2.17507e+12 3.56284e+12)
(1.1929e+13 -4.28495e+11 2.28974e+11 1.54257e+13 2.57397e+11 1.15641e+13)
(1.29007e+12 -9.68438e+11 -7.21156e+10 -1.37452e+12 -9.07665e+11 9.21262e+11)
(4.66791e+12 -2.99151e+10 1.40373e+11 8.82974e+12 5.61738e+11 5.6284e+12)
(5.59593e+11 -6.77645e+11 -3.68502e+11 1.00646e+12 -2.09583e+11 1.17518e+12)
(3.0889e+12 -4.12917e+11 -4.1328e+10 6.7056e+12 3.69906e+11 4.41251e+12)
(2.53795e+12 -6.74657e+11 -1.07371e+11 2.99695e+12 -3.5634e+10 2.58852e+12)
(1.84785e+12 5.3402e+11 7.689e+11 -3.65165e+11 -1.25011e+12 1.56281e+12)
(3.02599e+12 -2.89614e+11 -1.05115e+11 4.94009e+12 2.22495e+11 3.57651e+12)
(-4.09673e+11 -5.17523e+11 -8.55071e+11 -1.34952e+11 -9.57537e+11 -3.94077e+11)
(3.21242e+12 -2.04613e+10 3.17768e+10 4.31564e+12 4.20345e+11 3.28647e+12)
(2.92301e+11 -2.68521e+11 -1.48403e+11 -2.19801e+11 -3.96461e+11 7.68986e+10)
(3.11487e+12 -2.09469e+11 1.08826e+11 4.3496e+12 4.27099e+11 3.33377e+12)
(1.07353e+11 -1.10961e+11 1.77481e+10 -1.56255e+11 -1.20636e+11 1.64546e+11)
(1.37174e+12 -8.59468e+10 -7.43503e+09 2.4105e+12 2.45834e+11 1.66373e+12)
(3.32521e+10 -7.27439e+10 -4.83839e+10 8.25959e+10 -5.07268e+10 7.9812e+10)
(1.17418e+12 1.49461e+11 9.28542e+10 2.08125e+12 2.60485e+11 1.48452e+12)
(1.87212e+11 -4.83601e+10 -9.5155e+09 3.31374e+11 -2.22988e+10 2.53632e+11)
(-1.64788e+11 4.8068e+10 4.52858e+10 1.12731e+11 -1.95326e+11 6.94775e+10)
(3.37186e+11 -7.19991e+10 -3.45325e+10 7.94212e+11 -4.79042e+10 5.00401e+11)
(-2.364e+10 5.05008e+10 4.25294e+10 5.7085e+10 1.36747e+10 1.03635e+11)
(2.99004e+11 4.56956e+10 3.01804e+10 4.81561e+11 1.04269e+11 4.65567e+11)
(8.76459e+09 4.83523e+09 8.23286e+09 2.26684e+10 1.68536e+09 3.14118e+10)
(2.37077e+11 3.72767e+10 4.14628e+10 3.87636e+11 6.11708e+10 3.63494e+11)
(2.24073e+09 1.31733e+09 3.24721e+09 1.10608e+09 -2.16632e+09 6.38357e+09)
(1.64671e+11 1.8906e+10 1.44192e+10 2.83448e+11 3.5546e+10 2.45026e+11)
(5.25336e+09 8.66518e+08 1.71614e+09 1.61633e+10 -3.64324e+09 1.48999e+10)
(9.68944e+10 2.27358e+10 2.53077e+10 1.6501e+11 2.30067e+10 1.51383e+11)
(1.36117e+10 7.95108e+09 3.90613e+09 1.90803e+10 -2.97961e+09 1.76679e+10)
(1.75869e+11 1.05678e+11 2.13188e+10 3.70732e+11 1.33478e+10 2.8675e+11)
(-4.76256e+12 -5.57196e+12 -3.66021e+12 5.45605e+12 2.86218e+12 1.52275e+12)
(1.39993e+13 1.42194e+12 -8.96763e+11 2.23419e+13 -2.00392e+12 1.29899e+13)
(6.67477e+11 -1.28192e+12 -1.02885e+12 1.5144e+12 2.4305e+10 1.25889e+12)
(5.45456e+12 -1.01269e+12 -2.87475e+11 8.90929e+12 -6.00227e+11 4.96323e+12)
(1.17821e+12 -6.78563e+11 -5.98332e+11 1.68844e+12 3.22654e+11 1.6192e+12)
(1.33836e+13 2.88266e+12 2.44292e+12 1.55207e+13 2.24459e+11 1.44058e+13)
(1.0897e+13 -5.91311e+11 -2.54236e+11 1.42753e+13 -4.69278e+11 1.21843e+13)
(2.59842e+12 -3.9609e+12 -3.72859e+12 4.65449e+12 -2.33662e+12 -2.64511e+11)
(5.14329e+12 3.71087e+11 -2.58859e+11 8.64218e+12 5.01171e+11 5.101e+12)
(-3.24505e+11 -2.12769e+11 -1.77879e+11 1.12475e+12 -4.173e+11 -4.124e+11)
(1.23207e+13 -2.09012e+11 2.88452e+11 1.79152e+13 4.12451e+11 1.30039e+13)
(5.94103e+11 -7.48314e+12 -3.24247e+12 -1.17237e+11 -1.96962e+12 5.6377e+12)
(5.48166e+12 -2.8341e+10 6.74649e+10 9.08628e+12 7.52775e+11 5.31606e+12)
(5.85696e+10 -9.13865e+11 -4.23237e+11 -5.60325e+11 -8.67429e+11 1.88247e+11)
(2.16115e+12 -2.41076e+11 1.47722e+10 6.00195e+12 5.2575e+11 3.49002e+12)
(9.62378e+11 -3.6498e+11 -1.45911e+11 1.28286e+12 -2.19624e+10 1.2678e+12)
(2.23555e+11 -6.71393e+10 2.03813e+11 -1.07306e+12 -8.64311e+11 1.17503e+11)
(1.94134e+12 -1.55812e+11 -5.84225e+10 2.89966e+12 -3.30656e+10 2.17451e+12)
(6.83146e+10 -6.04002e+10 -8.02637e+09 1.94083e+11 -3.29839e+11 -4.82607e+11)
(1.13893e+12 -4.15172e+11 -1.69855e+11 2.56642e+12 9.76082e+10 1.77716e+12)
(1.47367e+12 -4.40043e+11 1.38555e+11 -8.58721e+11 -8.95061e+11 1.3785e+12)
(2.04977e+12 -1.64854e+10 1.02327e+11 3.0069e+12 3.04174e+11 2.06086e+12)
(2.06824e+11 -9.45757e+10 -6.11168e+10 1.61092e+10 -2.94832e+11 3.0543e+11)
(7.16875e+11 -1.33918e+11 -2.57046e+10 1.23579e+12 1.78759e+11 8.15498e+11)
(1.08488e+11 -5.26144e+10 -8.7356e+09 6.473e+10 -1.12716e+11 1.66465e+11)
(3.47315e+11 9.31789e+10 2.86348e+10 7.0845e+11 8.83647e+10 4.06804e+11)
(7.98623e+10 -2.35413e+10 -1.64336e+10 1.26288e+11 -3.92886e+10 1.3512e+11)
(7.22901e+10 6.10875e+10 1.60217e+10 4.33136e+11 4.00383e+10 1.79119e+11)
(9.01418e+10 -1.26523e+10 -8.75323e+09 2.12906e+11 -6.58159e+10 1.92897e+11)
(1.57472e+11 2.12016e+09 -2.04892e+09 2.36524e+11 2.53909e+09 1.87701e+11)
(1.79259e+11 2.95737e+10 4.98923e+09 2.13601e+11 8.67191e+09 2.27702e+11)
(4.14934e+10 4.21273e+10 3.34854e+10 1.26948e+11 -7.30177e+10 2.03471e+11)
(-1.03075e+10 1.57517e+10 1.1146e+10 2.40868e+10 9.17661e+09 6.5103e+10)
(4.6307e+10 2.16851e+10 3.73923e+09 6.20549e+10 -3.01269e+10 1.01646e+11)
(4.87681e+10 1.23898e+10 1.14492e+09 6.62288e+10 1.57967e+09 7.5156e+10)
(3.04854e+10 1.00098e+10 4.46838e+09 4.44782e+10 -2.56832e+10 6.93845e+10)
(1.47916e+09 1.00243e+10 3.23829e+09 2.0168e+10 -5.4422e+08 2.7961e+10)
(4.37173e+10 1.36444e+10 3.73816e+08 6.23477e+10 -1.72828e+10 7.24282e+10)
(2.84254e+10 1.58537e+10 -1.80616e+09 4.97437e+10 -1.37155e+09 5.16869e+10)
(5.15695e+10 1.62862e+10 -3.29214e+09 9.87359e+10 -2.38987e+10 9.53198e+10)
(1.04245e+13 -9.51993e+11 4.77546e+11 1.38304e+13 3.86787e+11 1.08543e+13)
(5.76463e+11 -4.04091e+12 -2.28233e+12 3.50572e+12 -4.72538e+11 2.41623e+12)
(2.1596e+12 -3.05546e+10 1.27411e+11 3.73198e+12 -4.2755e+11 1.76656e+12)
(-1.94219e+11 4.96561e+10 -2.76921e+11 1.15234e+11 1.88103e+10 9.86889e+10)
(2.40001e+12 3.46854e+11 6.69403e+11 4.66759e+12 -4.54716e+10 3.28944e+12)
(1.92955e+12 -1.71439e+11 -2.61089e+11 2.46437e+12 5.99048e+10 2.12683e+12)
(1.25104e+12 -1.28567e+10 -4.11735e+11 2.60234e+12 -1.73231e+12 -7.18565e+11)
(1.29044e+12 -5.8953e+10 -2.37088e+11 2.8331e+12 7.54302e+11 1.69244e+12)
(4.19659e+11 -1.87328e+10 2.22472e+11 1.60062e+12 -6.81791e+11 4.02851e+11)
(9.6532e+11 -9.99651e+10 -1.31318e+11 2.87336e+12 3.64435e+11 1.83319e+12)
(4.15055e+12 8.2147e+11 3.09235e+11 7.1675e+11 -1.45034e+12 2.54914e+12)
(3.55718e+12 -6.41335e+10 6.94308e+10 4.95448e+12 4.88246e+11 3.38439e+12)
(-2.9308e+11 -9.1378e+11 -5.77867e+11 1.12713e+11 -5.58388e+11 8.1634e+11)
(1.57672e+12 -7.94614e+10 1.24598e+11 3.46705e+12 4.10877e+11 2.07425e+12)
(2.97066e+11 -5.55989e+10 -5.22404e+09 -9.16186e+10 -2.36383e+11 2.27489e+11)
(1.56052e+11 -1.59543e+11 1.26558e+11 9.15589e+11 -3.75627e+10 2.30449e+11)
(5.69602e+10 -1.89875e+11 -7.70088e+10 4.1772e+11 -5.84192e+10 4.44172e+11)
(9.61373e+10 -1.3801e+10 -3.36757e+10 2.98454e+11 1.26954e+09 1.44288e+11)
(2.92027e+11 -1.36029e+10 -5.34258e+10 4.25453e+11 -4.85197e+10 4.32582e+11)
(7.60444e+10 3.21653e+10 1.34979e+11 3.03025e+11 -2.56101e+10 1.06761e+11)
(7.05547e+11 -1.18443e+10 -9.32597e+10 8.8967e+11 1.25556e+11 7.48919e+11)
(3.63912e+10 -1.86089e+11 -4.99846e+08 -5.03915e+10 -2.79269e+11 3.01432e+11)
(2.61426e+11 -4.26272e+10 1.02294e+11 5.93135e+11 1.06497e+11 3.6259e+11)
(6.06363e+10 4.61849e+10 6.17541e+09 1.43681e+11 -4.44824e+10 1.20284e+11)
(1.55906e+11 -1.03161e+10 -4.50817e+10 2.79606e+11 7.96278e+10 1.59139e+11)
(6.87042e+10 -1.48468e+10 -1.70449e+09 7.15094e+10 -4.01603e+10 8.97673e+10)
(2.35277e+11 -3.09737e+09 4.15691e+10 5.0884e+11 5.71004e+10 2.61407e+11)
(1.01192e+11 1.11512e+10 -7.1677e+08 1.60461e+11 -1.78745e+10 1.37095e+11)
(2.10013e+11 7.64626e+09 -1.67325e+10 5.99624e+11 1.07453e+11 3.11363e+11)
(4.24104e+10 4.22079e+09 -2.44392e+09 1.0887e+11 -2.469e+10 8.78611e+10)
(1.54548e+11 5.98568e+10 -3.69352e+09 3.52592e+11 -5.57216e+10 2.47127e+11)
(1.75962e+10 2.12012e+10 -8.21259e+09 3.88499e+10 1.55654e+10 4.13874e+10)
(2.47088e+11 5.65671e+10 2.70325e+09 4.97113e+11 -3.6976e+10 3.6046e+11)
(-1.22698e+10 1.66092e+10 1.25101e+10 1.05484e+10 7.88689e+09 1.02766e+10)
(1.66155e+11 6.517e+10 -4.41791e+09 2.99323e+11 -4.15839e+10 2.06215e+11)
(8.29706e+09 8.29864e+09 -3.98224e+09 1.87678e+10 6.73796e+09 1.68808e+10)
(1.17057e+11 2.94145e+10 -1.35686e+09 2.66142e+11 -3.20091e+10 1.8532e+11)
(-2.10444e+09 7.66232e+09 3.52771e+09 1.407e+10 3.40168e+09 8.38321e+09)
(1.95214e+11 2.96257e+10 -1.01529e+09 2.72704e+11 -1.87646e+10 2.2402e+11)
(5.12684e+10 9.1956e+09 -3.25433e+09 7.37899e+10 2.42804e+09 6.32679e+10)
)
;

boundaryField
{
    inlet
    {
        type            calculated;
        value           nonuniform 0();
    }
    outlet
    {
        type            calculated;
        value           nonuniform 0();
    }
    bottom
    {
        type            calculated;
        value           nonuniform List<symmTensor> 
40
(
(-67391.1 -89701 84550.7 27028.7 69265.7 199414)
(54045.8 92869.8 64020.4 -126784 -112784 -117.172)
(-31214.4 -69766.4 9403.38 59780.7 -60104.1 12423.6)
(-33325 -18097.3 -25534.8 51522.1 -5603.66 -54094.9)
(-38676.9 54786.5 5136.85 -27126.1 -112888 11313.7)
(-47090.2 -41768.1 51551.7 51056.6 102341 153116)
(93659.7 115692 41915 -107963 -108037 -13687.5)
(-25431.7 -32576.1 -34451.2 81646 -32724.1 70.869)
(-37661.4 -19833.2 54604.9 31605.1 108407 171403)
(-20652.9 -17006.2 -29621.8 298.981 -115161 -43463.9)
(-55101.8 -7721.91 51124.2 67956.6 154406 154968)
(57163.5 51397.6 -10339.5 -105506 -59090.5 -30206.4)
(-25961.3 -63370.1 -48739.7 -27637.8 -103313 -24386.7)
(-29944.4 26519.3 55850.9 47546.8 93682 98049)
(-77531.4 -92494.6 -84783.9 -2488.98 -70620.9 -22240.7)
(-10165.6 2844.15 -4303.45 81358.6 87440.9 86777.2)
(41561.2 127344 40657.2 -13579.7 18310.7 67546.2)
(-41749 -115178 -51165.5 22150.9 -57690.2 -43792.5)
(74.7461 26350.4 2554.57 28359.9 72972.2 66860.9)
(-54012.7 -61596.9 -77250.1 -27815.6 -34365 -20266.6)
(-48854.1 -130678 -6460.77 34745 88925.7 -54391.8)
(39248.5 104017 22572.5 -75008.8 -22770.6 35910.6)
(-21722.2 -63217.9 -54087.7 55179.7 -25659.8 -31075.3)
(-21890.8 20587.7 -42740.1 43262.1 42118.9 22090.9)
(5764.27 32412.4 20794 -17375.6 -141631 4447.44)
(-38562.1 -6190.67 13736.4 122826 116791 -62084)
(9149.36 24849.9 -8090.9 -78828.1 33220.1 55377.7)
(21892.3 21555.3 -46832.1 14917.5 -1314.48 -22023.7)
(-41866.8 41274.2 44132.5 82374.2 149818 -57720.3)
(-34272.7 -80183.6 19463.9 -66822.5 -15338 74701.4)
(-35254.7 -2637.16 -46865.4 93070.1 38395.7 -32582.7)
(-17953.7 -9855.36 -23490.6 2301.44 98108 67654)
(-51823.2 -50247.4 28384.9 -23184.5 -85779.1 58825.1)
(-35330.6 -167.646 -31786.5 85934.5 37220.5 -27893.8)
(-38395.4 -33278.9 -22236.7 -26968.8 42588.9 47654.4)
(-37142.3 -39453.4 -92394.2 13635.3 -1318.78 -9863.48)
(-44792.9 2208.32 -16327.3 49815 76081.7 23345.3)
(-43835 -20390.3 1197.63 -36286.4 -15377.6 53236)
(-14618 11996.1 -68268.2 55559.9 19571.2 -14369)
(-1341.9 19355.2 -52513.8 14665.8 60792.7 27364.4)
)
;
    }
    top
    {
        type            symmetryPlane;
    }
    side1
    {
        type            symmetryPlane;
    }
    side2
    {
        type            symmetryPlane;
    }
    procBoundary2to1
    {
        type            processor;
        value           nonuniform List<symmTensor> 
20
(
(4.02334e+11 1.60303e+12 1.22082e+12 -1.39158e+12 4.63197e+11 1.10233e+12)
(-1.85714e+11 -5.73764e+11 1.85467e+11 3.27139e+11 -3.95383e+11 4.144e+10)
(-1.63916e+11 -2.29385e+11 -4.08118e+10 2.31391e+11 -1.95206e+11 -1.29267e+11)
(-3.97987e+10 -6.24544e+10 -4.62234e+10 9.20277e+10 9.12718e+09 -6.74628e+10)
(-1.08994e+12 -1.99885e+12 -2.92635e+11 1.55435e+12 -1.43793e+12 -3.48496e+11)
(1.18433e+12 1.58506e+12 1.07e+12 -2.22517e+12 -4.44053e+09 6.28009e+11)
(-1.1609e+11 -2.33841e+11 -1.39196e+10 3.93929e+11 -1.12816e+10 -6.03164e+10)
(-2.16137e+11 3.73069e+10 1.21717e+10 3.72137e+11 8.50785e+10 -5.96502e+10)
(-5.61286e+12 5.79221e+10 -8.29723e+11 9.87898e+11 6.70644e+12 6.89628e+11)
(-9.63889e+11 -8.70735e+11 4.72769e+10 3.30472e+12 4.11962e+10 -4.67261e+11)
(1.50758e+11 -2.5887e+11 1.95138e+11 -1.74441e+12 -6.31012e+11 9.63245e+10)
(-1.08294e+11 4.25892e+10 1.30671e+10 1.03517e+11 7.49998e+10 6.47492e+10)
(-2.66429e+12 -3.41512e+12 7.43923e+11 5.17956e+12 -9.84397e+11 -6.31312e+11)
(3.09627e+12 2.32944e+12 1.26647e+12 -4.67684e+12 -2.28604e+12 -1.08256e+12)
(-5.66423e+10 -8.061e+10 -1.47532e+10 3.1519e+11 1.34076e+11 7.69865e+10)
(-8.13192e+10 1.2433e+11 1.05192e+10 5.25913e+10 -2.71512e+10 8.22065e+10)
(1.06339e+12 3.23904e+12 9.18713e+11 -8.56719e+11 -8.39813e+11 -6.26012e+11)
(-1.04372e+11 -3.69768e+11 -1.00839e+11 3.48429e+11 1.63419e+11 1.64629e+11)
(-3.88271e+11 2.30245e+11 1.33667e+11 8.63418e+11 3.54014e+10 8.10268e+10)
(-4.08733e+10 1.83845e+10 7.99555e+09 -1.49176e+09 4.8706e+09 3.33388e+09)
)
;
    }
    procBoundary2to3
    {
        type            processor;
        value           nonuniform List<symmTensor> 
20
(
(-7.44996e+11 -1.30936e+11 6.25212e+10 -1.85637e+11 5.39635e+10 6.21411e+11)
(-1.13563e+12 1.7466e+11 -6.53982e+11 2.07552e+12 2.09556e+11 1.90504e+11)
(-9.3459e+10 -4.94163e+10 -1.09295e+11 -3.24337e+10 7.8527e+10 3.70512e+10)
(-5.14327e+10 3.30601e+10 -2.82143e+11 -4.15851e+10 1.47734e+11 2.41781e+10)
(-6.53371e+11 2.9649e+10 -1.11983e+11 9.08355e+11 -1.79196e+11 -1.67037e+10)
(-3.1288e+11 -2.34696e+11 -1.91404e+11 -5.6381e+11 -3.32923e+11 -1.09784e+09)
(-5.22481e+11 -2.28154e+11 -1.90478e+11 8.28548e+11 -1.4518e+10 -1.04319e+11)
(-1.19791e+11 3.91415e+10 8.43634e+09 1.82424e+11 9.09093e+10 -7.53266e+09)
(-6.13228e+11 -7.83289e+10 -2.2618e+10 6.5527e+11 -2.59589e+11 -5.15942e+11)
(-7.14344e+11 -2.00619e+11 -1.33297e+11 1.19309e+12 1.33286e+11 9.78561e+10)
(-1.30794e+11 2.69552e+10 1.9562e+10 1.22125e+11 9.36914e+09 -1.51836e+10)
(-8.39429e+10 3.9358e+10 3.35419e+09 3.39772e+10 -9.77912e+09 -7.5303e+09)
(-1.01982e+12 -5.95574e+09 -2.13286e+11 1.68972e+12 5.49308e+10 -3.88308e+10)
(-1.3175e+11 7.60619e+10 1.27446e+11 -2.80189e+09 -1.7806e+11 -1.61304e+11)
(-1.17429e+11 -4.74334e+10 -2.45883e+10 1.54218e+11 -7.19165e+10 3.51433e+10)
(-1.88511e+10 9.08874e+09 1.36535e+09 1.40501e+10 -5.08501e+09 3.31492e+08)
(-1.63984e+11 -4.86567e+10 -4.61685e+10 2.69794e+11 -2.24773e+11 -1.64524e+11)
(-3.29571e+11 -1.48344e+11 -5.9196e+10 2.25124e+11 -1.2957e+09 4.21678e+10)
(-6.34564e+10 3.15646e+09 1.31268e+09 9.40971e+10 1.35265e+10 -1.75195e+10)
(-7.88637e+10 3.08135e+10 -1.44496e+09 9.18964e+10 -3.08482e+10 3.74446e+09)
)
;
    }
    procBoundary2to10
    {
        type            processor;
        value           nonuniform List<symmTensor> 
50
(
(-5.99069e+10 7.87756e+09 -7.56676e+10 9.48186e+10 7.10598e+10 -5.23883e+10)
(-2.10009e+11 5.72128e+10 -1.45063e+11 3.9764e+11 1.08059e+11 -1.35767e+11)
(-6.46939e+10 4.37732e+10 -1.13786e+11 2.68369e+11 8.96747e+10 -6.02219e+10)
(2.2117e+10 -2.19267e+10 -1.56075e+11 -2.76298e+11 6.11408e+09 -1.05854e+11)
(-1.6e+11 -4.72537e+09 -3.59198e+11 9.00986e+11 3.583e+11 -1.28226e+11)
(-7.51369e+10 1.65309e+10 -1.11295e+11 2.86698e+10 7.83891e+10 -3.85859e+10)
(-1.24285e+11 1.64734e+11 -4.12191e+11 5.44812e+11 3.97648e+11 -7.82643e+10)
(1.41035e+10 -1.0053e+10 -8.80895e+10 -8.68859e+10 3.39074e+10 -1.69373e+10)
(-1.33838e+11 5.26085e+10 -3.02306e+11 4.41061e+11 2.86571e+11 -3.20592e+10)
(-4.97979e+10 2.28638e+09 -1.30575e+11 -1.73254e+09 7.99722e+10 -1.19956e+10)
(-5.53586e+10 5.61167e+10 9.34858e+09 9.31575e+10 4.29315e+10 -2.54939e+10)
(-3.69717e+10 4.72129e+10 9.89145e+09 4.10875e+10 4.58901e+10 -3.05999e+09)
(-5.08373e+10 5.84313e+10 4.16769e+10 9.94548e+10 3.44232e+10 -3.18161e+10)
(-5.72452e+10 8.33227e+10 1.96179e+10 8.29506e+10 5.38433e+10 -3.56887e+09)
(-3.38114e+10 4.77338e+10 7.77422e+09 4.66812e+10 2.93589e+09 -1.37707e+10)
(-9.50988e+10 2.94543e+10 2.84042e+10 6.23182e+10 7.2237e+10 -1.01327e+10)
(-2.05208e+10 -2.14683e+10 1.29617e+10 4.47779e+09 3.55406e+09 -1.51943e+10)
(-5.86914e+10 2.42573e+10 1.11925e+10 1.00377e+11 5.88533e+10 -5.43205e+09)
(-8.8724e+09 5.33196e+09 1.73508e+09 1.26152e+10 -2.91006e+09 -4.09823e+09)
(-4.61303e+10 1.44004e+09 7.9241e+10 8.74303e+10 5.16189e+10 -1.38328e+10)
(-2.83719e+10 2.39924e+10 7.15275e+09 5.63705e+09 1.82631e+10 1.21946e+10)
(-1.79138e+10 1.734e+10 7.66054e+09 5.73929e+09 9.41327e+09 9.007e+09)
(-2.24546e+10 3.51583e+10 1.03833e+10 2.11703e+09 1.85843e+10 1.53487e+10)
(-2.45595e+10 3.19011e+10 7.5347e+09 1.53963e+10 2.92965e+09 5.17195e+09)
(-4.25094e+10 4.37862e+10 1.05575e+10 3.09678e+10 4.43201e+09 1.32904e+10)
(-3.38645e+10 1.69076e+10 1.3974e+10 2.65805e+10 -1.19207e+10 2.09529e+09)
(-5.65765e+10 8.83819e+09 1.98204e+10 5.32147e+10 3.0621e+09 8.79242e+09)
(-9.95261e+09 -1.4535e+10 7.45029e+09 1.84561e+10 -1.87941e+08 -1.1321e+09)
(6.80049e+10 2.87466e+10 7.78697e+09 -5.54707e+10 3.79097e+10 1.00751e+10)
(4.20584e+10 -4.75601e+10 1.97275e+10 -2.0484e+11 -4.00691e+10 -8.24074e+09)
(-2.77038e+10 2.12719e+10 4.82127e+09 -5.56842e+09 6.91659e+08 2.62968e+10)
(-1.89121e+10 1.72449e+10 3.67714e+09 -8.01047e+09 7.90279e+08 1.67898e+10)
(-2.40962e+10 2.02482e+10 3.80279e+09 2.28995e+09 -4.72805e+09 2.00886e+10)
(-2.25789e+10 1.84853e+10 1.84801e+09 4.53707e+09 -2.2561e+09 1.4173e+10)
(-2.6713e+10 2.16743e+10 3.23599e+09 6.55461e+09 -1.09732e+10 2.03323e+10)
(-2.0258e+10 1.94868e+10 3.8483e+09 -1.42909e+09 -6.00458e+09 1.43656e+10)
(-2.72298e+10 2.25993e+10 7.42556e+09 1.49871e+10 -1.71781e+10 1.70381e+10)
(-1.66401e+10 1.83323e+10 8.72479e+09 9.28632e+09 -5.05679e+09 9.40153e+09)
(-2.65723e+10 3.23483e+10 -4.26085e+07 1.58911e+10 -1.058e+10 1.62871e+10)
(-3.93769e+10 4.25126e+10 -2.01174e+10 2.38739e+10 -5.70236e+09 1.11588e+10)
(-2.08879e+10 1.26429e+10 1.37592e+09 9.94807e+09 -2.91529e+09 6.23695e+09)
(-5.2531e+10 2.85907e+10 7.79556e+08 5.54734e+10 -1.19351e+10 2.13376e+10)
(-1.79528e+10 1.43589e+10 6.42374e+08 4.18026e+09 9.32333e+08 5.49647e+09)
(-3.06628e+10 2.41294e+10 6.45575e+08 3.65822e+10 -9.97536e+09 1.11718e+10)
(-1.29879e+10 1.09159e+10 4.44647e+08 4.73691e+09 -2.73251e+09 3.29663e+09)
(-3.45937e+10 2.61759e+10 2.69905e+08 4.02185e+10 -1.35566e+10 1.31391e+10)
(-1.58592e+10 1.51631e+10 3.05926e+08 6.27224e+09 -1.23377e+09 3.82935e+09)
(-3.00598e+10 3.16122e+10 4.44021e+08 3.92881e+10 -1.30507e+10 8.56052e+09)
(-2.02759e+10 2.34119e+10 -1.39479e+09 1.38593e+10 -4.2332e+09 2.26952e+09)
(-5.45515e+10 5.19137e+10 -7.59969e+09 6.08844e+10 -2.84524e+10 1.5097e+10)
)
;
    }
}


// ************************************************************************* //
