/*--------------------------------*- C++ -*----------------------------------*\
| =========                 |                                                 |
| \\      /  F ield         | OpenFOAM: The Open Source CFD Toolbox           |
|  \\    /   O peration     | Version:  2.4.0                                 |
|   \\  /    A nd           | Web:      www.OpenFOAM.org                      |
|    \\/     M anipulation  |                                                 |
\*---------------------------------------------------------------------------*/
FoamFile
{
    version     2.0;
    format      ascii;
    class       volVectorField;
    location    "0.02";
    object      Ua;
}
// * * * * * * * * * * * * * * * * * * * * * * * * * * * * * * * * * * * * * //

dimensions      [0 1 -1 0 0 0 0];

internalField   nonuniform List<vector> 
200
(
(0.240059 0.0530439 0.0431803)
(0.24589 0.0546151 0.0442362)
(0.252029 0.0562725 0.0453481)
(0.258536 0.058032 0.0465267)
(0.265448 0.0599036 0.0477785)
(0.272806 0.0618985 0.0491113)
(0.28066 0.0640293 0.0505337)
(0.289062 0.0663107 0.0520555)
(0.298077 0.0687593 0.0536881)
(0.307777 0.0713943 0.0554446)
(0.286428 0.117025 0.0277086)
(0.294264 0.120351 0.0284346)
(0.302488 0.123841 0.0291975)
(0.311177 0.127524 0.0300042)
(0.320374 0.13142 0.0308586)
(0.330129 0.135549 0.0317653)
(0.3405 0.139935 0.0327293)
(0.351551 0.144604 0.033756)
(0.363356 0.149586 0.034852)
(0.375999 0.154916 0.0360245)
(0.149602 0.106579 0.00359369)
(0.154343 0.109968 0.0037058)
(0.159353 0.113548 0.00382432)
(0.164682 0.117356 0.00395041)
(0.170358 0.121413 0.00408479)
(0.176418 0.125742 0.00422828)
(0.182899 0.130373 0.0043818)
(0.189846 0.135337 0.00454642)
(0.197311 0.14067 0.00472335)
(0.205352 0.146414 0.00491398)
(0.173653 0.123699 0.00415484)
(0.179111 0.127591 0.00428488)
(0.184876 0.131702 0.00442224)
(0.191005 0.136073 0.00456829)
(0.197534 0.140729 0.00472391)
(0.204503 0.145699 0.00489005)
(0.211961 0.151017 0.00506784)
(0.219959 0.156722 0.00525854)
(0.228558 0.162855 0.0054636)
(0.237828 0.169468 0.00568469)
(0.266097 0.059868 0.0479464)
(0.272824 0.0616653 0.0491649)
(0.279917 0.0635614 0.0504497)
(0.287446 0.065575 0.0518134)
(0.295455 0.0677176 0.0532639)
(0.303991 0.0700022 0.0548099)
(0.313112 0.0724437 0.0564615)
(0.322878 0.0750589 0.0582299)
(0.333361 0.077867 0.0601281)
(0.344643 0.08089 0.0621707)
(0.364491 0.148678 0.0538021)
(0.376064 0.153404 0.0559732)
(0.388272 0.158373 0.0582914)
(0.401232 0.16363 0.0607839)
(0.415012 0.169202 0.0634702)
(0.429693 0.175116 0.0663725)
(0.445364 0.181407 0.0695171)
(0.462132 0.188115 0.0729349)
(0.480125 0.19529 0.0766631)
(0.499504 0.203 0.0807477)
(0.173032 0.123188 0.00422838)
(0.178465 0.127067 0.0043582)
(0.184204 0.131164 0.00449539)
(0.190305 0.13552 0.00464131)
(0.196805 0.14016 0.00479684)
(0.203744 0.145114 0.00496296)
(0.211169 0.150414 0.00514077)
(0.219132 0.1561 0.00533156)
(0.227695 0.162213 0.00553676)
(0.236926 0.168804 0.00575803)
(0.195813 0.139427 0.00472418)
(0.201895 0.143761 0.00486992)
(0.208301 0.148327 0.00502346)
(0.21509 0.153166 0.00518624)
(0.222297 0.158303 0.00535905)
(0.229958 0.163764 0.0055428)
(0.238119 0.169582 0.00573857)
(0.246831 0.175793 0.00594761)
(0.256162 0.182447 0.00617153)
(0.266202 0.189608 0.00641249)
(0.291696 0.0664298 0.0526347)
(0.29923 0.0684292 0.054)
(0.307154 0.0705329 0.0554357)
(0.315539 0.0727602 0.0569549)
(0.324423 0.0751216 0.0585644)
(0.333851 0.077629 0.0602722)
(0.343872 0.0802962 0.0620875)
(0.354547 0.0831399 0.0640212)
(0.365954 0.086181 0.0660873)
(0.378197 0.0894477 0.0683045)
(0.440007 0.178759 0.0794703)
(0.454954 0.184698 0.0830087)
(0.470686 0.190924 0.0867771)
(0.487332 0.197485 0.0908137)
(0.504955 0.2044 0.0951421)
(0.523625 0.211692 0.0997894)
(0.543424 0.219389 0.104788)
(0.564464 0.227534 0.11018)
(0.586904 0.236188 0.116022)
(0.611002 0.245461 0.122404)
(0.195412 0.139035 0.00484177)
(0.201468 0.143355 0.00498815)
(0.207847 0.147906 0.00514243)
(0.214609 0.15273 0.00530604)
(0.221786 0.15785 0.00547981)
(0.229416 0.163293 0.00566465)
(0.237544 0.169091 0.00586164)
(0.246221 0.175283 0.00607204)
(0.255514 0.181914 0.00629747)
(0.265513 0.189051 0.00654008)
(0.216368 0.154005 0.00525736)
(0.223025 0.158748 0.00541788)
(0.23002 0.163731 0.00558659)
(0.237411 0.168997 0.0057649)
(0.245223 0.174563 0.0059534)
(0.253483 0.180448 0.00615278)
(0.262224 0.186678 0.00636384)
(0.271491 0.193282 0.00658764)
(0.28135 0.200311 0.00682583)
(0.291924 0.207851 0.00708132)
(0.315597 0.0724855 0.0570186)
(0.323853 0.0746677 0.0585154)
(0.332514 0.0769582 0.0600854)
(0.341647 0.0793755 0.061741)
(0.351282 0.0819276 0.0634873)
(0.361449 0.0846234 0.06533)
(0.372185 0.087473 0.0672757)
(0.383541 0.0904905 0.0693335)
(0.395594 0.0936971 0.0715177)
(0.408487 0.0971304 0.0738535)
(0.50997 0.206205 0.103715)
(0.527667 0.213107 0.108426)
(0.546216 0.220312 0.113417)
(0.565742 0.227865 0.118728)
(0.586274 0.23577 0.124375)
(0.607842 0.244034 0.130378)
(0.63049 0.252666 0.136758)
(0.654297 0.261696 0.143552)
(0.679437 0.271193 0.15083)
(0.706289 0.281318 0.158728)
(0.216093 0.153662 0.00541867)
(0.222725 0.15839 0.00558084)
(0.229695 0.163359 0.00575136)
(0.237058 0.168608 0.00593164)
(0.244842 0.174157 0.00612232)
(0.253072 0.180024 0.00632409)
(0.261782 0.186234 0.00653777)
(0.271015 0.192818 0.00676445)
(0.28084 0.199825 0.00700579)
(0.291375 0.207342 0.0072647)
(0.23517 0.167329 0.00575058)
(0.242302 0.172409 0.00592361)
(0.249787 0.17774 0.00610527)
(0.25768 0.183361 0.00629688)
(0.265997 0.189284 0.00649887)
(0.274753 0.195521 0.00671162)
(0.283964 0.202083 0.00693554)
(0.293662 0.208991 0.00717138)
(0.303911 0.216296 0.00742074)
(0.314871 0.224111 0.00768752)
(0.337618 0.0780191 0.0606458)
(0.346458 0.0803503 0.0622466)
(0.355718 0.0827938 0.0639236)
(0.365462 0.0853674 0.0656887)
(0.37571 0.0880764 0.0675455)
(0.386478 0.0909256 0.069497)
(0.397784 0.0939206 0.0715466)
(0.409661 0.0970709 0.0737005)
(0.422186 0.100397 0.0759723)
(0.435547 0.103949 0.0783954)
(0.573145 0.230695 0.124968)
(0.592888 0.238286 0.130584)
(0.613519 0.246188 0.136513)
(0.635149 0.25444 0.142793)
(0.657771 0.263032 0.149431)
(0.681368 0.271948 0.156428)
(0.705926 0.281178 0.163792)
(0.731478 0.290729 0.171547)
(0.758194 0.300673 0.179763)
(0.786586 0.311226 0.188627)
(0.23508 0.167074 0.00591709)
(0.242189 0.172139 0.00609254)
(0.249649 0.177454 0.00627683)
(0.257516 0.183059 0.00647135)
(0.265806 0.188964 0.00667657)
(0.274534 0.195182 0.0068929)
(0.283716 0.201725 0.00712084)
(0.293383 0.208614 0.00736114)
(0.303601 0.215897 0.00761544)
(0.314526 0.223689 0.0078876)
(0.252345 0.17949 0.00616225)
(0.259838 0.184825 0.00634473)
(0.267699 0.190422 0.00653631)
(0.275986 0.196322 0.0067384)
(0.284707 0.202531 0.0069513)
(0.293867 0.209053 0.00717513)
(0.303465 0.215887 0.00740996)
(0.313511 0.223042 0.00765607)
(0.324066 0.230561 0.00791492)
(0.335333 0.238593 0.00819143)
)
;

boundaryField
{
    inlet
    {
        type            calculated;
        value           uniform (0 0 0);
    }
    outlet
    {
        type            calculated;
        value           nonuniform 0();
    }
    bottom
    {
        type            calculated;
        value           uniform (0 0 0);
    }
    top
    {
        type            symmetryPlane;
    }
    side1
    {
        type            symmetryPlane;
    }
    side2
    {
        type            symmetryPlane;
    }
    procBoundary0to1
    {
        type            processor;
        value           nonuniform List<vector> 
20
(
(0.318254 0.0742457 0.0573411)
(0.39063 0.160473 0.0376899)
(0.214052 0.152639 0.00512112)
(0.250005 0.178173 0.00597499)
(0.359468 0.0848333 0.0648521)
(0.520964 0.211311 0.0848575)
(0.249089 0.177502 0.00605053)
(0.279853 0.199369 0.00674006)
(0.394841 0.0938468 0.071315)
(0.637376 0.255467 0.128834)
(0.279133 0.198792 0.00687179)
(0.306412 0.218214 0.00743151)
(0.426186 0.101788 0.0770549)
(0.735227 0.292129 0.16659)
(0.305838 0.217685 0.00762193)
(0.330028 0.234953 0.00805684)
(0.454084 0.108808 0.0817527)
(0.816968 0.322468 0.197417)
(0.329659 0.23451 0.0082674)
(0.35113 0.249892 0.00858001)
)
;
    }
    procBoundary0to8
    {
        type            processor;
        value           nonuniform List<vector> 
50
(
(0.196089 0.13957 0.0046942)
(0.202233 0.143944 0.00484113)
(0.208703 0.14855 0.00499589)
(0.215559 0.153431 0.00515989)
(0.222831 0.158608 0.00533387)
(0.230555 0.164107 0.00551867)
(0.23877 0.169956 0.00571526)
(0.247524 0.176188 0.00592474)
(0.256873 0.182846 0.00614849)
(0.266892 0.189982 0.00638832)
(0.216237 0.153868 0.00520441)
(0.222969 0.158659 0.00536609)
(0.230046 0.163696 0.00553608)
(0.237524 0.169018 0.00571572)
(0.245424 0.17464 0.00590551)
(0.253764 0.180576 0.00610593)
(0.262566 0.186841 0.00631744)
(0.271849 0.19345 0.00654057)
(0.281647 0.200426 0.00677609)
(0.292021 0.207814 0.00702546)
(0.234608 0.166897 0.00567352)
(0.241789 0.172007 0.0058467)
(0.249336 0.177376 0.00602873)
(0.257303 0.183045 0.00622092)
(0.265704 0.189023 0.00642363)
(0.274547 0.195315 0.00663704)
(0.283831 0.201921 0.00686114)
(0.293553 0.20884 0.00709589)
(0.303721 0.216079 0.00734147)
(0.31439 0.223676 0.00759921)
(0.251326 0.178745 0.00610425)
(0.258825 0.18408 0.00628585)
(0.26671 0.189689 0.00647683)
(0.275039 0.195614 0.00667862)
(0.283824 0.201864 0.00689153)
(0.293064 0.208437 0.00711554)
(0.302743 0.215323 0.0073503)
(0.312835 0.222503 0.00759515)
(0.323321 0.229965 0.00784971)
(0.334253 0.237749 0.00811527)
(0.266606 0.189565 0.00645344)
(0.274325 0.195056 0.00664065)
(0.282447 0.200833 0.00683771)
(0.291039 0.206945 0.00704629)
(0.300116 0.213401 0.00726681)
(0.309674 0.220199 0.00749924)
(0.319685 0.227319 0.00774299)
(0.330098 0.234725 0.00799692)
(0.340869 0.242388 0.00826005)
(0.352048 0.250346 0.00853367)
)
;
    }
}


// ************************************************************************* //
