/*--------------------------------*- C++ -*----------------------------------*\
| =========                 |                                                 |
| \\      /  F ield         | OpenFOAM: The Open Source CFD Toolbox           |
|  \\    /   O peration     | Version:  2.4.0                                 |
|   \\  /    A nd           | Web:      www.OpenFOAM.org                      |
|    \\/     M anipulation  |                                                 |
\*---------------------------------------------------------------------------*/
FoamFile
{
    version     2.0;
    format      ascii;
    class       surfaceScalarField;
    location    "0.02";
    object      phib;
}
// * * * * * * * * * * * * * * * * * * * * * * * * * * * * * * * * * * * * * //

dimensions      [0 3 -1 0 0 0 0];

internalField   nonuniform List<scalar> 
490
(
7.74442e-06
1.736e-06
9.80799e-07
6.00835e-06
2.1503e-07
2.05251e-06
9.57726e-06
-2.55594e-06
-1.17013e-06
1.06965e-05
-3.60488e-06
7.20113e-07
1.48838e-05
-6.86279e-06
2.67147e-06
1.71052e-05
-5.47501e-06
3.07103e-06
1.88451e-05
-6.11346e-06
5.3909e-06
2.52316e-05
-6.42905e-06
1.61052e-06
8.30965e-07
-9.01735e-06
3.83789e-05
-3.41548e-06
-3.84008e-06
2.86911e-06
4.67665e-06
1.93545e-06
2.68091e-06
-3.76796e-09
4.07006e-07
3.16331e-06
-4.49815e-06
1.45981e-06
4.69075e-06
-6.59511e-06
1.46278e-06
7.18578e-06
-8.6274e-06
-7.30421e-07
1.26637e-05
-9.78595e-06
-1.167e-06
1.10315e-05
-6.86206e-06
2.38078e-06
1.02345e-05
-8.80716e-06
3.17516e-06
1.01453e-05
-5.97924e-06
-2.94887e-06
-1.20173e-06
-1.94284e-06
1.43914e-05
4.73218e-06
-1.47702e-06
6.92775e-06
3.00487e-06
4.45505e-06
5.76475e-06
-4.89491e-06
1.55976e-06
7.11472e-06
-7.0838e-06
-8.61283e-07
8.41374e-06
-7.30731e-06
-2.61911e-06
9.67391e-06
-8.52961e-06
-2.5165e-06
1.69134e-05
-8.40507e-06
-5.69649e-06
1.26788e-05
-7.24305e-06
2.67045e-06
1.04492e-05
-3.20175e-06
-5.47879e-07
1.90708e-07
-2.85625e-06
1.35159e-05
3.49036e-07
1.02365e-05
2.39569e-06
8.05027e-06
1.1306e-06
9.33965e-06
-2.12112e-06
1.1863e-05
-2.79078e-06
1.27953e-05
-4.00706e-06
1.2977e-05
-2.45763e-06
1.32965e-05
-5.20692e-06
1.04241e-05
-4.49589e-07
5.24856e-07
1.44714e-05
-2.37765e-06
9.37783e-07
1.53832e-05
-1.57714e-06
3.02627e-06
1.38947e-05
7.08061e-07
-9.86605e-07
9.81484e-06
8.56457e-07
4.46277e-06
7.99604e-06
-2.78749e-06
5.47592e-06
1.03768e-05
-6.035e-06
3.98665e-06
1.02077e-05
-1.53472e-06
5.76793e-06
6.42182e-06
-4.85687e-06
1.28386e-05
8.62068e-06
1.13983e-05
3.73032e-05
2.73354e-06
-7.00648e-08
1.14987e-05
-1.2401e-06
6.2635e-07
8.65172e-06
-1.10295e-06
2.77982e-06
5.13954e-06
7.34517e-07
4.94554e-06
4.48903e-06
-2.37178e-06
5.34154e-06
5.38519e-06
-6.34149e-06
1.92742e-06
5.76573e-06
-7.78528e-06
2.02738e-07
1.12346e-05
-1.01141e-05
5.49129e-06
7.70175e-06
-2.55137e-06
4.40254e-06
1.73057e-05
-2.35494e-06
1.20035e-06
2.17434e-07
-1.32718e-06
1.23506e-05
2.27592e-07
3.39169e-06
1.14968e-05
4.44975e-07
3.76097e-06
9.60957e-06
-3.44181e-06
7.6233e-06
1.14893e-05
-5.10302e-06
-9.77257e-09
1.34058e-05
-7.38507e-06
-3.49208e-06
1.29167e-05
-8.24663e-06
-1.56603e-06
1.41253e-05
-1.18278e-05
-5.19133e-06
1.97035e-05
-7.22511e-06
1.76591e-06
1.69381e-05
-1.70945e-06
1.57211e-06
3.41209e-07
-1.52795e-07
2.14516e-05
-3.75597e-06
1.18354e-05
1.38263e-05
1.27415e-05
9.11162e-07
1.65359e-05
-4.04486e-06
1.93147e-05
-4.66012e-06
2.07528e-05
-3.88174e-06
1.79333e-05
-2.40442e-06
1.78343e-05
-3.02296e-06
1.57547e-05
1.85938e-06
4.65254e-06
1.51552e-05
-1.17403e-06
1.0632e-06
1.07331e-05
4.4737e-06
5.40163e-06
4.06784e-06
6.44851e-06
5.76177e-06
8.60125e-07
4.51575e-06
7.93819e-06
-3.29103e-07
-1.2486e-06
5.25499e-06
1.53024e-06
-4.08404e-06
1.12841e-06
2.31062e-06
-4.06702e-06
5.73918e-06
-1.6983e-06
6.37215e-06
1.40863e-05
3.05115e-05
1.11587e-05
2.5209e-07
1.21731e-05
1.46991e-06
9.27539e-06
-3.98254e-07
6.43424e-06
5.17757e-06
4.27427e-06
7.07706e-06
-3.8944e-06
6.13591e-06
1.43301e-05
-1.39081e-06
1.67091e-06
5.68279e-06
3.44618e-06
-2.77111e-06
-1.38707e-06
2.00822e-06
-5.1855e-06
2.74216e-06
3.24156e-06
-3.19574e-06
3.38667e-06
1.11004e-05
1.50215e-06
1.4137e-06
1.24453e-05
6.2003e-06
4.8138e-06
1.03843e-05
-1.28208e-07
1.25059e-05
-1.11954e-06
4.52761e-06
3.92889e-06
6.39693e-06
1.02153e-05
4.48851e-06
6.16033e-06
7.03926e-06
1.81134e-05
-2.15804e-06
-9.80566e-06
1.72653e-05
-4.99103e-06
-4.24087e-07
1.64747e-05
-4.31534e-06
-1.64561e-06
1.13593e-05
-4.8065e-06
1.53482e-06
9.42777e-06
5.28599e-07
4.671e-06
1.0264e-05
3.13423e-06
3.80196e-06
8.84132e-06
6.18376e-06
3.84067e-06
2.78345e-06
6.21605e-06
1.19066e-05
1.87131e-05
-4.57732e-06
2.03937e-05
-2.17446e-06
2.22802e-05
-4.87431e-06
2.34115e-05
-1.49038e-06
1.99311e-05
1.95034e-06
1.69776e-05
4.47644e-06
2.08419e-06
2.18163e-05
7.0222e-06
1.41839e-05
-1.50576e-06
1.24542e-06
1.21054e-05
4.74145e-06
6.06637e-06
7.77269e-06
7.62973e-06
6.80648e-06
5.68786e-06
4.90208e-06
1.01417e-05
1.95604e-05
-2.48127e-06
-1.02704e-05
1.19281e-05
-9.86118e-07
-4.23366e-07
1.1065e-05
-1.8487e-05
5.96372e-06
1.8131e-05
-3.06589e-07
8.4891e-07
1.67508e-05
-1.28453e-06
-3.91799e-07
-4.36222e-06
-1.73556e-06
9.99391e-06
1.54791e-06
6.14675e-06
4.32747e-06
5.82821e-06
1.16567e-05
7.81918e-06
4.82221e-06
1.36459e-05
2.07301e-05
3.02462e-06
-5.35064e-06
2.11632e-05
-1.85511e-06
-2.44638e-06
2.617e-05
-3.47278e-07
-2.90347e-06
1.42351e-05
-3.36559e-06
2.00192e-07
1.26304e-05
4.29939e-07
2.28191e-06
1.36821e-05
-6.76378e-07
3.15393e-06
-3.92237e-06
-9.33925e-07
8.51678e-06
1.76304e-06
2.84684e-06
1.19673e-05
3.98108e-06
8.61192e-06
2.33992e-05
3.94695e-06
-3.51732e-06
1.84245e-05
6.14071e-06
-7.94707e-06
2.22904e-05
3.57569e-07
-6.50271e-06
2.25443e-05
-2.64424e-06
3.97442e-07
1.68818e-05
-5.78985e-07
4.41078e-06
1.58357e-05
1.15774e-06
4.9893e-06
1.31933e-05
3.76826e-06
1.99972e-06
-1.42703e-06
4.45664e-06
2.26908e-06
3.71641e-06
1.67918e-05
-1.70901e-06
1.64541e-05
-3.99873e-06
2.44536e-05
-6.0322e-06
2.48685e-05
-1.7357e-06
2.0378e-05
1.03985e-06
1.82172e-05
4.64669e-06
7.99739e-06
1.2635e-05
8.08147e-06
1.88675e-05
-1.99946e-06
1.54518e-05
-6.35491e-06
1.87543e-05
7.44591e-07
2.55582e-05
3.1751e-06
3.23183e-05
3.8639e-06
2.15285e-05
1.16784e-05
1.78767e-05
-7.86872e-07
2.11238e-05
-5.57881e-06
2.07451e-05
-7.86206e-06
2.08357e-05
-9.47202e-06
-9.52498e-06
8.96804e-06
-9.95508e-07
1.86978e-05
2.67206e-06
3.16955e-05
3.82362e-06
2.29551e-05
7.25399e-06
2.48922e-05
7.29544e-06
2.17023e-05
-4.99844e-07
1.97132e-05
-3.38915e-06
1.9496e-05
-5.36262e-06
2.16378e-05
-8.45954e-06
-9.72839e-06
1.64497e-05
-1.05837e-06
2.7116e-05
6.1798e-07
2.44802e-05
2.94246e-06
1.84047e-05
5.38312e-06
1.60128e-05
3.1853e-06
1.69685e-05
-1.05772e-06
1.87917e-05
-8.01203e-07
1.90674e-05
-6.48687e-07
2.07756e-05
-8.16774e-06
-9.88373e-06
1.55031e-05
1.7062e-05
1.59071e-05
1.26701e-05
1.22606e-05
1.15361e-05
1.33417e-05
1.98965e-05
3.0636e-05
)
;

boundaryField
{
    inlet
    {
        type            fixedValue;
        value           nonuniform 0();
    }
    outlet
    {
        type            calculated;
        value           nonuniform 0();
    }
    bottom
    {
        type            fixedValue;
        value           uniform 0;
    }
    top
    {
        type            symmetryPlane;
        value           nonuniform List<scalar> 
40
(
-4.16363e-10
-4.90159e-10
-4.3903e-10
-5.99235e-10
-2.38174e-10
-4.87863e-10
-3.75544e-10
-4.74746e-10
-2.26819e-10
-2.99774e-10
-3.34501e-10
-6.69922e-10
-4.51518e-10
-3.39962e-10
-6.80442e-10
-8.63756e-10
-8.53859e-10
-5.68201e-10
-6.61154e-10
-4.97549e-10
-5.45072e-10
-5.89489e-10
-4.31488e-10
-3.94253e-10
-3.80663e-10
-3.50148e-10
-3.80229e-10
-4.39748e-10
-3.6636e-10
-3.45848e-10
-2.98719e-10
-5.43889e-10
-3.53501e-10
-3.5745e-10
-3.24956e-10
-3.25316e-10
-3.58405e-10
-3.80474e-10
-4.17079e-10
-5.3051e-10
)
;
    }
    side1
    {
        type            symmetryPlane;
        value           nonuniform 0();
    }
    side2
    {
        type            symmetryPlane;
        value           nonuniform 0();
    }
    procBoundary11to3
    {
        type            processor;
        value           nonuniform List<scalar> 
50
(
-2.03629e-06
-5.31471e-07
1.5716e-07
1.76551e-06
3.99336e-09
1.8264e-07
-1.0173e-06
-1.56798e-06
-4.96098e-06
2.91211e-06
1.38045e-06
-3.08467e-07
5.96943e-07
-5.1926e-07
1.80183e-06
2.73862e-06
1.32675e-06
-2.58531e-06
-1.25214e-05
-1.44171e-05
1.27674e-06
-2.42702e-06
-6.5316e-06
-4.78345e-06
2.65876e-06
5.08293e-06
3.3154e-06
-3.61093e-06
-6.31732e-06
-7.09333e-06
4.87301e-06
-3.32766e-06
-4.34172e-06
-5.02074e-06
4.13417e-06
1.01702e-05
1.91255e-05
6.47801e-06
3.30857e-06
4.86179e-06
6.86187e-06
2.01951e-06
-3.17229e-06
-4.81856e-07
-1.11581e-05
4.01579e-06
8.29586e-06
9.09e-06
8.99002e-06
8.16805e-06
)
;
    }
    procBoundary11to10
    {
        type            processor;
        value           nonuniform List<scalar> 
20
(
-8.42494e-06
-7.74521e-06
-1.29699e-05
-1.4914e-05
-1.34312e-05
-1.13272e-05
-1.8687e-05
-1.66718e-05
-1.53833e-05
-1.58591e-05
-1.29205e-05
-9.72176e-06
-1.77334e-05
-1.27601e-05
-7.05115e-06
-4.10826e-06
-1.47129e-05
-8.1802e-06
-1.35395e-05
-9.50201e-06
)
;
    }
    procBoundary11to12
    {
        type            processor;
        value           nonuniform List<scalar> 
20
(
5.17442e-06
9.87434e-06
1.1913e-05
9.67893e-06
1.65342e-05
1.92062e-05
1.41108e-05
9.9191e-06
2.38917e-05
1.30352e-05
5.4704e-06
4.19379e-06
1.94567e-05
1.40479e-05
1.2425e-05
1.49469e-05
2.04574e-05
2.09077e-05
2.53881e-05
2.87604e-05
)
;
    }
    procBoundary11to19
    {
        type            processor;
        value           nonuniform List<scalar> 
50
(
5.78124e-06
3.88862e-06
-3.83932e-06
-6.25206e-06
-7.0399e-06
-5.45483e-06
-6.1291e-06
-2.35572e-06
1.20268e-07
4.11038e-07
-4.47194e-07
-1.36937e-06
-4.12847e-06
-6.97367e-06
-8.2945e-06
-9.81007e-06
-9.0615e-06
-9.31007e-06
-1.93887e-06
2.04914e-06
-1.77787e-06
5.94119e-06
-8.4824e-07
-5.70905e-06
-6.66338e-06
-7.83801e-06
-5.68083e-06
-4.01732e-06
-1.92928e-06
4.36206e-06
2.66926e-06
3.07397e-06
3.70615e-06
1.99886e-06
-3.19589e-06
-6.84016e-07
-1.11451e-06
3.21902e-06
6.63302e-06
7.292e-07
-3.34241e-06
-2.64952e-06
9.92768e-08
2.58878e-06
1.85966e-06
7.06967e-07
2.04032e-06
5.43213e-06
-3.94842e-08
-1.00071e-05
)
;
    }
}


// ************************************************************************* //
