/*--------------------------------*- C++ -*----------------------------------*\
| =========                 |                                                 |
| \\      /  F ield         | OpenFOAM: The Open Source CFD Toolbox           |
|  \\    /   O peration     | Version:  2.4.0                                 |
|   \\  /    A nd           | Web:      www.OpenFOAM.org                      |
|    \\/     M anipulation  |                                                 |
\*---------------------------------------------------------------------------*/
FoamFile
{
    version     2.0;
    format      ascii;
    class       volVectorField;
    location    "0.02";
    object      Uc;
}
// * * * * * * * * * * * * * * * * * * * * * * * * * * * * * * * * * * * * * //

dimensions      [0 1 -1 0 0 0 0];

internalField   nonuniform List<vector> 
200
(
(4.63299e-08 3.23295e-08 1.16846e-09)
(3.50071e-07 2.0695e-07 1.21528e-08)
(1.14644e-05 6.77437e-06 3.98752e-07)
(8.19271e-07 4.70631e-07 4.06113e-08)
(1.54622e-05 8.70614e-06 9.31313e-07)
(4.76221e-07 2.66872e-07 2.87902e-08)
(2.01834e-07 7.61164e-08 1.52352e-08)
(7.16724e-09 2.54094e-09 5.66527e-10)
(2.44206e-10 1.21658e-10 3.52424e-12)
(6.08705e-12 3.54072e-12 -1.3007e-13)
(1.38741e-10 9.5925e-11 3.57942e-12)
(1.28762e-09 7.61406e-10 4.47378e-11)
(3.61839e-08 2.13862e-08 1.25933e-09)
(3.0166e-09 1.73352e-09 1.49432e-10)
(4.88512e-08 2.75064e-08 2.94223e-09)
(1.75215e-09 9.8255e-10 1.05871e-10)
(5.7919e-10 2.20568e-10 4.3536e-11)
(2.24318e-11 8.08229e-12 1.75279e-12)
(7.30027e-13 3.43714e-13 1.99706e-14)
(1.83777e-14 1.01857e-14 -1.63421e-16)
(3.49248e-13 2.39486e-13 9.18898e-15)
(3.61371e-12 2.13712e-12 1.25602e-13)
(8.89046e-11 5.2549e-11 3.09517e-12)
(8.46872e-12 4.86738e-12 4.19374e-13)
(1.20051e-10 6.75967e-11 7.23002e-12)
(4.91788e-12 2.75848e-12 2.97092e-13)
(1.40193e-12 5.38821e-13 1.04963e-13)
(5.89408e-14 2.14792e-14 4.56998e-15)
(1.90719e-15 8.60145e-16 7.0339e-17)
(4.88013e-17 2.58921e-17 9.40975e-20)
(7.78867e-16 5.30143e-16 2.08471e-17)
(8.56241e-15 5.06391e-15 2.97652e-16)
(1.8731e-13 1.10712e-13 6.52246e-15)
(2.00658e-14 1.15336e-14 9.93467e-16)
(2.52893e-13 1.42397e-13 1.52293e-14)
(1.16527e-14 6.53662e-15 7.03884e-16)
(3.01527e-15 1.16905e-15 2.24909e-16)
(1.36798e-16 5.02944e-17 1.05456e-17)
(4.4955e-18 1.96206e-18 1.97852e-19)
(1.17544e-19 5.9992e-20 1.31744e-21)
(1.56273e-10 1.08432e-10 4.22314e-12)
(1.23664e-09 7.17657e-10 5.81921e-11)
(3.67349e-08 2.10839e-08 1.96471e-09)
(7.23747e-08 2.67991e-08 1.945e-08)
(4.83943e-08 2.66873e-08 3.47002e-09)
(1.89982e-09 9.89342e-10 1.38324e-10)
(9.08842e-10 2.71557e-10 1.43245e-10)
(2.78489e-10 3.82943e-11 3.41507e-11)
(1.03752e-11 1.55489e-12 1.17549e-12)
(2.23412e-13 3.76677e-14 2.35401e-14)
(5.30407e-13 3.64286e-13 1.46935e-14)
(5.14326e-12 2.99705e-12 2.28428e-13)
(1.33536e-10 7.70236e-11 6.72781e-12)
(2.07345e-10 7.758e-11 5.48746e-11)
(1.76907e-10 9.79048e-11 1.23746e-11)
(7.49591e-12 4.01239e-12 5.20872e-13)
(2.73941e-12 8.72961e-13 3.83475e-13)
(6.92747e-13 1.02067e-13 8.42159e-14)
(2.80723e-14 4.34772e-15 3.17018e-15)
(6.59949e-16 1.1341e-16 6.9439e-17)
(1.49333e-15 1.01637e-15 4.23116e-17)
(1.61632e-14 9.43529e-15 6.99105e-16)
(3.73061e-13 2.15604e-13 1.83258e-14)
(5.01118e-13 1.89349e-13 1.30658e-13)
(4.95305e-13 2.74509e-13 3.43065e-14)
(2.29996e-14 1.24687e-14 1.56213e-15)
(7.05972e-15 2.35245e-15 9.04069e-16)
(1.53895e-15 2.4302e-16 1.85118e-16)
(6.70262e-17 1.07513e-17 7.53715e-18)
(1.70458e-18 2.99031e-19 1.78998e-19)
(3.68497e-18 2.48781e-18 1.06557e-19)
(4.24531e-17 2.48037e-17 1.81161e-18)
(8.82443e-16 5.10385e-16 4.2887e-17)
(1.07628e-15 4.1048e-16 2.76568e-16)
(1.17257e-15 6.50248e-16 8.09114e-17)
(5.96168e-17 3.25459e-17 3.99886e-18)
(1.62289e-17 5.59278e-18 1.93857e-18)
(3.14662e-18 5.31719e-19 3.73932e-19)
(1.45859e-19 2.42667e-20 1.63179e-20)
(3.98185e-21 7.13984e-22 4.17074e-22)
(2.97395e-13 2.04984e-13 8.75516e-15)
(2.46259e-12 1.40058e-12 1.48395e-13)
(6.7369e-11 3.74991e-11 4.89179e-12)
(2.34788e-10 8.6126e-11 6.39556e-11)
(8.66147e-11 4.66844e-11 7.27664e-12)
(4.14949e-12 2.0391e-12 3.43864e-13)
(2.14638e-12 5.44088e-13 4.39259e-13)
(9.92721e-13 1.26798e-13 1.24633e-13)
(4.096e-14 5.48381e-15 4.8465e-15)
(9.56888e-16 1.37778e-16 1.0836e-16)
(1.12926e-15 7.69869e-16 3.40136e-17)
(1.13722e-14 6.52396e-15 6.20405e-16)
(2.75231e-13 1.54835e-13 1.81527e-14)
(7.50792e-13 2.77179e-13 2.02677e-13)
(3.57688e-13 1.9437e-13 2.8632e-14)
(1.7499e-14 9.00381e-15 1.35654e-15)
(6.89039e-15 1.91874e-15 1.25086e-15)
(2.69327e-15 3.59738e-16 3.37467e-16)
(1.20644e-16 1.6517e-17 1.42694e-17)
(3.06084e-18 4.4702e-19 3.46606e-19)
(3.5187e-18 2.37574e-18 1.08375e-19)
(3.94688e-17 2.27317e-17 2.05008e-18)
(8.5847e-16 4.85191e-16 5.40853e-17)
(2.00093e-15 7.43233e-16 5.35395e-16)
(1.1209e-15 6.11266e-16 8.78028e-17)
(5.81927e-17 3.0625e-17 4.35101e-18)
(1.89785e-17 5.6496e-18 3.12631e-18)
(6.44938e-18 9.0331e-19 8.05382e-19)
(3.10625e-19 4.35793e-20 3.67015e-20)
(8.49476e-21 1.2601e-21 9.61517e-22)
(9.52383e-21 6.3752e-21 2.99538e-22)
(1.13663e-19 6.55969e-20 5.74745e-21)
(2.24751e-18 1.27303e-18 1.3839e-19)
(4.69274e-18 1.75337e-18 1.24479e-18)
(2.94104e-18 1.60659e-18 2.28046e-19)
(1.63628e-19 8.72161e-20 1.19787e-20)
(4.66242e-20 1.45997e-20 7.08578e-21)
(1.40791e-20 2.07123e-21 1.74994e-21)
(7.23149e-22 1.0415e-22 8.52992e-23)
(2.11801e-23 3.19512e-24 2.39537e-24)
(4.20192e-16 2.87414e-16 1.36518e-17)
(3.63927e-15 2.02635e-15 2.68854e-16)
(9.27935e-14 5.0074e-14 8.48004e-15)
(4.33158e-13 1.58361e-13 1.18537e-13)
(1.16438e-13 6.12618e-14 1.12588e-14)
(6.58344e-15 3.0852e-15 6.01933e-16)
(3.59374e-15 8.05723e-16 8.43398e-16)
(2.02299e-15 2.51227e-16 2.57392e-16)
(9.1586e-17 1.17394e-17 1.10309e-17)
(2.32155e-18 3.13611e-19 2.70014e-19)
(1.76594e-18 1.19417e-18 5.83732e-20)
(1.83956e-17 1.03823e-17 1.19548e-18)
(4.184e-16 2.29525e-16 3.3997e-17)
(1.53482e-15 5.63943e-16 4.17142e-16)
(5.33443e-16 2.84415e-16 4.81999e-17)
(2.95672e-17 1.46975e-17 2.5082e-18)
(1.23309e-17 3.08908e-18 2.59099e-18)
(5.99743e-18 7.70686e-19 7.6342e-19)
(2.93195e-19 3.82366e-20 3.53401e-20)
(8.02345e-21 1.09622e-21 9.33795e-22)
(6.03594e-21 4.04067e-21 2.03411e-22)
(6.97251e-20 3.9604e-20 4.23713e-21)
(1.43652e-18 7.94114e-19 1.09848e-19)
(4.48762e-18 1.65677e-18 1.21148e-18)
(1.84505e-18 9.89719e-19 1.61313e-19)
(1.05806e-19 5.42199e-20 8.58793e-21)
(3.62902e-20 9.85987e-21 6.94216e-21)
(1.55515e-20 2.07371e-21 1.97827e-21)
(8.14403e-22 1.08253e-22 9.81889e-23)
(2.39088e-23 3.30763e-24 2.78354e-24)
(1.77857e-23 1.18005e-23 6.1103e-25)
(2.18167e-22 1.24348e-22 1.27554e-23)
(4.11536e-21 2.28402e-21 3.0437e-22)
(1.14522e-20 4.24745e-21 3.0712e-21)
(5.30584e-21 2.8551e-21 4.55976e-22)
(3.2044e-22 1.67134e-22 2.53104e-23)
(9.51002e-23 2.7507e-23 1.67801e-23)
(3.64817e-23 5.05881e-24 4.63277e-24)
(2.03244e-24 2.75795e-25 2.44985e-25)
(6.36602e-26 8.92718e-27 7.41181e-27)
(4.91392e-19 3.33205e-19 1.77395e-20)
(4.44884e-18 2.42387e-18 3.88501e-19)
(1.06705e-16 5.58542e-17 1.16327e-17)
(5.9428e-16 2.16878e-16 1.62644e-16)
(1.30782e-16 6.71263e-17 1.42713e-17)
(8.50103e-18 3.82822e-18 8.39092e-19)
(4.82317e-18 9.83254e-19 1.22806e-18)
(3.04943e-18 3.72977e-19 3.91141e-19)
(1.50271e-19 1.88173e-20 1.8252e-20)
(4.11409e-21 5.36778e-22 4.84313e-22)
(2.26532e-21 1.51833e-21 8.24879e-23)
(2.434e-20 1.35084e-20 1.83411e-21)
(5.23857e-19 2.80293e-19 5.01911e-20)
(2.31326e-18 8.47853e-19 6.29321e-19)
(6.55479e-19 3.42734e-19 6.58579e-20)
(4.05234e-20 1.95355e-20 3.70236e-21)
(1.7684e-20 4.0685e-21 4.07048e-21)
(9.83002e-21 1.23688e-21 1.26269e-21)
(5.20224e-22 6.60869e-23 6.32586e-23)
(1.52929e-23 2.01448e-24 1.80177e-24)
(8.43013e-24 5.59246e-24 3.11291e-25)
(9.98429e-23 5.59119e-23 6.93715e-24)
(1.95799e-21 1.05898e-21 1.74716e-22)
(7.36932e-21 2.71204e-21 1.99308e-21)
(2.47464e-21 1.30541e-21 2.38216e-22)
(1.55127e-22 7.75862e-23 1.34958e-23)
(5.55102e-23 1.39853e-23 1.16951e-23)
(2.75109e-23 3.57049e-24 3.53572e-24)
(1.553e-24 2.00448e-25 1.88983e-25)
(4.87557e-26 6.49042e-27 5.74756e-27)
(2.68714e-26 1.76649e-26 1.00789e-27)
(3.36897e-25 1.8961e-25 2.22952e-26)
(6.08214e-24 3.30896e-24 5.20547e-25)
(2.03487e-23 7.51815e-24 5.4717e-24)
(7.72908e-24 4.09675e-24 7.26347e-25)
(5.03035e-25 2.57161e-25 4.23959e-26)
(1.54793e-25 4.18792e-26 3.01579e-26)
(6.9215e-26 9.28561e-27 8.89222e-27)
(4.14308e-27 5.44081e-28 5.04338e-28)
(1.3825e-28 1.86163e-29 1.6303e-29)
)
;

boundaryField
{
    inlet
    {
        type            calculated;
        value           nonuniform 0();
    }
    outlet
    {
        type            calculated;
        value           nonuniform 0();
    }
    bottom
    {
        type            calculated;
        value           uniform (0 0 0);
    }
    top
    {
        type            symmetryPlane;
    }
    side1
    {
        type            symmetryPlane;
    }
    side2
    {
        type            symmetryPlane;
    }
    procBoundary11to3
    {
        type            processor;
        value           nonuniform List<vector> 
50
(
(1.17374e-05 8.27615e-06 2.88277e-07)
(5.58401e-05 3.29787e-05 1.93309e-06)
(0.00218663 0.00129091 7.59107e-05)
(0.00013017 7.46813e-05 6.46775e-06)
(0.00293664 0.00165349 0.000176887)
(7.58748e-05 4.24209e-05 4.5953e-06)
(5.35786e-05 1.99954e-05 4.06305e-06)
(1.74874e-06 6.03097e-07 1.41037e-07)
(6.77653e-08 3.63429e-08 -2.24196e-10)
(1.68366e-09 1.03175e-09 -5.97271e-11)
(3.43584e-08 2.41169e-08 9.04998e-10)
(1.75114e-07 1.00266e-07 9.75077e-09)
(6.0995e-06 3.4434e-06 3.88664e-07)
(1.92495e-05 7.04846e-06 5.25546e-06)
(7.8847e-06 4.2956e-06 6.12031e-07)
(3.1777e-07 1.52608e-07 2.60031e-08)
(2.3955e-07 6.43702e-08 4.46434e-08)
(9.4966e-08 1.22208e-08 1.1721e-08)
(3.20496e-09 4.66153e-10 3.63913e-10)
(6.25218e-11 1.03613e-11 6.59277e-12)
(5.76762e-11 4.02496e-11 1.6657e-12)
(3.17676e-10 1.75927e-10 2.46826e-11)
(1.00857e-08 5.43521e-09 9.33619e-10)
(5.50918e-08 2.00704e-08 1.51465e-08)
(1.25417e-08 6.58653e-09 1.20769e-09)
(6.93218e-10 3.03173e-10 6.57325e-11)
(5.37768e-10 1.17763e-10 1.28184e-10)
(3.05897e-10 3.75096e-11 3.84221e-11)
(1.1492e-11 1.50825e-12 1.35937e-12)
(2.45038e-13 3.48375e-14 2.77376e-14)
(7.28498e-14 5.0473e-14 2.34929e-15)
(4.35696e-13 2.33247e-13 4.32899e-14)
(1.28121e-11 6.60172e-12 1.52726e-12)
(9.0607e-11 3.29457e-11 2.49711e-11)
(1.53587e-11 7.76546e-12 1.7643e-12)
(1.07412e-12 4.40669e-13 1.11822e-13)
(8.44807e-13 1.60712e-13 2.26369e-13)
(5.64246e-13 6.79534e-14 7.16766e-14)
(2.34348e-14 2.95815e-15 2.81904e-15)
(5.46232e-16 7.30481e-17 6.34699e-17)
(7.70098e-17 5.28922e-17 2.80407e-18)
(5.00891e-16 2.59419e-16 5.9886e-17)
(1.37856e-14 6.81566e-15 1.96355e-15)
(1.12041e-13 4.06938e-14 3.08539e-14)
(1.59872e-14 7.78656e-15 2.11336e-15)
(1.33957e-15 5.24471e-16 1.48872e-16)
(1.06032e-15 1.82062e-16 3.03253e-16)
(7.75378e-16 9.24667e-17 9.92188e-17)
(3.53006e-17 4.36442e-18 4.28102e-18)
(8.94519e-19 1.15722e-19 1.0519e-19)
)
;
    }
    procBoundary11to10
    {
        type            processor;
        value           nonuniform List<vector> 
20
(
(1.2659e-09 8.93992e-10 3.09755e-11)
(4.18757e-12 2.94395e-12 1.03667e-13)
(1.14884e-14 8.04283e-15 2.87445e-16)
(2.76354e-17 1.92716e-17 6.98243e-19)
(4.80338e-12 3.38452e-12 1.21151e-13)
(1.76443e-14 1.23707e-14 4.50665e-16)
(5.32632e-17 3.7171e-17 1.37733e-18)
(1.39888e-19 9.72017e-20 3.6603e-21)
(1.01088e-14 7.10432e-15 2.64806e-16)
(4.08596e-17 2.85617e-17 1.08368e-18)
(1.34682e-19 9.36723e-20 3.61961e-21)
(3.83682e-22 2.65596e-22 1.04479e-23)
(1.55785e-17 1.09159e-17 4.26882e-19)
(6.87475e-20 4.78978e-20 1.90462e-21)
(2.45797e-22 1.7033e-22 6.90042e-24)
(7.55183e-25 5.20676e-25 2.14943e-26)
(1.96459e-20 1.37199e-20 5.6556e-22)
(9.40285e-23 6.52753e-23 2.7292e-24)
(3.62585e-25 2.50279e-25 1.06534e-26)
(1.19553e-27 8.20813e-28 3.56033e-29)
)
;
    }
    procBoundary11to12
    {
        type            processor;
        value           nonuniform List<vector> 
20
(
(6.94931e-12 3.794e-12 1.93623e-13)
(1.82058e-14 1.00453e-14 5.13806e-16)
(4.21337e-17 2.34063e-17 1.19998e-18)
(8.88673e-20 4.959e-20 2.54975e-21)
(3.16787e-14 1.59847e-14 1.16336e-15)
(9.21679e-17 4.66434e-17 3.49117e-18)
(2.34847e-19 1.18788e-19 9.13622e-21)
(5.41416e-22 2.73167e-22 2.15778e-23)
(8.00438e-17 3.72139e-17 3.62475e-18)
(2.56039e-19 1.1869e-19 1.20147e-20)
(7.11952e-22 3.28094e-22 3.44577e-23)
(1.77988e-24 8.14088e-25 8.85789e-26)
(1.47663e-19 6.32263e-20 7.86617e-21)
(5.14826e-22 2.18859e-22 2.84022e-23)
(1.55033e-24 6.52717e-25 8.81645e-26)
(4.17441e-27 1.7384e-27 2.43933e-28)
(2.21943e-22 8.76428e-23 1.3403e-23)
(8.37299e-25 3.273e-25 5.22208e-26)
(2.71315e-27 1.04772e-27 1.73992e-28)
(7.82323e-30 2.98171e-30 5.14306e-31)
)
;
    }
    procBoundary11to19
    {
        type            processor;
        value           nonuniform List<vector> 
50
(
(1.58528e-18 1.07199e-18 4.30618e-20)
(1.80409e-17 1.06692e-17 6.272e-19)
(3.5526e-16 2.09969e-16 1.23727e-17)
(4.22706e-17 2.42967e-17 2.09256e-18)
(4.79492e-16 2.6999e-16 2.88729e-17)
(2.45485e-17 1.37707e-17 1.48281e-18)
(5.94269e-18 2.32316e-18 4.41674e-19)
(2.89253e-19 1.07127e-19 2.21962e-20)
(9.76725e-21 4.157e-21 4.8287e-22)
(2.61859e-22 1.29158e-22 5.00584e-24)
(8.21725e-21 5.50898e-21 2.41732e-22)
(9.81613e-20 5.73773e-20 4.15477e-21)
(1.85837e-18 1.07508e-18 8.99552e-20)
(2.11823e-18 8.15025e-19 5.36665e-19)
(2.47015e-18 1.37006e-18 1.70332e-19)
(1.36858e-19 7.503e-20 9.1128e-21)
(3.41845e-20 1.21003e-20 3.86082e-21)
(6.03635e-21 1.08842e-21 7.0781e-22)
(2.95431e-22 5.1018e-23 3.28555e-23)
(8.59892e-24 1.57707e-24 8.98027e-25)
(2.30921e-23 1.53462e-23 7.38699e-25)
(2.85845e-22 1.6517e-22 1.42018e-23)
(5.19461e-21 2.94554e-21 3.15974e-22)
(1.00042e-20 3.75898e-21 2.63121e-21)
(6.80706e-21 3.72132e-21 5.25568e-22)
(4.06266e-22 2.18266e-22 2.93565e-23)
(1.04776e-22 3.41547e-23 1.48767e-23)
(2.86123e-23 4.4242e-24 3.53546e-24)
(1.55633e-24 2.30424e-25 1.83157e-25)
(4.85403e-26 7.45311e-27 5.48339e-27)
(4.65819e-26 3.06811e-26 1.62374e-27)
(5.92244e-25 3.38317e-25 3.37113e-26)
(1.03407e-23 5.75224e-24 7.49421e-25)
(2.63824e-23 9.82797e-24 7.02937e-24)
(1.33685e-23 7.20556e-24 1.13872e-24)
(8.54988e-25 4.50954e-25 6.6357e-26)
(2.27432e-25 6.917e-26 3.74058e-26)
(7.91529e-26 1.1431e-26 1.00242e-26)
(4.66312e-27 6.46852e-28 5.61684e-28)
(1.55067e-28 2.20589e-29 1.80504e-29)
(7.55907e-29 4.93356e-29 2.86436e-30)
(9.80967e-28 5.53983e-28 6.26663e-29)
(1.64867e-26 9.00261e-27 1.37282e-27)
(5.04237e-26 1.86998e-26 1.34822e-26)
(2.10397e-26 1.11822e-26 1.95013e-27)
(1.43457e-27 7.43784e-28 1.18353e-28)
(3.92902e-28 1.1263e-28 7.14038e-29)
(1.60178e-28 2.22502e-29 2.0553e-29)
(1.0114e-29 1.35303e-30 1.23111e-30)
(3.57173e-31 4.86821e-32 4.21246e-32)
)
;
    }
}


// ************************************************************************* //
