/*--------------------------------*- C++ -*----------------------------------*\
| =========                 |                                                 |
| \\      /  F ield         | OpenFOAM: The Open Source CFD Toolbox           |
|  \\    /   O peration     | Version:  2.4.0                                 |
|   \\  /    A nd           | Web:      www.OpenFOAM.org                      |
|    \\/     M anipulation  |                                                 |
\*---------------------------------------------------------------------------*/
FoamFile
{
    version     2.0;
    format      ascii;
    class       volScalarField;
    location    "0.09";
    object      alpha;
}
// * * * * * * * * * * * * * * * * * * * * * * * * * * * * * * * * * * * * * //

dimensions      [0 0 0 0 0 0 0];

internalField   nonuniform List<scalar> 
200
(
7.48537e-117
4.19079e-119
2.43597e-121
1.44307e-123
8.59653e-126
5.10738e-128
3.01284e-130
1.76101e-132
1.01922e-134
5.84157e-137
4.07488e-119
2.19896e-121
1.20516e-123
6.71913e-126
3.80397e-128
2.17857e-130
1.25662e-132
7.2704e-135
4.20531e-137
2.4258e-139
1.9288e-121
1.0634e-123
5.85432e-126
3.2315e-128
1.7936e-130
1.00249e-132
5.64354e-135
3.19717e-137
1.81999e-139
1.03912e-141
8.35576e-124
4.72884e-126
2.65823e-128
1.48769e-130
8.3086e-133
4.64036e-135
2.59597e-137
1.45627e-139
8.19591e-142
4.62741e-144
1.71538e-118
9.7717e-121
5.779e-123
3.48251e-125
2.10977e-127
1.27433e-129
7.64008e-132
4.53722e-134
2.66734e-136
1.55239e-138
9.51105e-121
5.21917e-123
2.90818e-125
1.64821e-127
9.48388e-130
5.51938e-132
3.23445e-134
1.90079e-136
1.11647e-138
6.53846e-141
4.58133e-123
2.56781e-125
1.43678e-127
8.05874e-130
4.5441e-132
2.57976e-134
1.47483e-136
8.48337e-139
4.90229e-141
2.84077e-143
2.01884e-125
1.16125e-127
6.63292e-130
3.77098e-132
2.13895e-134
1.213e-136
6.88894e-139
3.92244e-141
2.24023e-143
1.28332e-145
2.01591e-120
1.16825e-122
7.02833e-125
4.30773e-127
2.65359e-129
1.62928e-131
9.92642e-134
5.98879e-136
3.57569e-138
2.11301e-140
1.13822e-122
6.35039e-125
3.59706e-127
2.07205e-129
1.21162e-131
7.16449e-134
4.26503e-136
2.54558e-138
1.51821e-140
9.02584e-143
5.57834e-125
3.17814e-127
1.80713e-129
1.02982e-131
5.89856e-134
3.40097e-136
1.9743e-138
1.15294e-140
6.76275e-143
3.97706e-145
2.50012e-127
1.46144e-129
8.4809e-132
4.89744e-134
2.82095e-136
1.62422e-138
9.36354e-141
5.41085e-143
3.13577e-145
1.82243e-147
1.61024e-122
9.49055e-125
5.80672e-127
3.6189e-129
2.26621e-131
1.41408e-133
8.75301e-136
5.36371e-138
3.25185e-140
1.95075e-142
9.25559e-125
5.24897e-127
3.02166e-129
1.76872e-131
1.0508e-133
6.31187e-136
3.81618e-138
2.31278e-140
1.40031e-142
8.44939e-145
4.6141e-127
2.67146e-129
1.54331e-131
8.93348e-134
5.19661e-136
3.04237e-138
1.793e-140
1.06281e-142
6.32671e-145
3.7752e-147
2.10272e-129
1.2488e-131
7.36112e-134
4.31675e-136
2.52449e-138
1.47545e-140
8.63257e-143
5.06181e-145
2.97611e-147
1.75447e-149
9.86946e-125
5.91495e-127
3.67988e-129
2.33158e-131
1.48402e-133
9.40931e-136
5.91643e-138
3.68186e-140
2.26629e-142
1.37995e-144
5.77404e-127
3.32789e-129
1.94666e-131
1.15769e-133
6.98685e-136
4.26259e-138
2.61708e-140
1.6103e-142
9.89654e-145
6.06005e-147
2.92741e-129
1.72213e-131
1.01063e-133
5.94139e-136
3.50944e-138
2.08595e-140
1.24788e-142
7.50718e-145
4.53471e-147
2.74527e-149
1.35625e-131
8.18236e-134
4.89834e-136
2.91666e-138
1.73154e-140
1.02714e-142
6.0983e-145
3.62796e-147
2.16381e-149
1.29378e-151
)
;

boundaryField
{
    inlet
    {
        type            zeroGradient;
    }
    outlet
    {
        type            zeroGradient;
    }
    bottom
    {
        type            fixedValue;
        value           uniform 0;
    }
    top
    {
        type            symmetryPlane;
    }
    side1
    {
        type            symmetryPlane;
    }
    side2
    {
        type            symmetryPlane;
    }
    procBoundary28to20
    {
        type            processor;
        value           nonuniform List<scalar> 
50
(
1.08629e-113
5.88642e-116
3.1709e-118
1.69946e-120
9.07148e-123
4.8276e-125
2.56387e-127
1.36002e-129
7.21081e-132
3.82312e-134
2.47487e-115
1.3644e-117
7.4753e-120
4.07374e-122
2.21045e-124
1.19548e-126
6.4508e-129
3.47593e-131
1.87163e-133
1.00756e-135
2.89169e-117
1.62161e-119
9.03484e-122
5.00558e-124
2.76057e-126
1.51709e-128
8.31639e-131
4.55142e-133
2.48862e-135
1.36015e-137
2.29666e-119
1.30974e-121
7.41882e-124
4.17765e-126
2.34116e-128
1.30707e-130
7.2774e-133
4.04438e-135
2.24511e-137
1.24553e-139
1.39978e-121
8.11632e-124
4.67309e-126
2.67417e-128
1.52255e-130
8.63422e-133
4.88193e-135
2.75466e-137
1.55228e-139
8.74014e-142
)
;
    }
    procBoundary28to27
    {
        type            processor;
        value           nonuniform List<scalar> 
20
(
7.60674e-114
2.77695e-116
1.00908e-118
3.74505e-121
1.73193e-115
6.42863e-118
2.37481e-120
8.96039e-123
2.02237e-117
7.63121e-120
2.86541e-122
1.09897e-124
1.60524e-119
6.15617e-122
2.34899e-124
9.15543e-127
9.77786e-122
3.81041e-124
1.4772e-126
5.85007e-129
)
;
    }
    procBoundary28to29
    {
        type            processor;
        value           nonuniform List<scalar> 
20
(
4.13198e-140
2.51008e-142
1.33608e-144
6.53723e-147
1.10226e-141
6.80005e-144
3.67404e-146
1.82427e-148
1.50598e-143
9.43416e-146
5.17348e-148
2.60662e-150
1.39549e-145
8.87527e-148
4.93889e-150
2.52463e-152
9.90768e-148
6.39653e-150
3.61169e-152
1.87287e-154
)
;
    }
}


// ************************************************************************* //
