/*--------------------------------*- C++ -*----------------------------------*\
| =========                 |                                                 |
| \\      /  F ield         | OpenFOAM: The Open Source CFD Toolbox           |
|  \\    /   O peration     | Version:  2.4.0                                 |
|   \\  /    A nd           | Web:      www.OpenFOAM.org                      |
|    \\/     M anipulation  |                                                 |
\*---------------------------------------------------------------------------*/
FoamFile
{
    version     2.0;
    format      ascii;
    class       volVectorField;
    location    "0.09";
    object      gradp;
}
// * * * * * * * * * * * * * * * * * * * * * * * * * * * * * * * * * * * * * //

dimensions      [1 -2 -2 0 0 0 0];

internalField   nonuniform List<vector> 
200
(
(7.16399e+15 1.75256e+16 1.22444e+15)
(1.24664e+16 2.02061e+16 1.04925e+15)
(4.74582e+15 1.93567e+16 -1.60298e+15)
(-1.91446e+16 1.9926e+16 -7.24485e+14)
(-2.16919e+16 3.37284e+16 1.44473e+15)
(-1.59135e+16 5.12218e+16 -3.71505e+15)
(-7.25859e+15 6.54451e+16 -8.44622e+15)
(3.72611e+16 1.0214e+17 -1.5017e+16)
(7.00836e+16 1.40657e+17 -3.14372e+16)
(7.5741e+16 1.42528e+17 -4.97139e+16)
(8.76141e+15 5.82593e+15 1.73441e+15)
(8.82952e+15 4.27294e+15 2.04865e+15)
(8.04982e+15 2.93104e+14 4.31842e+15)
(3.60861e+15 5.68024e+13 7.77103e+15)
(4.34422e+15 9.35735e+15 7.77464e+15)
(1.13524e+16 4.72842e+15 -5.07537e+15)
(3.01321e+16 3.34673e+15 -1.20531e+16)
(9.03241e+16 3.21658e+15 -9.65331e+15)
(9.47487e+16 -1.39275e+16 -5.09262e+16)
(3.74082e+16 -3.21808e+16 -7.13836e+16)
(3.24822e+15 -5.42553e+15 1.34148e+15)
(1.40077e+15 -1.00226e+16 1.66577e+15)
(-3.68646e+15 -1.6552e+16 2.78916e+15)
(-1.01615e+15 -2.44692e+16 1.28462e+16)
(-1.23487e+16 -3.28483e+16 -9.96304e+15)
(-2.79347e+16 -4.75523e+16 -2.43335e+16)
(-1.02823e+16 -6.61153e+16 -1.87099e+16)
(2.71268e+15 -9.94299e+16 -2.97389e+16)
(-7.11267e+14 -1.55787e+17 -3.35898e+16)
(-3.17708e+16 -2.0586e+17 -6.48579e+16)
(-7.21191e+15 -5.38014e+15 -8.468e+14)
(-1.34234e+16 -7.68041e+15 -2.74961e+15)
(-2.08434e+16 -1.27922e+16 -4.28545e+15)
(-2.89841e+16 -1.62589e+16 -7.00724e+15)
(-4.18219e+16 -2.67762e+16 -1.6729e+16)
(-5.51816e+16 -3.09955e+16 -2.38715e+16)
(-7.36231e+16 -4.03996e+16 -3.90949e+16)
(-8.90187e+16 -6.26659e+16 -6.0826e+16)
(-1.18111e+17 -8.62653e+16 -9.353e+16)
(-1.59852e+17 -1.21366e+17 -1.26149e+17)
(6.32913e+15 1.89479e+16 1.10279e+16)
(3.41869e+15 2.40457e+16 1.68318e+16)
(-9.3014e+14 3.44431e+16 1.50656e+16)
(-9.39198e+15 4.89763e+16 1.02888e+16)
(-3.12617e+16 5.82915e+16 5.38862e+15)
(-4.75645e+16 5.65883e+16 1.16205e+15)
(-4.34247e+16 6.8876e+16 7.07757e+15)
(-3.63101e+16 1.22391e+17 8.50933e+15)
(-4.09466e+16 1.28514e+17 9.98159e+15)
(1.14414e+16 1.53968e+17 2.22029e+16)
(1.1622e+16 6.01321e+15 1.43136e+16)
(1.70983e+16 5.25937e+15 1.41533e+16)
(2.63614e+16 7.32053e+15 1.33107e+16)
(1.46685e+16 2.177e+16 1.1713e+16)
(-3.67642e+16 -8.89507e+15 3.22056e+15)
(-5.20963e+16 -2.82611e+16 1.86595e+15)
(1.54827e+16 -1.30751e+16 2.00499e+16)
(-3.40699e+16 -2.03386e+16 3.92046e+16)
(-1.02788e+17 -1.73717e+16 8.61863e+16)
(-6.04759e+16 -5.64113e+16 1.28985e+17)
(4.21038e+15 -9.55547e+15 8.36014e+15)
(6.03333e+15 -1.76998e+16 9.86541e+15)
(3.2091e+16 -3.03182e+16 1.30087e+16)
(-4.18232e+16 -4.81144e+16 -4.33647e+15)
(-1.31324e+17 -7.20541e+16 -1.90926e+16)
(-5.59245e+16 -7.76261e+16 1.23478e+16)
(-2.75797e+16 -1.09382e+17 2.45222e+16)
(-4.49033e+16 -1.81306e+17 9.2759e+16)
(-1.13092e+17 -2.23953e+17 1.24632e+17)
(-2.37712e+17 -2.93485e+17 -5.75285e+16)
(-1.44524e+16 -8.8814e+15 4.24566e+15)
(-2.44271e+16 -1.4745e+16 2.31394e+15)
(-3.44678e+16 -2.41116e+16 5.83428e+14)
(-6.88034e+16 -4.80244e+16 -8.10961e+15)
(-9.57875e+16 -3.76017e+16 -1.14127e+16)
(-1.26752e+17 -3.02563e+16 -2.27874e+16)
(-1.91877e+17 -7.30156e+16 -4.96473e+16)
(-2.63211e+17 -1.12405e+17 -1.02193e+17)
(-3.27146e+17 -1.8217e+17 -1.88902e+17)
(-5.61636e+17 -2.19432e+17 -3.99309e+17)
(3.54048e+16 2.31601e+16 3.25987e+16)
(2.53868e+16 2.85535e+16 4.2219e+16)
(-1.61916e+16 2.24884e+16 4.91531e+16)
(-5.01108e+16 2.57494e+16 5.40187e+16)
(-5.08976e+16 2.96251e+16 7.39432e+16)
(-1.05088e+16 4.52698e+16 1.02324e+17)
(1.62527e+16 8.23127e+16 1.27327e+17)
(4.6554e+16 1.29815e+17 1.98211e+17)
(1.13903e+17 2.63661e+17 2.77309e+17)
(4.50595e+17 4.05297e+17 2.86718e+17)
(2.08683e+16 1.55744e+15 2.136e+16)
(5.62038e+15 -6.87323e+15 2.68314e+16)
(2.40657e+14 -2.99783e+15 3.32135e+16)
(-2.86799e+16 -2.33437e+16 5.48877e+16)
(-2.71662e+16 -2.98126e+16 9.28136e+16)
(6.52064e+16 2.26256e+16 8.33736e+16)
(1.49616e+17 3.12582e+16 5.43315e+16)
(3.0196e+17 1.38016e+17 6.05679e+16)
(3.82045e+17 1.69514e+17 1.85878e+17)
(-8.97535e+16 -1.59751e+17 1.21048e+17)
(9.24553e+15 -2.15342e+16 2.05375e+16)
(1.62763e+16 -2.89657e+16 2.45723e+16)
(-4.91325e+16 -3.69157e+16 2.93055e+16)
(-1.0374e+17 -5.61853e+16 2.89302e+16)
(4.1041e+16 -5.62616e+16 6.7578e+16)
(1.11633e+17 -8.69977e+16 7.66028e+16)
(2.47034e+17 -1.77631e+17 7.43449e+16)
(3.23065e+17 -3.25667e+17 1.46089e+17)
(-4.81631e+17 -5.95928e+17 1.18128e+17)
(-1.11054e+18 -1.05113e+18 1.66243e+17)
(-1.50051e+16 -1.19633e+16 2.15806e+16)
(-2.51425e+16 -1.97628e+16 2.74367e+16)
(-5.41987e+16 -3.26727e+16 3.4799e+16)
(-6.73718e+16 -2.22959e+16 4.03138e+16)
(-8.8791e+16 -1.44884e+16 5.02988e+16)
(-1.77532e+17 -8.72119e+16 5.03041e+16)
(-3.27722e+17 -1.59071e+17 3.62467e+16)
(-5.34634e+17 -3.7459e+17 3.32182e+16)
(-1.06888e+18 -5.8792e+17 1.6704e+16)
(-1.66299e+18 -6.68214e+17 -1.43872e+17)
(8.26384e+16 2.60672e+16 1.57468e+16)
(5.63928e+16 1.25989e+16 2.84008e+16)
(3.68292e+16 4.9174e+15 4.46539e+16)
(6.99365e+16 3.52089e+16 6.0141e+16)
(1.23315e+17 8.60116e+16 8.43648e+16)
(1.23264e+17 2.64602e+16 1.2222e+17)
(2.63416e+17 -7.94598e+16 1.55905e+17)
(4.4363e+17 -8.59577e+16 1.78462e+17)
(2.42274e+17 -1.39832e+16 2.60897e+17)
(-2.6994e+17 -1.88889e+17 3.09912e+17)
(3.21781e+16 -1.32847e+16 1.73276e+16)
(5.50295e+16 -2.29753e+16 2.8744e+16)
(1.16142e+17 -2.44356e+16 4.08634e+16)
(2.05389e+17 -1.83717e+16 6.26197e+16)
(5.43907e+16 -1.90795e+16 9.73507e+16)
(-1.75239e+17 -6.94147e+16 1.31331e+17)
(-5.74955e+16 -9.78468e+16 1.51154e+17)
(3.86879e+17 -1.03734e+17 1.58941e+17)
(9.07488e+16 -2.7206e+17 1.36726e+17)
(-8.78638e+16 -2.49172e+17 1.43759e+17)
(3.24636e+16 -9.20254e+15 2.71788e+16)
(3.40911e+16 -1.67314e+16 3.60631e+16)
(4.60365e+16 -2.77814e+16 4.57397e+16)
(8.06487e+16 -7.14327e+16 7.25343e+16)
(2.12284e+16 -1.40078e+17 1.00026e+17)
(-3.42704e+16 -1.30537e+17 9.17818e+16)
(1.94776e+17 -1.38318e+17 1.12687e+17)
(9.52036e+16 -2.25066e+17 8.63462e+16)
(-4.8601e+16 -4.94631e+17 1.03876e+17)
(4.03672e+17 -7.17357e+17 2.56246e+17)
(1.78862e+16 -7.2124e+15 3.41813e+16)
(1.78718e+16 -1.01619e+16 4.81922e+16)
(6.73902e+15 -1.5322e+16 5.99805e+16)
(-1.92039e+16 -2.98107e+16 7.94474e+16)
(-6.38186e+16 -6.52483e+16 9.42588e+16)
(-1.71719e+17 -7.23342e+16 1.18941e+17)
(-2.46552e+17 -1.33973e+17 1.61395e+17)
(-3.25748e+17 -2.92999e+17 2.2787e+17)
(-8.93834e+17 -3.44448e+17 3.25776e+17)
(-1.34968e+18 -7.15615e+17 5.32831e+17)
(9.39174e+16 4.41191e+16 -7.04834e+15)
(1.1789e+17 4.23341e+16 1.96435e+15)
(8.5377e+16 3.95514e+16 1.21694e+16)
(7.69638e+16 4.8856e+16 1.71355e+16)
(1.47755e+17 6.75524e+16 1.43654e+16)
(2.1842e+17 8.12689e+16 2.47733e+16)
(1.96226e+17 1.41056e+17 4.41015e+16)
(3.82529e+17 2.62137e+17 3.77659e+15)
(5.34545e+17 3.84086e+17 2.50075e+16)
(7.88835e+16 7.19535e+17 9.51113e+16)
(7.40814e+16 1.98485e+16 8.54681e+15)
(8.09347e+16 5.38654e+15 1.40173e+16)
(1.08643e+17 -1.26061e+15 1.66422e+16)
(1.52079e+17 -3.51433e+15 1.16739e+16)
(1.92711e+17 -4.75457e+15 -1.70701e+13)
(2.37377e+17 -2.60754e+16 5.48989e+16)
(2.37966e+17 -3.78911e+16 1.28925e+17)
(2.55792e+17 -9.36867e+15 1.47231e+17)
(3.33463e+17 -8.17208e+16 8.79606e+16)
(-4.73053e+16 -2.45618e+17 2.23079e+17)
(6.21401e+16 5.43162e+15 1.366e+16)
(7.56712e+16 2.15157e+15 1.96905e+16)
(6.75753e+16 -6.3283e+15 2.66537e+16)
(6.99759e+16 -2.92609e+16 2.64214e+16)
(1.02633e+17 -6.12085e+16 2.33185e+16)
(1.52147e+17 -1.06821e+17 5.18603e+16)
(2.2964e+17 -1.61245e+17 8.15738e+16)
(2.9487e+17 -2.1538e+17 6.27551e+16)
(6.20463e+16 -2.93448e+17 1.4397e+17)
(-2.1547e+17 -4.28614e+17 9.73324e+16)
(5.94777e+16 -7.5928e+14 1.76932e+16)
(5.74149e+16 -3.56203e+14 2.58191e+16)
(4.5818e+16 -9.88745e+15 3.00504e+16)
(4.23189e+16 -1.12349e+16 3.80313e+16)
(3.75898e+16 -2.3716e+16 4.92762e+16)
(3.73043e+16 -4.37565e+16 6.97214e+16)
(2.085e+16 -8.11371e+16 1.14596e+17)
(-8.61532e+15 -1.48151e+17 1.53285e+17)
(-9.30061e+16 -2.3288e+17 2.137e+17)
(-3.16604e+17 -2.25678e+17 4.03543e+17)
)
;

boundaryField
{
    inlet
    {
        type            zeroGradient;
    }
    outlet
    {
        type            zeroGradient;
    }
    bottom
    {
        type            zeroGradient;
    }
    top
    {
        type            symmetryPlane;
    }
    side1
    {
        type            symmetryPlane;
    }
    side2
    {
        type            symmetryPlane;
    }
    procBoundary28to20
    {
        type            processor;
        value           nonuniform List<vector> 
50
(
(-1.97388e+15 2.86496e+16 8.45479e+14)
(5.16741e+15 3.59393e+16 -3.51146e+14)
(8.61001e+15 3.80311e+16 -5.11063e+15)
(-2.51348e+16 3.15023e+16 -1.03854e+16)
(-5.82473e+16 2.63987e+16 -7.57733e+15)
(-5.2081e+16 4.45109e+16 -8.42946e+15)
(-7.17035e+16 6.10621e+16 -1.41974e+16)
(-6.00991e+16 1.00582e+17 -2.23107e+16)
(1.39724e+16 1.6407e+17 -4.33373e+16)
(-2.00717e+16 2.42293e+17 -7.85339e+16)
(-7.89688e+15 2.48377e+16 1.0792e+16)
(-1.38921e+16 3.43443e+16 8.93618e+15)
(-2.34997e+16 4.12548e+16 1.13534e+16)
(-3.30283e+16 4.76808e+16 8.07333e+15)
(-5.19882e+16 5.44381e+16 5.7851e+15)
(-7.32653e+16 5.986e+16 5.58589e+15)
(-1.16123e+17 7.34615e+16 9.50771e+15)
(-1.53347e+17 1.19094e+17 2.19075e+16)
(-1.65942e+17 1.94709e+17 9.30884e+15)
(-9.6492e+16 3.06691e+17 -3.52458e+16)
(6.16337e+15 4.87666e+16 1.69104e+16)
(6.96377e+15 5.92242e+16 3.39857e+16)
(5.84889e+15 6.2463e+16 5.16671e+16)
(-4.29533e+16 5.42247e+16 6.34924e+16)
(-6.62071e+16 4.42623e+16 7.54886e+16)
(-4.01687e+16 4.92418e+16 1.02204e+17)
(-1.94744e+16 6.70844e+16 1.47041e+17)
(-6.07355e+16 9.62814e+16 1.90786e+17)
(-1.68918e+17 1.78098e+17 2.74939e+17)
(-7.52968e+15 1.67351e+17 3.35334e+17)
(4.41704e+16 8.81631e+16 4.22831e+15)
(9.73291e+16 7.4699e+16 2.01311e+16)
(7.09216e+16 6.79927e+16 3.0199e+16)
(4.32007e+16 5.72886e+16 4.81781e+16)
(7.1888e+16 6.36653e+16 7.36461e+16)
(1.55704e+17 6.51633e+16 1.08832e+17)
(1.6734e+17 7.38963e+16 1.14439e+17)
(2.55926e+17 1.74472e+17 7.62394e+16)
(2.9661e+17 1.77637e+17 6.146e+16)
(-1.48962e+17 4.84278e+17 -5.26398e+16)
(7.4248e+16 5.91165e+16 -2.7356e+15)
(9.007e+16 7.55065e+16 -4.56723e+15)
(9.55991e+16 8.31157e+16 -5.00408e+15)
(9.60773e+16 9.05973e+16 3.14447e+15)
(1.27885e+17 5.68733e+16 1.15199e+16)
(9.03696e+16 5.51747e+16 2.06435e+16)
(-1.2377e+17 1.74155e+17 -8.897e+15)
(-2.30269e+17 1.97773e+17 -7.03285e+16)
(-5.81332e+17 8.96606e+17 -1.60833e+17)
(-1.2915e+18 2.06958e+18 -3.44685e+17)
)
;
    }
    procBoundary28to27
    {
        type            processor;
        value           nonuniform List<vector> 
20
(
(5.90353e+15 1.48384e+16 1.31014e+15)
(8.04184e+15 6.23082e+15 1.1547e+15)
(3.75929e+15 -2.03596e+15 1.36509e+15)
(-3.15671e+15 -2.45034e+15 -4.86967e+14)
(6.2935e+15 1.42863e+16 8.00652e+15)
(9.66839e+15 6.31874e+15 1.03699e+16)
(6.11639e+15 -4.66263e+15 7.99125e+15)
(-6.10393e+15 -5.41364e+15 4.74931e+15)
(1.81337e+16 2.12011e+16 1.83723e+16)
(2.89849e+16 6.20639e+15 2.04076e+16)
(1.11365e+16 -1.1029e+16 1.57431e+16)
(-4.61316e+15 -7.63746e+15 1.73309e+16)
(8.14422e+16 1.8595e+16 1.01156e+16)
(2.94184e+16 2.11205e+15 1.21149e+16)
(3.13984e+16 -9.5854e+15 1.95336e+16)
(2.04506e+16 -2.87322e+15 2.49164e+16)
(5.31692e+16 4.24173e+16 -1.56034e+15)
(5.43092e+16 2.12752e+16 9.22481e+14)
(5.31972e+16 9.45345e+15 1.04166e+16)
(4.71087e+16 9.75009e+14 1.28218e+16)
)
;
    }
    procBoundary28to29
    {
        type            processor;
        value           nonuniform List<vector> 
20
(
(1.60172e+17 1.69397e+17 -5.15308e+16)
(-5.06505e+15 -6.76833e+16 -8.1515e+16)
(-4.17187e+16 -2.54417e+17 -9.79464e+16)
(-1.87695e+17 -1.50306e+17 -2.19087e+17)
(1.69246e+17 1.46523e+17 1.27124e+17)
(-1.58255e+17 -1.41948e+17 4.64482e+16)
(-4.26149e+17 -4.74533e+17 -2.12483e+17)
(-1.20247e+18 -3.44132e+17 -6.58632e+17)
(2.28084e+17 2.22549e+17 1.89377e+17)
(-5.08905e+17 -6.11054e+17 1.77319e+17)
(9.44235e+15 -1.38254e+18 3.18561e+17)
(-2.59854e+18 -8.64143e+17 -2.29559e+17)
(-2.59744e+17 1.65661e+16 1.44737e+17)
(7.2774e+17 6.47463e+16 1.49991e+17)
(1.60019e+18 -1.12554e+18 3.83585e+17)
(-1.5967e+18 -1.22112e+18 7.46521e+17)
(-5.27813e+17 1.00619e+18 1.34015e+17)
(-2.21257e+17 -2.28898e+17 1.00635e+17)
(-3.2223e+16 -4.28097e+17 -4.95125e+16)
(-9.22432e+17 -2.83446e+17 5.36536e+17)
)
;
    }
}


// ************************************************************************* //
