/*--------------------------------*- C++ -*----------------------------------*\
| =========                 |                                                 |
| \\      /  F ield         | OpenFOAM: The Open Source CFD Toolbox           |
|  \\    /   O peration     | Version:  2.4.0                                 |
|   \\  /    A nd           | Web:      www.OpenFOAM.org                      |
|    \\/     M anipulation  |                                                 |
\*---------------------------------------------------------------------------*/
FoamFile
{
    version     2.0;
    format      ascii;
    class       volScalarField;
    location    "0.09";
    object      nut;
}
// * * * * * * * * * * * * * * * * * * * * * * * * * * * * * * * * * * * * * //

dimensions      [0 2 -1 0 0 0 0];

internalField   nonuniform List<scalar> 
200
(
305.268
356.36
444.359
828.279
913.473
669.508
579.827
969.215
1289.13
1436.89
350.419
337.475
419.885
598.003
495.887
604.893
749.974
588.934
1494.84
2451.29
287.787
346.714
406.732
232.617
525.883
450.696
557.851
791.469
1230.09
2167.9
232.891
222.767
216.388
235.197
218.136
186.016
319.913
479.122
1021.21
1491.75
240.559
278.523
378.31
593.067
828.868
497.316
741.868
742.362
1620.12
1311.49
219.148
294.968
427.357
551.29
965.491
327.006
332.339
2037.34
2504.63
1463.97
241.967
336.377
185.841
1486.34
360.018
726.831
970.441
1362.55
3044.47
2281.97
120.401
217.829
319.852
369.807
354.081
272.049
517.728
1211.22
2072.41
3228.28
244.653
497.408
834.59
742.744
380.79
484.502
828.121
1074.92
970.792
1082.93
512.094
669.93
663.593
1249.7
96.5532
164.139
1134.44
1071.88
2531.75
10202.4
225.577
310.897
1923.56
360.405
1182.42
1599.36
875.414
1338.07
14317.5
5439.05
219.905
261.944
342.662
738.814
389.283
476.809
927.656
1667.77
2896.03
4255.1
586.516
848.56
1150.59
830.074
614.51
1183.04
1574.36
1853.2
4228.91
4278.15
371.854
284.543
842.458
498.083
3411.87
2355.33
419.326
993.599
3995.66
1171.94
292.588
469.932
611.365
711.954
1440.57
920.981
636.314
4205.3
2224.97
6305.92
259.677
224.59
312.941
427.134
386.129
721.619
632.446
941.701
10123.7
7029.08
207.697
448.045
820.83
275.896
394.324
814.223
1403.85
676.489
3263.01
3193.66
153.8
341.797
308.438
730.219
924.027
845.562
1964.79
529.738
1275.64
4368.95
263.471
228.006
568.032
509.293
320.97
492.531
861.315
1052.2
5103.1
2099.04
190.512
356.96
351.622
437.067
420.013
318.084
685.088
1050.49
1341.87
3736.96
)
;

boundaryField
{
    inlet
    {
        type            calculated;
        value           nonuniform 0();
    }
    outlet
    {
        type            calculated;
        value           nonuniform 0();
    }
    bottom
    {
        type            calculated;
        value           nonuniform List<scalar> 
40
(
3.72185e-22
3.94227e-22
3.52152e-22
3.26157e-22
4.1596e-22
4.11759e-22
3.98384e-22
2.92086e-22
5.10714e-22
4.68795e-22
4.49617e-22
2.80319e-22
8.57717e-22
6.62624e-22
4.03129e-22
2.51351e-22
1.12158e-21
7.47207e-22
2.94694e-22
1.97212e-22
1.26092e-21
5.70443e-22
4.95677e-22
1.8281e-22
6.94293e-22
8.63231e-22
5.6904e-22
2.34039e-22
1.00147e-21
6.95147e-22
6.07997e-22
3.8362e-22
1.49007e-21
7.86405e-22
8.68104e-22
6.34628e-22
1.66931e-21
1.46334e-21
1.4201e-21
1.32055e-21
)
;
    }
    top
    {
        type            symmetryPlane;
    }
    side1
    {
        type            symmetryPlane;
    }
    side2
    {
        type            symmetryPlane;
    }
    procBoundary28to20
    {
        type            processor;
        value           nonuniform List<scalar> 
50
(
329.079
324.073
378.427
1444.2
630.747
462.848
1088.34
846.871
949.432
1783.75
189.481
243.823
304.352
387.287
484.372
490.417
555.332
635.249
943.044
1040.87
633.831
203.342
579.81
760.693
301.408
291.284
642.075
923.719
1103.86
415.959
63.4678
842.702
901.063
875.8
639.097
391.009
1621.4
396.096
2536.04
5026.95
282.754
589.112
332.792
307.648
286.663
1817.95
1079.96
802.554
3898.9
2321.66
)
;
    }
    procBoundary28to27
    {
        type            processor;
        value           nonuniform List<scalar> 
20
(
276.597
264.603
299.383
226.57
165.661
206.028
166.73
102.873
304.829
253.009
222.266
134.572
216.973
562.439
153.924
186.352
211.534
212.339
209.801
262.331
)
;
    }
    procBoundary28to29
    {
        type            processor;
        value           nonuniform List<scalar> 
20
(
1364.94
2326.62
1644.6
2350.8
860.2
1432.08
2862.29
3312.65
4861.59
4211.94
4012.55
16079.3
2045.15
1155.74
7901.28
9820.4
2834.68
496.872
2647.85
5242.59
)
;
    }
}


// ************************************************************************* //
