/*--------------------------------*- C++ -*----------------------------------*\
| =========                 |                                                 |
| \\      /  F ield         | OpenFOAM: The Open Source CFD Toolbox           |
|  \\    /   O peration     | Version:  2.4.0                                 |
|   \\  /    A nd           | Web:      www.OpenFOAM.org                      |
|    \\/     M anipulation  |                                                 |
\*---------------------------------------------------------------------------*/
FoamFile
{
    version     2.0;
    format      ascii;
    class       volScalarField;
    location    "0.05";
    object      alpha;
}
// * * * * * * * * * * * * * * * * * * * * * * * * * * * * * * * * * * * * * //

dimensions      [0 0 0 0 0 0 0];

internalField   nonuniform List<scalar> 
200
(
8.01642e-22
7.96351e-20
7.2602e-18
5.73665e-16
3.70883e-14
1.75859e-12
4.63451e-11
1.75859e-12
3.70884e-14
5.73666e-16
5.35391e-20
5.80813e-18
5.73635e-16
4.9445e-14
3.51624e-12
1.85241e-10
5.49117e-09
1.85241e-10
3.51625e-12
4.9445e-14
7.90995e-22
7.96349e-20
7.26023e-18
5.73667e-16
3.70884e-14
1.75859e-12
4.63451e-11
1.75859e-12
3.70884e-14
5.73663e-16
6.29608e-24
5.9106e-22
5.00207e-20
3.64716e-18
2.16076e-16
9.31137e-15
2.20808e-13
9.31137e-15
2.16076e-16
3.64713e-18
2.79533e-19
2.96821e-17
2.93194e-15
2.52759e-13
1.79774e-11
9.4722e-10
2.80829e-08
9.4722e-10
1.79774e-11
2.52759e-13
1.99433e-17
2.34554e-15
2.52748e-13
2.39674e-11
1.89403e-09
1.12264e-07
3.80335e-06
1.12264e-07
1.89403e-09
2.39675e-11
2.73565e-19
2.96819e-17
2.93195e-15
2.5276e-13
1.79774e-11
9.4722e-10
2.80829e-08
9.4722e-10
1.79774e-11
2.52759e-13
2.03135e-21
2.04467e-19
1.86373e-17
1.47232e-15
9.51677e-14
4.51154e-12
1.1887e-10
4.51154e-12
9.51677e-14
1.47232e-15
5.34622e-17
6.00426e-15
6.46994e-13
6.13535e-11
4.84851e-09
2.87386e-07
9.73631e-06
2.87386e-07
4.84851e-09
6.13535e-11
4.03179e-15
5.17593e-13
6.13512e-11
6.46414e-09
5.74673e-07
3.89271e-05
0.00153843
3.89271e-05
5.74673e-07
6.46414e-09
5.10508e-17
6.00416e-15
6.46996e-13
6.13536e-11
4.84851e-09
2.87386e-07
9.73631e-06
2.87386e-07
4.84851e-09
6.13535e-11
3.51877e-19
3.81656e-17
3.76866e-15
3.24779e-13
2.30918e-11
1.21627e-09
3.60469e-08
1.21627e-09
2.30917e-11
3.24778e-13
5.30141e-16
5.375e-17
2.93255e-15
2.52759e-13
1.79774e-11
9.4722e-10
2.80829e-08
9.4723e-10
1.82174e-11
2.62875e-13
2.09724e-17
2.3456e-15
2.52748e-13
2.39675e-11
1.89403e-09
1.12264e-07
3.80335e-06
1.12264e-07
1.89403e-09
2.39675e-11
2.75431e-19
2.96819e-17
2.93194e-15
2.5276e-13
1.79774e-11
9.4722e-10
2.80829e-08
9.4722e-10
1.79774e-11
2.52759e-13
2.03137e-21
2.0432e-19
1.86335e-17
1.47233e-15
9.51677e-14
4.51154e-12
1.1887e-10
4.51153e-12
9.51674e-14
1.47232e-15
2.41839e-18
1.99198e-19
7.26344e-18
5.73665e-16
3.70884e-14
1.75859e-12
4.63451e-11
1.75863e-12
3.80796e-14
6.19624e-16
5.86617e-20
5.8084e-18
5.73636e-16
4.94451e-14
3.51625e-12
1.85241e-10
5.49117e-09
1.85241e-10
3.51624e-12
4.94451e-14
7.99822e-22
7.95774e-20
7.25875e-18
5.73669e-16
3.70884e-14
1.75859e-12
4.63451e-11
1.75859e-12
3.70883e-14
5.73665e-16
6.2776e-24
5.89248e-22
4.99628e-20
3.64643e-18
2.16076e-16
9.31137e-15
2.20808e-13
9.31135e-15
2.16076e-16
3.64716e-18
)
;

boundaryField
{
    inlet
    {
        type            zeroGradient;
    }
    outlet
    {
        type            zeroGradient;
    }
    bottom
    {
        type            fixedValue;
        value           uniform 0;
    }
    top
    {
        type            symmetryPlane;
    }
    side1
    {
        type            symmetryPlane;
    }
    side2
    {
        type            symmetryPlane;
    }
    procBoundary24to16
    {
        type            processor;
        value           nonuniform List<scalar> 
50
(
3.90405e-21
7.95941e-22
4.97823e-20
3.6306e-18
2.1517e-16
9.27555e-15
2.20035e-13
9.27549e-15
2.16159e-16
3.67752e-18
2.35716e-18
3.19876e-19
1.85558e-17
1.46614e-15
9.48016e-14
4.49576e-12
1.18496e-10
4.49577e-12
9.55754e-14
1.50103e-15
1.03524e-15
8.49997e-17
3.75403e-15
3.2353e-13
2.3011e-11
1.21244e-09
3.5946e-08
1.21245e-09
2.33859e-11
3.39328e-13
2.50121e-13
1.03508e-14
2.57146e-16
1.4703e-15
9.48163e-14
4.49699e-12
1.18577e-10
8.3321e-12
1.01211e-10
3.83782e-12
1.03724e-15
4.71245e-17
1.23394e-18
3.64449e-18
2.15075e-16
9.28185e-15
2.20402e-13
2.51174e-14
3.75995e-13
1.58456e-14
)
;
    }
    procBoundary24to25
    {
        type            processor;
        value           nonuniform List<scalar> 
20
(
7.2378e-18
5.73148e-16
7.24464e-18
4.98277e-20
2.92945e-15
2.52745e-13
2.93188e-15
1.86367e-17
6.46986e-13
6.13512e-11
6.46993e-13
3.76864e-15
3.16647e-15
2.52748e-13
2.93193e-15
1.86371e-17
8.4229e-18
5.73636e-16
7.26017e-18
5.00204e-20
)
;
    }
}


// ************************************************************************* //
