/*--------------------------------*- C++ -*----------------------------------*\
| =========                 |                                                 |
| \\      /  F ield         | OpenFOAM: The Open Source CFD Toolbox           |
|  \\    /   O peration     | Version:  2.4.0                                 |
|   \\  /    A nd           | Web:      www.OpenFOAM.org                      |
|    \\/     M anipulation  |                                                 |
\*---------------------------------------------------------------------------*/
FoamFile
{
    version     2.0;
    format      ascii;
    class       surfaceScalarField;
    location    "0.05";
    object      phib;
}
// * * * * * * * * * * * * * * * * * * * * * * * * * * * * * * * * * * * * * //

dimensions      [0 3 -1 0 0 0 0];

internalField   nonuniform List<scalar> 
490
(
4.07766e-05
-2.56226e-05
6.1411e-05
0.000107697
2.21578e-05
3.82436e-05
0.00011262
7.13061e-05
5.0881e-05
8.87933e-05
9.00947e-05
6.71067e-05
8.23688e-05
0.000100608
4.09156e-05
7.05448e-05
0.000100191
4.58772e-05
7.46559e-05
7.75354e-05
4.53361e-05
6.54467e-05
5.50886e-05
5.60491e-05
9.0548e-05
3.55159e-05
3.42498e-05
4.64438e-06
5.09676e-05
1.64839e-05
-8.31995e-05
5.6093e-05
2.75247e-05
-3.29858e-05
4.41028e-05
2.61408e-05
2.10671e-05
5.16229e-05
3.40692e-05
4.94973e-05
3.2669e-05
1.84329e-05
7.10221e-05
4.52224e-05
3.44659e-05
6.53223e-05
1.88359e-05
4.7865e-05
4.5435e-05
1.87011e-05
8.41185e-05
2.94855e-05
-1.06503e-05
0.00012352
-1.16384e-06
-2.72173e-06
-3.12195e-05
-1.1011e-05
-7.33429e-05
-7.52744e-05
8.04178e-05
-0.000107602
-5.03966e-05
5.16704e-05
-0.000103174
6.6491e-06
9.98917e-06
-0.000107858
2.28582e-05
3.13231e-05
-6.77853e-05
2.74931e-05
3.45665e-06
-7.05294e-05
4.29201e-05
2.51463e-05
-2.27294e-05
8.20994e-06
-1.05742e-05
5.3907e-06
1.96801e-05
-1.82929e-05
6.71466e-05
-5.46778e-05
-8.24337e-06
-1.56994e-05
-3.70717e-05
-0.000138834
7.85599e-05
-0.000254481
6.52496e-05
-0.000276807
2.89757e-05
-0.000274476
2.05268e-05
-0.0002436
-3.38249e-06
-0.00021363
1.29473e-05
-0.000185089
-2.03957e-05
-0.000188323
2.29102e-05
-0.000258663
1.57303e-05
7.47571e-06
8.18699e-05
-4.63531e-06
5.99065e-05
0.000116152
3.95401e-05
6.61711e-05
0.000153852
4.1386e-05
7.87487e-05
0.000164555
7.73089e-05
6.77235e-05
0.000182579
7.37675e-05
5.24379e-05
0.000187716
8.79162e-05
3.3797e-05
0.000159941
9.42895e-05
6.20894e-05
0.000191937
9.47965e-05
1.20538e-05
0.000175254
8.31539e-05
5.1274e-05
7.94051e-05
2.15712e-05
3.80923e-05
-5.25071e-05
8.08724e-05
9.45072e-05
-3.94906e-05
6.67185e-05
0.000104099
-5.7058e-08
8.34741e-05
0.000122089
2.66184e-05
6.53698e-05
0.000147399
6.00854e-05
3.35945e-05
0.000161668
8.29019e-05
9.57873e-06
0.000184164
0.000109928
-1.95285e-05
0.000180823
9.07105e-05
-3.22682e-06
0.000206036
9.07116e-05
-3.54923e-05
7.60157e-05
6.32973e-06
2.59085e-05
-5.71882e-05
7.41905e-05
1.30694e-06
-4.97205e-05
8.65018e-05
-2.13647e-05
-1.83806e-05
5.09843e-05
1.03965e-06
-1.13519e-05
4.6889e-05
1.72431e-05
2.65697e-05
2.07688e-05
7.59182e-05
4.80977e-05
1.27544e-06
0.000115136
7.42578e-05
-1.41226e-05
0.000164405
6.04401e-05
-3.72918e-05
0.000209569
5.50175e-05
-1.77127e-05
2.58797e-05
-3.14713e-05
-6.23273e-05
9.8699e-05
-0.00011487
6.80715e-05
-0.000150175
4.59007e-05
-0.000166309
2.53089e-05
-0.000155904
1.27818e-05
-7.63694e-05
-1.84894e-05
-1.73358e-05
-5.17102e-06
6.44705e-05
1.52289e-06
0.000132962
2.25547e-06
-6.42779e-06
5.34088e-05
2.57248e-05
4.27463e-05
0.000128125
2.53311e-05
4.78334e-05
0.000177886
4.49999e-05
3.71587e-05
0.000220245
4.1281e-05
5.17034e-05
0.000267539
8.06588e-05
-4.03266e-05
0.000216032
6.76342e-05
4.13233e-05
0.000227663
5.3092e-05
-1.83526e-05
0.00014412
6.03251e-05
1.55522e-05
0.000124831
5.21299e-05
4.40403e-06
3.03937e-05
2.27582e-05
7.86145e-05
-1.33231e-05
5.63058e-05
0.000105347
-1.72929e-06
6.70468e-05
0.000159936
6.27964e-06
6.76045e-05
0.000205787
4.50303e-05
1.577e-05
0.000241269
7.43572e-05
4.4143e-06
0.0002549
0.000105859
-4.22779e-05
0.000211588
0.000100576
-2.37003e-05
0.000207547
0.000110654
-4.95148e-05
0.000148866
7.79457e-05
-2.62744e-06
7.05679e-05
-2.81647e-07
3.74404e-05
-3.14115e-05
6.98385e-05
9.45862e-05
-3.61077e-05
6.37345e-05
0.000108492
-2.09343e-05
6.4293e-05
0.000116733
9.00468e-06
7.46729e-05
0.000143753
5.53353e-05
1.27709e-05
0.000203644
7.10433e-05
-2.37992e-05
0.000220331
0.000105427
-3.56612e-05
0.000218678
7.72671e-05
-2.252e-06
0.000233719
6.26385e-05
-1.74465e-05
5.31857e-05
-1.35437e-05
1.40852e-05
6.82022e-05
-3.98816e-05
8.59306e-05
-6.67091e-05
5.17939e-05
-7.44192e-05
4.20237e-05
-4.45032e-05
3.82011e-05
3.70241e-05
-2.89734e-05
6.43205e-05
7.29598e-05
0.000117193
2.59179e-05
0.000150194
3.18926e-05
1.05428e-05
0.000111526
2.40509e-05
4.96811e-06
0.000206347
4.83103e-05
-3.58101e-05
0.000186848
1.63343e-05
8.87444e-05
0.000227795
5.33517e-05
-4.74976e-05
0.000123843
3.29097e-05
2.53508e-05
0.000120058
1.53977e-05
-3.78051e-05
-3.22266e-05
-1.18379e-05
1.10481e-05
-9.16947e-05
-3.74499e-05
-1.42373e-05
-0.000173671
-6.97566e-05
1.03327e-05
-9.99078e-05
-1.65811e-06
7.05755e-05
6.04274e-06
1.87385e-05
0.000160239
-7.43292e-07
2.64368e-05
0.000210264
1.15368e-05
2.23773e-05
0.000286328
4.09111e-06
-1.10338e-05
0.000298067
4.49351e-05
-1.93507e-05
0.000259672
4.70881e-05
-3.55723e-05
0.000213523
5.21029e-05
-4.14929e-05
0.000132326
2.61265e-05
-3.18939e-05
6.39321e-05
-1.91847e-06
-2.0717e-06
-2.56427e-05
-1.16811e-05
7.81787e-05
-1.12299e-05
2.39324e-05
0.000105723
-1.0105e-05
4.55519e-05
0.000157631
-8.90371e-06
3.28257e-05
0.000204079
-2.33031e-05
5.56186e-05
0.000285831
-1.11582e-05
-1.28872e-05
0.00031023
4.13356e-05
-4.24456e-05
0.000294476
5.74457e-05
-2.52503e-05
0.000280767
4.47863e-05
-7.20296e-06
0.000272943
-2.01489e-05
8.60797e-06
-2.14287e-06
-2.77668e-05
3.28643e-05
3.91081e-05
6.88062e-05
3.98836e-05
6.47176e-05
4.69788e-05
5.08865e-05
3.25517e-05
5.44084e-05
2.3521e-05
3.85436e-05
2.8227e-05
0.000125216
4.37335e-05
0.000170128
2.57916e-05
0.000169897
1.19752e-05
2.21755e-05
4.90951e-05
0.000121219
1.94696e-05
7.46668e-05
4.74073e-05
7.12529e-05
-5.9708e-05
4.86815e-05
-9.31086e-05
-1.07646e-05
-0.000218686
-4.18081e-05
-0.000218489
-0.000125094
-0.000280046
-0.000127496
-0.000280185
-0.000147818
-0.000116619
0.000108499
4.64587e-05
0.000163915
4.56878e-05
0.000264349
-6.80358e-06
0.000288712
1.32843e-05
0.000254541
4.05663e-06
0.000181648
-4.48818e-06
5.93241e-05
-4.42621e-05
3.78031e-06
-0.000103846
-4.75101e-05
-9.8599e-05
-0.000101843
7.03352e-05
1.50561e-05
0.0001561
5.47497e-06
0.000211727
-2.96051e-05
0.000308804
-2.81741e-05
0.000306014
-6.04062e-06
0.00028312
-2.40399e-05
0.000234499
-2.08905e-05
0.000197092
-7.36419e-05
0.000171108
-6.40073e-05
-6.86381e-05
6.91644e-05
0.000114523
0.000131897
0.000136275
0.000153755
0.000157942
0.000180785
0.000132935
8.09029e-05
)
;

boundaryField
{
    inlet
    {
        type            fixedValue;
        value           nonuniform List<scalar> 
20
(
-1.5e-05
-1.5e-05
-1.5e-05
-1.5e-05
-1.5e-05
-1.5e-05
-1.5e-05
-1.5e-05
-1.5e-05
-1.5e-05
-1.5e-05
-1.5e-05
-1.5e-05
-1.5e-05
-1.5e-05
-1.5e-05
-1.5e-05
-1.5e-05
-1.5e-05
-1.5e-05
)
;
    }
    outlet
    {
        type            calculated;
        value           nonuniform 0();
    }
    bottom
    {
        type            fixedValue;
        value           uniform 0;
    }
    top
    {
        type            symmetryPlane;
        value           nonuniform List<scalar> 
40
(
-5.48383e-11
-6.90873e-11
-1.28993e-10
-2.19278e-10
-4.26037e-11
-9.76193e-11
-8.6266e-11
-1.83719e-10
-3.10013e-11
-4.18987e-11
-6.80303e-11
-8.24152e-11
-2.95306e-11
-2.93045e-11
-3.38941e-11
-5.74492e-11
-3.3931e-11
-3.6141e-11
-3.37592e-11
-4.08878e-11
-2.67358e-11
-5.04061e-11
-3.39833e-11
-4.32081e-11
-2.1804e-11
-4.9866e-11
-3.05133e-11
-4.56408e-11
-2.1072e-11
-5.34752e-11
-2.93351e-11
-4.90425e-11
-2.05061e-11
-3.81912e-11
-3.57993e-11
-4.86226e-11
-2.42302e-11
-4.01395e-11
-4.27101e-11
-3.81333e-11
)
;
    }
    side1
    {
        type            symmetryPlane;
        value           nonuniform 0();
    }
    side2
    {
        type            symmetryPlane;
        value           uniform 0;
    }
    procBoundary24to16
    {
        type            processor;
        value           nonuniform List<scalar> 
50
(
-6.15649e-05
-0.000127321
-0.00012711
-0.000133375
-0.000135099
-0.000134243
-0.000126952
-0.000101928
-9.48687e-05
-7.07311e-05
-6.07301e-05
-0.00010175
-0.000106953
-8.86297e-05
-0.000103388
-8.08584e-05
-8.32652e-05
-8.2894e-05
-8.34983e-05
-8.46078e-05
-4.69734e-05
-8.17097e-05
-5.31706e-05
-6.76201e-05
-3.51881e-05
-2.36546e-05
1.56766e-05
1.97186e-05
1.40293e-05
2.28444e-05
-8.27982e-05
-5.94877e-05
-4.84212e-05
4.90163e-06
5.37813e-06
6.75144e-05
0.000134722
0.000126707
0.000145804
0.000142191
-0.000150346
-8.08513e-05
-1.04453e-05
1.08846e-05
6.95226e-05
0.000129658
0.000135949
0.000174816
0.000158289
0.000148035
)
;
    }
    procBoundary24to25
    {
        type            processor;
        value           nonuniform List<scalar> 
20
(
0.000105604
0.000170395
8.86981e-05
-0.000281835
0.000209853
0.000192085
0.000254105
0.000172745
7.0406e-05
0.000115304
0.000233174
0.000186409
-0.000191537
1.06653e-06
0.000263666
0.000156121
-0.000313259
-7.39665e-05
0.000110138
3.44403e-05
)
;
    }
}


// ************************************************************************* //
