/*--------------------------------*- C++ -*----------------------------------*\
| =========                 |                                                 |
| \\      /  F ield         | OpenFOAM: The Open Source CFD Toolbox           |
|  \\    /   O peration     | Version:  2.4.0                                 |
|   \\  /    A nd           | Web:      www.OpenFOAM.org                      |
|    \\/     M anipulation  |                                                 |
\*---------------------------------------------------------------------------*/
FoamFile
{
    version     2.0;
    format      ascii;
    class       volVectorField;
    location    "0.05";
    object      Ur;
}
// * * * * * * * * * * * * * * * * * * * * * * * * * * * * * * * * * * * * * //

dimensions      [0 1 -1 0 0 0 0];

internalField   nonuniform List<vector> 
200
(
(-17.4299 10.4732 -47.7145)
(-9.79198 -69.512 31.7961)
(-56.5631 -69.0274 6.24151)
(-30.9682 -97.9791 -12.9851)
(-46.4482 -100.863 32.7219)
(-12.9294 -88.6536 7.99699)
(-44.5115 -94.5458 38.5193)
(-7.98423 -46.3744 -24.1316)
(-49.9682 -69.2419 49.1278)
(-4.15075 4.8814 -9.24482)
(40.349 20.419 34.0905)
(-32.5031 27.6241 -30.2266)
(19.7582 -51.3025 47.4847)
(-41.412 -60.9537 52.2598)
(19.1607 -71.7065 19.6097)
(-38.129 -88.1737 70.8231)
(14.9911 -42.9225 -13.6159)
(-57.9401 -63.7787 109.837)
(1.59166 -1.2213 14.1676)
(-103.775 -36.4607 110.978)
(8.62363 88.9324 -112.885)
(73.6502 0.948793 75.4018)
(12.3296 -8.45246 24.3226)
(82.1591 -33.1106 59.595)
(2.17219 -62.1965 102.026)
(59.2197 -36.6656 -0.810744)
(-13.0442 -57.7219 119.672)
(41.7482 -6.89512 13.0419)
(-58.8846 -32.7592 105.014)
(16.2629 61.3768 82.9359)
(76.533 -13.1502 35.6556)
(61.4587 41.5798 -113.807)
(143.038 -35.9853 63.7684)
(83.1485 -40.2446 -11.7962)
(139.266 -14.1822 65.5671)
(59.3115 -64.1632 46.6281)
(110.658 12.9384 46.5755)
(43.75 -61.1452 43.8043)
(111.312 86.5887 7.52771)
(93.6111 -81.5552 82.5368)
(-4.80343 -27.414 -50.748)
(-45.4037 -56.7701 -67.5683)
(-44.6699 -69.6204 -78.3912)
(-70.673 -87.9238 -102.763)
(-60.9614 -66.0784 -82.0757)
(-84.2286 -80.7893 -70.2756)
(-55.187 -54.6828 -92.9823)
(-85.309 -93.0909 -66.4283)
(-49.8855 -49.1175 -78.318)
(-100.703 -86.0783 -68.4689)
(-17.1651 38.7925 -112.354)
(-3.90523 -12.5013 -25.8054)
(-58.0952 0.121428 -115.252)
(-25.2951 -43.8337 -69.6384)
(-71.7026 -63.8332 -71.1308)
(-41.1226 -70.4807 -59.8229)
(-95.7737 -115.561 16.3125)
(-37.6552 -67.8091 -25.4117)
(-113.802 -105.404 44.0721)
(-39.9615 -55.934 -26.7746)
(25.5062 19.1109 -30.419)
(-30.6573 60.0934 -144.293)
(43.658 -9.7836 21.0126)
(-12.6782 -2.56508 -75.1379)
(15.0104 -31.5894 -39.7993)
(-50.5896 -73.9508 -4.34784)
(-4.22671 -69.9925 -31.0994)
(-88.0609 -95.7116 91.0066)
(-33.4903 -49.3688 -19.1091)
(-137.978 -82.5777 77.3354)
(4.26355 40.6287 -157.161)
(64.5896 -18.7073 10.6807)
(30.0063 -7.12956 -80.7028)
(103.484 -23.5151 15.6897)
(35.1002 -60.2841 1.88866)
(78.5541 -41.9228 -28.2373)
(-16.1249 -86.0213 58.6106)
(26.8412 -37.7897 -35.6628)
(-81.6275 -80.1198 32.4322)
(-22.3544 5.81087 -5.78671)
(-15.8646 -45.3336 -67.5005)
(-24.5669 -47.5299 -74.0148)
(-65.8461 -64.9792 -95.3345)
(-67.5099 -35.5832 -38.0587)
(-121.128 -77.4124 -28.8993)
(-71.6596 -21.5466 10.3314)
(-120.75 -31.5984 -53.5022)
(-37.3817 -4.73009 60.2133)
(-89.6129 -45.6365 -36.4451)
(3.41491 7.61981 33.4645)
(2.42632 -8.17517 -63.8595)
(-52.0473 -3.64432 -114.496)
(-29.4612 -23.8286 -75.5031)
(-91.0446 -49.5077 -76.3357)
(-68.6553 -57.9847 6.03217)
(-134.949 -109.072 52.9621)
(-51.7949 -56.7394 59.386)
(-129.228 -111.816 50.8546)
(-20.2741 -45.0338 68.2599)
(-100.43 -74.255 26.4242)
(-14.2421 26.4516 -117.995)
(-9.99697 -1.80056 -43.1425)
(-53.9404 15.4927 -121.292)
(-21.4986 -20.8579 -17.8014)
(-75.6373 -70.1366 2.82616)
(-42.6758 -63.6522 23.2456)
(-121.082 -123.986 86.778)
(-46.2561 -71.4665 28.0746)
(-128.578 -93.9326 83.2434)
(-50.5449 -46.9114 24.0848)
(14.7357 -8.90649 -59.9842)
(-14.8724 29.5656 -145.083)
(56.8896 -19.1651 1.77326)
(7.03011 -33.1274 -48.8793)
(55.8524 -52.9173 -8.01793)
(-28.5984 -88.4471 104.983)
(1.42886 -70.7559 -15.8201)
(-65.7548 -88.609 53.1015)
(-17.2223 -37.5707 -21.509)
(-100.497 -70.6252 28.6805)
(-11.5011 -31.5949 -36.3764)
(-77.4374 -75.1973 -28.8372)
(-63.1874 -34.4564 36.0811)
(-115.222 -49.7837 -69.6965)
(-31.3386 2.08156 174.303)
(-95.3151 -10.6553 -82.3246)
(34.2242 56.6988 152.992)
(-25.8716 42.6664 -56.7535)
(102.298 101.902 74.1712)
(49.109 112.65 -42.3657)
(-21.1137 -13.2096 -49.3195)
(-34.127 -13.2973 -29.3538)
(-84.9569 -21.0233 -73.93)
(-75.0357 -40.6116 63.7597)
(-154.325 -82.7775 17.1376)
(-72.4812 -22.8986 101.576)
(-141.77 -64.485 44.5856)
(-24.1854 5.30074 127.377)
(-63.3451 -4.80068 -6.29065)
(-1.38807 17.9941 31.7103)
(7.03948 -5.70458 -33.0119)
(-49.4608 5.82808 -91.2435)
(-51.3193 -10.755 -22.4836)
(-56.9926 21.501 -140.738)
(-83.8307 8.77971 11.1204)
(-161.17 -69.8452 82.1342)
(-84.8743 -31.2521 51.5379)
(-143.994 -62.8515 24.7783)
(-75.3216 -9.8795 10.1441)
(-144.401 6.63251 54.7929)
(-11.3671 5.8454 -81.9757)
(-8.04141 -10.5931 -41.2326)
(-37.0286 11.0816 -101.044)
(-2.25834 -9.14337 -18.1052)
(-45.0962 -28.3529 -46.5269)
(5.00964 -27.6314 25.3388)
(-33.493 -87.9941 -111.854)
(-53.448 -33.1769 -56.882)
(-95.0974 14.6828 -7.7475)
(-32.9411 -24.3329 -2.38267)
(-37.9634 -155.053 5.86823)
(28.0666 -79.319 134.768)
(-63.1166 -64.3834 -230.163)
(50.8052 -8.74924 236.776)
(-21.8437 31.768 -207.819)
(117.292 71.2463 220.011)
(54.9246 117.501 -153.715)
(118.136 100.582 122.354)
(105.86 133.89 -75.9117)
(127.878 96.691 67.6043)
(-39.5724 -73.9375 18.1479)
(-33.2241 -77.8233 -1.86823)
(-54.252 -47.1647 68.3281)
(-162.522 -83.2895 12.8767)
(-80.8234 -28.6156 72.1183)
(-119.178 -37.3221 19.0481)
(-19.4912 53.1994 91.4086)
(-28.8875 79.5618 -21.9306)
(20.5322 83.4942 27.6864)
(26.6692 72.06 14.801)
(-30.0548 -17.6005 -18.4717)
(-17.5129 -20.7991 -3.03568)
(-78.8236 17.7971 -24.7432)
(-105.184 20.741 25.4655)
(-135.321 -11.3576 42.4672)
(-104.008 21.0035 52.0537)
(-119.274 -1.94815 38.1193)
(-68.3227 65.6323 16.1329)
(-85.6415 55.0066 -12.1304)
(-46.4895 69.1097 38.3287)
(2.1862 -12.8231 -13.6046)
(-41.5326 1.33751 -54.6605)
(-47.1078 7.14849 -3.73762)
(-52.4652 8.17363 -49.1213)
(-59.2867 -0.129587 6.42261)
(-49.826 -4.99085 -86.2937)
(-76.1234 9.74964 7.89346)
(-70.249 26.1788 -4.69317)
(-29.9363 19.855 -10.3457)
(-39.6749 12.4601 -44.1016)
)
;

boundaryField
{
    inlet
    {
        type            calculated;
        value           uniform (-6 0 0);
    }
    outlet
    {
        type            calculated;
        value           nonuniform 0();
    }
    bottom
    {
        type            calculated;
        value           uniform (0 0 0);
    }
    top
    {
        type            symmetryPlane;
    }
    side1
    {
        type            symmetryPlane;
    }
    side2
    {
        type            symmetryPlane;
    }
    procBoundary24to16
    {
        type            processor;
        value           nonuniform List<vector> 
50
(
(-12.2269 -105.799 -29.2561)
(-20.6036 -149.47 -1.26279)
(-25.441 -154.493 6.86356)
(-33.0855 -138.421 0.4413)
(-20.0314 -140.803 -3.54547)
(-39.5307 -147.219 3.5661)
(-33.8416 -128.577 -1.67324)
(-45.5833 -127.75 -9.60301)
(-33.432 -95.2026 -9.85009)
(-37.0764 -119.139 8.92942)
(-16.8088 -83.2941 -56.7195)
(-28.5259 -125.548 -39.0231)
(-50.0254 -133.406 -52.3283)
(-49.24 -85.8806 -49.9494)
(-67.036 -124.682 -58.4922)
(-56.5811 -75.8379 -48.4583)
(-75.0863 -88.8674 -72.2714)
(-52.851 -62.4917 -76.3678)
(-66.7789 -90.9305 -103.117)
(-54.5397 -68.9951 -108.963)
(-15.6234 -52.4623 -59.3626)
(-60.0502 -114.096 -60.689)
(-69.2736 -57.9122 -42.8875)
(-113.26 -90.1777 -48.5493)
(-74.6231 -14.9602 -12.5823)
(-106.112 -23.732 -88.8043)
(-52.5749 21.8129 17.577)
(-84.6591 27.0903 -116.029)
(-7.12418 42.3963 10.0778)
(-38.1277 15.2954 -113.196)
(-42.0527 -123.733 20.1509)
(-49.7906 -56.4052 22.6644)
(-120.581 -42.0982 -120.809)
(-31.824 15.2523 151.686)
(-75.8827 30.418 -145.94)
(62.3442 102.122 232.069)
(30.8775 154.237 -280.975)
(109.232 143.2 110.8)
(67.0477 156.855 -134.336)
(125.256 148.825 12.6678)
(37.9925 -101.278 92.6498)
(-27.9789 -34.2791 -280.643)
(83.6853 9.48825 326.91)
(-18.0133 27.2978 -356.218)
(180.464 65.4916 402.603)
(99.687 148.505 -411.084)
(203.605 93.734 284.317)
(133.284 192.95 -286.886)
(173.987 139.659 125.105)
(143.492 168.875 -161.817)
)
;
    }
    procBoundary24to25
    {
        type            processor;
        value           nonuniform List<vector> 
20
(
(-92.7381 -36.1268 88.3306)
(-23.3028 54.9449 78.277)
(-103.768 -24.1515 83.3663)
(128.333 266.462 -219.142)
(-53.0207 -44.9205 -66.0259)
(-116.902 -85.9711 31.033)
(-55.1368 -18.8764 54.1596)
(-121.716 -97.2106 1.3215)
(-60.5656 -23.5086 -64.8451)
(8.03841 -19.9176 61.9592)
(-135.818 -72.4819 80.5489)
(-42.2886 -3.44325 29.601)
(99.9749 94.9812 11.743)
(4.17485 42.207 58.5614)
(-59.5506 4.83298 10.659)
(-85.3012 -12.8278 26.6153)
(122.433 118.15 -21.4522)
(42.4605 94.949 27.9705)
(-34.8066 -35.2592 -192.458)
(5.97387 3.68826 -58.0107)
)
;
    }
}


// ************************************************************************* //
