/*--------------------------------*- C++ -*----------------------------------*\
| =========                 |                                                 |
| \\      /  F ield         | OpenFOAM: The Open Source CFD Toolbox           |
|  \\    /   O peration     | Version:  2.4.0                                 |
|   \\  /    A nd           | Web:      www.OpenFOAM.org                      |
|    \\/     M anipulation  |                                                 |
\*---------------------------------------------------------------------------*/
FoamFile
{
    version     2.0;
    format      ascii;
    class       volVectorField;
    location    "0.05";
    object      A_Source;
}
// * * * * * * * * * * * * * * * * * * * * * * * * * * * * * * * * * * * * * //

dimensions      [1 -2 -2 0 0 0 0];

internalField   nonuniform List<vector> 
200
(
(1.42212e-06 7.15514e-07 1.04034e-06)
(2.1983e-08 1.10603e-08 1.60815e-08)
(2.7658e-10 1.39524e-10 2.02566e-10)
(-1.29099e-11 6.431e-13 -4.89273e-12)
(5.60397e-12 -1.00841e-11 -6.23358e-12)
(2.75135e-10 -3.47955e-10 -2.8091e-10)
(8.65437e-09 -7.65497e-10 -1.18011e-08)
(3.06737e-07 8.20673e-07 -6.50954e-07)
(2.3398e-05 6.60949e-05 -4.98758e-05)
(0.00138863 0.00392332 -0.00296027)
(1.64897e-08 8.2965e-09 1.2063e-08)
(2.77406e-10 1.39571e-10 2.02934e-10)
(3.78513e-12 1.90512e-12 2.76943e-12)
(1.60682e-14 2.02889e-14 1.93542e-14)
(3.07421e-14 -3.81291e-14 -3.31382e-14)
(1.459e-12 -6.34737e-13 -1.82217e-12)
(6.28749e-11 7.94829e-11 -1.08311e-10)
(3.60606e-09 1.00147e-08 -7.6776e-09)
(2.53755e-07 7.17212e-07 -5.4106e-07)
(1.33868e-05 3.78384e-05 -2.85441e-05)
(1.04072e-10 5.23596e-11 7.61411e-11)
(1.89248e-12 9.52132e-13 1.38452e-12)
(2.77913e-14 1.39835e-14 2.03323e-14)
(3.02713e-16 1.71067e-16 2.31908e-16)
(1.3539e-16 -8.85348e-17 -1.56437e-16)
(6.77813e-15 2.88555e-15 -1.0058e-14)
(3.62246e-13 7.1176e-13 -6.91025e-13)
(2.33724e-11 6.55071e-11 -4.98021e-11)
(1.50513e-09 4.25462e-09 -3.20946e-09)
(7.14926e-08 2.02096e-07 -1.52448e-07)
(-4.18023e-13 -6.99731e-13 1.26386e-12)
(-9.92899e-16 -6.12584e-15 1.73185e-14)
(3.95378e-17 -3.83122e-17 2.15608e-16)
(8.75467e-19 -8.68511e-20 2.42175e-18)
(5.15175e-19 -4.3466e-20 -6.52276e-19)
(2.79359e-17 3.10606e-17 -4.66682e-17)
(1.67093e-15 3.86535e-15 -3.34071e-15)
(1.08833e-13 3.06267e-13 -2.32032e-13)
(6.45134e-12 1.82509e-11 -1.37622e-11)
(2.78947e-10 7.89725e-10 -5.95283e-10)
(0.00103438 0.000520429 0.000756693)
(1.45436e-05 7.31735e-06 1.06393e-05)
(1.68565e-07 8.48086e-08 1.23312e-07)
(1.76738e-09 7.50228e-10 1.19179e-09)
(3.81134e-09 -6.25575e-09 -3.40878e-09)
(1.73e-07 -2.52284e-07 -1.66893e-07)
(5.28657e-06 -3.26032e-06 -6.44467e-06)
(0.000144299 0.000374618 -0.000305597)
(0.0121388 0.0343049 -0.0258812)
(0.823744 2.3282 -1.75638)
(1.09091e-05 5.48871e-06 7.98049e-06)
(1.68574e-07 8.48148e-08 1.23319e-07)
(2.13007e-09 1.0717e-09 1.55824e-09)
(2.36202e-11 1.12661e-11 1.67972e-11)
(1.71444e-11 -2.38103e-11 -1.62099e-11)
(7.76572e-10 -6.81037e-10 -8.7453e-10)
(3.00612e-08 2.04861e-08 -4.70964e-08)
(1.53804e-06 4.23075e-06 -3.27232e-06)
(0.000119511 0.000337826 -0.000254838)
(0.00709529 0.0200573 -0.0151298)
(6.32255e-08 3.18099e-08 4.62549e-08)
(1.06486e-09 5.35753e-10 7.7902e-10)
(1.45705e-11 7.3307e-12 1.06592e-11)
(1.72927e-13 8.48497e-14 1.24607e-13)
(6.50754e-14 -6.52599e-14 -6.64638e-14)
(3.05883e-12 -4.61431e-13 -4.0553e-12)
(1.4679e-10 2.26658e-10 -2.63642e-10)
(9.18367e-09 2.56218e-08 -1.95619e-08)
(6.48459e-07 1.83313e-06 -1.38278e-06)
(3.42152e-05 9.67248e-05 -7.29609e-05)
(-7.06473e-11 -2.20501e-10 5.41516e-10)
(1.22215e-12 -1.37928e-12 7.28986e-12)
(3.62015e-14 -1.17568e-15 8.86699e-14)
(5.90934e-16 1.17408e-16 9.827e-16)
(2.18446e-16 -1.21827e-16 -2.42685e-16)
(1.09197e-14 5.88847e-15 -1.65383e-14)
(6.03982e-13 1.2284e-12 -1.16312e-12)
(3.97213e-11 1.11501e-10 -8.46757e-11)
(2.56223e-09 7.25047e-09 -5.46655e-09)
(1.217e-07 3.44694e-07 -2.59771e-07)
(0.557936 0.280716 0.408156)
(0.00706022 0.00355223 0.00516487)
(7.44534e-05 3.74592e-05 5.44656e-05)
(7.16148e-07 3.03839e-07 4.8353e-07)
(1.65455e-06 -2.81623e-06 -1.44992e-06)
(8.05545e-05 -0.000130734 -7.37964e-05)
(0.00242633 -0.00288384 -0.00257463)
(0.0387129 0.0915941 -0.0814561)
(3.50355 9.90409 -7.47113)
(277.508 784.532 -591.773)
(0.00529573 0.00266446 0.00387407)
(7.44567e-05 3.74616e-05 5.44685e-05)
(8.63679e-07 4.34542e-07 6.31818e-07)
(8.85103e-09 4.21762e-09 6.30115e-09)
(6.62537e-09 -1.04404e-08 -5.92713e-09)
(3.04505e-07 -4.04367e-07 -3.04565e-07)
(1.01218e-05 -2.45305e-06 -1.33445e-05)
(0.000362363 0.000967813 -0.000769216)
(0.0310603 0.0878069 -0.0662345)
(2.108 5.95945 -4.49522)
(2.79257e-05 1.40502e-05 2.04295e-05)
(4.31883e-07 2.17292e-07 3.15947e-07)
(5.46507e-09 2.74962e-09 3.99799e-09)
(6.031e-11 2.95563e-11 4.35055e-11)
(2.22055e-11 -3.0266e-11 -2.04985e-11)
(9.93767e-10 -8.71322e-10 -1.11912e-09)
(3.84752e-08 2.62245e-08 -6.02803e-08)
(1.96844e-06 5.41526e-06 -4.18826e-06)
(0.000152952 0.000432398 -0.000326163)
(0.00908095 0.0256724 -0.0193647)
(3.90236e-08 -1.82224e-08 1.49962e-07)
(1.12849e-09 1.87156e-10 2.04629e-09)
(1.8674e-11 5.93649e-12 2.47545e-11)
(2.43183e-13 9.10647e-14 2.69171e-13)
(6.58372e-14 -7.15055e-14 -6.31436e-14)
(2.95107e-12 -9.98023e-13 -3.76281e-12)
(1.32191e-10 1.80923e-10 -2.31373e-10)
(7.84134e-09 2.18443e-08 -1.6709e-08)
(5.52838e-07 1.56554e-06 -1.17994e-06)
(2.91504e-05 8.267e-05 -6.22639e-05)
(169.286 85.1733 123.84)
(1.90418 0.958059 1.393)
(0.0180727 0.00909282 0.0132209)
(0.000158 6.70019e-05 0.000106773)
(0.00039648 -0.000692746 -0.000341953)
(0.0210414 -0.0368101 -0.0184671)
(0.642782 -1.11608 -0.583448)
(1.30523 -1.71317 -2.4537)
(0.0558551 -0.022969 -0.108376)
(0.82429 2.3269 -1.75756)
(1.42826 0.718608 1.04484)
(0.0180734 0.00909332 0.0132215)
(0.00019059 9.58917e-05 0.000139425)
(1.7901e-06 8.52291e-07 1.27536e-06)
(1.40871e-06 -2.43532e-06 -1.20197e-06)
(6.68682e-05 -0.000116851 -5.89817e-05)
(0.00182339 -0.00315939 -0.00167013)
(0.00367987 -0.00482853 -0.00691064)
(0.000257973 0.000156364 -0.000515982)
(0.00709745 0.0200529 -0.0151343)
(0.00677849 0.00341048 0.00495878)
(9.53039e-05 4.79506e-05 6.97192e-05)
(1.1055e-06 5.56211e-07 8.08722e-07)
(1.12593e-08 5.51208e-09 8.12849e-09)
(4.15298e-09 -7.04282e-09 -3.4619e-09)
(1.77079e-07 -3.09105e-07 -1.5696e-07)
(4.36411e-06 -7.54598e-06 -4.03279e-06)
(8.75677e-06 -1.1475e-05 -1.64287e-05)
(1.01337e-06 1.35552e-06 -2.0717e-06)
(3.417e-05 9.6865e-05 -7.29813e-05)
(2.383e-05 1.19895e-05 1.74333e-05)
(3.68541e-07 1.85423e-07 2.69611e-07)
(4.66354e-09 2.34636e-09 3.41165e-09)
(5.13308e-11 2.54077e-11 3.72548e-11)
(1.07742e-11 -1.77215e-11 -8.62919e-12)
(4.12613e-10 -7.19406e-10 -3.6754e-10)
(9.2781e-09 -1.60018e-08 -8.65459e-09)
(1.77451e-08 -2.191e-08 -3.48354e-08)
(-8.9067e-08 2.77272e-07 -1.87219e-08)
(-9.74291e-06 2.92655e-05 -1.50271e-06)
(0.558974 0.28124 0.40741)
(0.00707484 0.00355962 0.00515448)
(7.46234e-05 3.75453e-05 5.43459e-05)
(7.17817e-07 3.04344e-07 4.82613e-07)
(1.6429e-06 -2.86625e-06 -1.41386e-06)
(7.85232e-05 -0.000137218 -6.89752e-05)
(0.00214076 -0.00370936 -0.00195346)
(0.00431888 -0.00567314 -0.00808024)
(0.000185988 -0.000147001 -0.000355125)
(0.00139087 0.00391793 -0.00295769)
(0.00530666 0.00266996 0.00386612)
(7.46259e-05 3.75469e-05 5.43459e-05)
(8.6582e-07 4.35621e-07 6.30269e-07)
(8.87307e-09 4.22491e-09 6.28791e-09)
(6.42499e-09 -1.10719e-08 -5.45403e-09)
(2.77313e-07 -4.84075e-07 -2.44686e-07)
(6.83294e-06 -1.18153e-05 -6.28774e-06)
(1.37e-05 -1.79969e-05 -2.55942e-05)
(8.26074e-07 -3.31268e-08 -1.61334e-06)
(1.33967e-05 3.78185e-05 -2.84852e-05)
(2.79895e-05 1.40824e-05 2.0383e-05)
(4.32956e-07 2.17835e-07 3.15167e-07)
(5.47977e-09 2.75705e-09 3.98731e-09)
(6.04722e-11 2.96069e-11 4.34069e-11)
(2.06986e-11 -3.48919e-11 -1.70881e-11)
(8.07943e-10 -1.40883e-09 -7.16002e-10)
(1.8174e-08 -3.13622e-08 -1.68615e-08)
(3.62229e-08 -4.75584e-08 -6.75749e-08)
(3.16499e-09 2.08527e-09 -6.31634e-09)
(7.12644e-08 2.02793e-07 -1.5208e-07)
(1.08261e-07 5.44694e-08 7.88092e-08)
(1.82684e-09 9.19138e-10 1.3293e-09)
(2.5048e-11 1.26024e-11 1.82186e-11)
(2.96961e-13 1.46999e-13 2.14202e-13)
(5.83407e-14 -9.50009e-14 -4.59799e-14)
(2.05404e-12 -3.5775e-12 -1.82839e-12)
(4.25019e-11 -7.31524e-11 -3.97856e-11)
(8.01462e-11 -9.834e-11 -1.57579e-10)
(-4.44238e-10 1.34649e-09 -7.86498e-11)
(-4.46681e-08 1.32565e-07 -6.22886e-09)
)
;

boundaryField
{
    inlet
    {
        type            zeroGradient;
    }
    outlet
    {
        type            zeroGradient;
    }
    bottom
    {
        type            zeroGradient;
    }
    top
    {
        type            symmetryPlane;
    }
    side1
    {
        type            symmetryPlane;
    }
    side2
    {
        type            symmetryPlane;
    }
    procBoundary17to9
    {
        type            processor;
        value           nonuniform List<vector> 
50
(
(1.48899e-08 7.49162e-09 1.08927e-08)
(2.39742e-10 1.25087e-10 1.78246e-10)
(-3.81174e-10 -1.5273e-11 -1.6571e-10)
(-8.28132e-09 -3.86281e-10 -3.63686e-09)
(5.83149e-10 -1.71155e-09 -1.01328e-09)
(4.22701e-08 -7.37762e-08 -3.74875e-08)
(1.04261e-06 -1.80017e-06 -9.63921e-07)
(2.17906e-06 -2.66769e-06 -4.04232e-06)
(6.58758e-06 5.3836e-06 -9.13481e-06)
(0.000342914 0.000290039 -0.00047322)
(9.78167e-06 4.92144e-06 7.15574e-06)
(1.51414e-07 7.61775e-08 1.10764e-07)
(2.03909e-09 7.47242e-10 1.29532e-09)
(9.79352e-09 -1.721e-08 -8.47899e-09)
(6.38047e-07 -1.11823e-06 -5.55258e-07)
(3.0612e-05 -5.34893e-05 -2.70026e-05)
(0.000834891 -0.0014461 -0.000764813)
(0.00170379 -0.00219417 -0.00319001)
(0.00164321 0.00135228 -0.00233733)
(0.0937995 0.085222 -0.131679)
(0.00470125 0.00236535 0.0034392)
(6.66801e-05 3.35477e-05 4.87792e-05)
(8.28704e-07 3.0401e-07 5.26801e-07)
(4.3278e-06 -7.58284e-06 -3.71765e-06)
(0.000308831 -0.000541674 -0.000267827)
(0.0164387 -0.028758 -0.0144275)
(0.502177 -0.871935 -0.455824)
(1.0199 -1.3379 -1.91735)
(0.0599679 0.0282112 -0.119489)
(1.75294 4.95233 -3.73766)
(1.24769 0.627752 0.91275)
(0.0160423 0.0080712 0.0117358)
(0.000182317 6.68435e-05 0.000115898)
(0.00104788 -0.00183776 -0.00089825)
(0.0830479 -0.145771 -0.0717707)
(4.96582 -8.69689 -4.33622)
(172.639 -300.391 -155.253)
(352.818 -462.928 -663.965)
(10.3535 -13.5567 -19.5476)
(0.1804 -0.210964 -0.342439)
(0.00601877 0.00361264 0.00755666)
(9.1887e-05 5.73106e-05 0.000126988)
(1.18474e-06 6.385e-07 1.62605e-06)
(4.34175e-06 -7.59618e-06 -3.69643e-06)
(0.000309469 -0.000542793 -0.000267271)
(0.0164693 -0.0288115 -0.0144005)
(0.503009 -0.873389 -0.455053)
(1.02129 -1.34093 -1.91357)
(0.0342215 -0.0448248 -0.0643364)
(0.000659836 -0.000815265 -0.00124442)
)
;
    }
    procBoundary17to16
    {
        type            processor;
        value           nonuniform List<vector> 
20
(
(6.74338e-05 3.39282e-05 4.9331e-05)
(7.11295e-07 3.57876e-07 5.20345e-07)
(4.12643e-09 2.07598e-09 3.01921e-09)
(-4.96613e-11 -6.18003e-11 8.17401e-11)
(0.0545005 0.027421 0.0398696)
(0.00051733 0.000260286 0.000378451)
(2.72811e-06 1.37254e-06 1.99594e-06)
(-1.66073e-08 -2.32627e-08 3.56604e-08)
(33.0705 16.6389 24.1926)
(0.279031 0.14039 0.204124)
(0.00132432 0.000666298 0.000968844)
(-1.34044e-06 -3.96589e-06 9.5757e-06)
(11467.5 5769.68 8389.01)
(84.6579 42.5942 61.9312)
(0.357157 0.179698 0.261277)
(0.00113008 0.000568568 0.000826756)
(33.1251 16.6664 24.153)
(0.279548 0.14065 0.203746)
(0.00132708 0.000667697 0.000966827)
(4.66664e-06 2.34791e-06 3.39855e-06)
)
;
    }
    procBoundary17to18
    {
        type            processor;
        value           nonuniform List<vector> 
20
(
(0.0471084 0.133114 -0.100432)
(0.000397405 0.00112332 -0.000847383)
(1.88653e-06 5.33295e-06 -4.02279e-06)
(6.61976e-09 1.87982e-08 -1.41492e-08)
(32.6162 92.1909 -69.5461)
(0.240783 0.680667 -0.513443)
(0.00101592 0.00287198 -0.00216637)
(3.20618e-06 9.11471e-06 -6.8569e-06)
(13210.2 37346 -28170.1)
(83.4747 235.988 -178.006)
(0.308175 0.871229 -0.657168)
(0.000863029 0.00246203 -0.00184907)
(32.6078 92.1843 -69.5348)
(0.240763 0.680651 -0.513416)
(0.0010115 0.00288479 -0.00216687)
(-0.000920564 0.00271743 -0.000123249)
(0.0470773 0.13309 -0.10017)
(0.000397323 0.00112326 -0.000845181)
(1.866e-06 5.39248e-06 -4.01407e-06)
(-3.85607e-06 1.13434e-05 -4.98568e-07)
)
;
    }
    procBoundary17to25
    {
        type            processor;
        value           nonuniform List<vector> 
50
(
(-1.34156e-10 -1.41136e-10 1.38027e-10)
(-1.46296e-12 -1.53908e-12 1.5052e-12)
(-1.42809e-14 -1.5024e-14 1.46937e-14)
(-1.28086e-16 -1.34753e-16 1.31794e-16)
(-1.0724e-18 -1.12504e-18 1.10149e-18)
(-3.98617e-20 5.38903e-19 -1.89276e-19)
(-9.32637e-18 6.16405e-17 -1.49064e-17)
(-1.33007e-15 6.20297e-15 -1.07215e-15)
(-1.53805e-13 5.77713e-13 -6.91009e-14)
(-1.51536e-11 4.94735e-11 -3.88822e-12)
(-5.42978e-08 -5.7123e-08 5.58652e-08)
(-5.48591e-10 -5.77137e-10 5.6444e-10)
(-4.9983e-12 -5.25844e-12 5.1429e-12)
(-4.20396e-14 -4.42283e-14 4.32583e-14)
(-3.31392e-16 -3.47594e-16 3.40313e-16)
(-2.73665e-17 2.11752e-16 -6.3486e-17)
(-5.48174e-15 2.70792e-14 -5.15278e-15)
(-7.61629e-13 3.02113e-12 -4.05706e-13)
(-9.01867e-11 3.11395e-10 -2.97894e-11)
(-9.36004e-09 2.94824e-08 -1.9796e-09)
(-1.19917e-05 -1.26158e-05 1.23382e-05)
(-1.1128e-07 -1.17073e-07 1.145e-07)
(-9.38773e-10 -9.87659e-10 9.66004e-10)
(-7.35382e-12 -7.737e-12 7.5679e-12)
(-5.42511e-14 -5.68501e-14 5.56634e-14)
(-1.17143e-14 5.81226e-14 -1.35464e-14)
(-2.22439e-12 8.44622e-12 -1.08879e-12)
(-3.10396e-10 1.05479e-09 -9.61252e-11)
(-3.81543e-08 1.21262e-07 -8.49405e-09)
(-4.20935e-06 1.27899e-05 -7.06421e-07)
(1.4771e-08 -2.23973e-08 1.0647e-07)
(6.15892e-10 7.9003e-12 1.41902e-09)
(1.09566e-11 2.75272e-12 1.68664e-11)
(1.46679e-13 4.99816e-14 1.8134e-13)
(2.88548e-15 2.46217e-14 -2.1467e-14)
(-2.49452e-12 8.35015e-12 -1.20346e-12)
(-4.72907e-10 1.40837e-09 -7.88735e-11)
(-6.78632e-08 1.9902e-07 -8.62244e-09)
(-8.77981e-06 2.57407e-05 -1.10625e-06)
(-0.00104069 0.0030511 -0.000131124)
(2.08037e-10 3.08055e-11 3.87243e-10)
(4.78692e-12 1.59826e-12 6.06798e-12)
(7.79473e-14 3.12425e-14 8.21209e-14)
(1.04094e-15 4.48571e-16 9.82643e-16)
(9.79673e-18 1.71533e-16 -1.24379e-16)
(-1.47771e-14 4.89173e-14 -6.63214e-15)
(-2.54667e-12 7.57602e-12 -4.15589e-13)
(-3.3638e-10 9.86485e-10 -4.25106e-11)
(-3.98848e-08 1.16934e-07 -5.00063e-09)
(-4.29701e-06 1.2598e-05 -5.38962e-07)
)
;
    }
}


// ************************************************************************* //
