/*--------------------------------*- C++ -*----------------------------------*\
| =========                 |                                                 |
| \\      /  F ield         | OpenFOAM: The Open Source CFD Toolbox           |
|  \\    /   O peration     | Version:  2.4.0                                 |
|   \\  /    A nd           | Web:      www.OpenFOAM.org                      |
|    \\/     M anipulation  |                                                 |
\*---------------------------------------------------------------------------*/
FoamFile
{
    version     2.0;
    format      ascii;
    class       volVectorField;
    location    "0.02";
    object      Ua;
}
// * * * * * * * * * * * * * * * * * * * * * * * * * * * * * * * * * * * * * //

dimensions      [0 1 -1 0 0 0 0];

internalField   nonuniform List<vector> 
200
(
(0.280891 0.200005 0.00672246)
(0.292417 0.208209 0.00699855)
(0.304868 0.21707 0.00729686)
(0.318355 0.226668 0.00762009)
(0.333008 0.237094 0.00797134)
(0.348977 0.248456 0.00835426)
(0.366438 0.260879 0.00877312)
(0.385601 0.274512 0.00923297)
(0.406722 0.289537 0.00974003)
(0.43014 0.306197 0.0103026)
(0.307601 0.218859 0.00737237)
(0.319823 0.22755 0.007666)
(0.332998 0.236917 0.00798258)
(0.347238 0.24704 0.00832488)
(0.362673 0.258012 0.00869603)
(0.379447 0.269935 0.00909954)
(0.397716 0.28292 0.00953921)
(0.417643 0.297082 0.010019)
(0.439388 0.312537 0.0105428)
(0.463133 0.329415 0.0111151)
(0.331853 0.23597 0.0079636)
(0.344442 0.244914 0.00826666)
(0.357963 0.25452 0.0085923)
(0.372528 0.264865 0.00894324)
(0.388265 0.276041 0.00932258)
(0.405314 0.288147 0.00973381)
(0.42383 0.301292 0.0101807)
(0.443984 0.315598 0.0106675)
(0.465986 0.331215 0.0111993)
(0.49023 0.348426 0.011786)
(0.351592 0.249873 0.00844611)
(0.364301 0.258897 0.00875265)
(0.377953 0.268589 0.00908211)
(0.392677 0.279039 0.00943766)
(0.408622 0.290353 0.00982293)
(0.42595 0.302645 0.0102419)
(0.444831 0.316035 0.0106989)
(0.465436 0.330643 0.0111981)
(0.487969 0.346616 0.0117446)
(0.512935 0.364316 0.0123511)
(0.306289 0.218036 0.00736783)
(0.318472 0.226706 0.00766116)
(0.331618 0.236059 0.0079778)
(0.345843 0.246179 0.00832059)
(0.361278 0.257159 0.00869275)
(0.37807 0.269103 0.00909791)
(0.396381 0.282126 0.00954001)
(0.416383 0.296349 0.0100233)
(0.438262 0.311907 0.0105525)
(0.462265 0.328977 0.0111337)
(0.330137 0.234852 0.00794229)
(0.342794 0.24385 0.0082476)
(0.356422 0.253536 0.00857651)
(0.371139 0.263997 0.00893195)
(0.38708 0.275325 0.00931721)
(0.40439 0.287624 0.00973588)
(0.423216 0.300999 0.0101916)
(0.443699 0.31555 0.010688)
(0.465969 0.33137 0.0112284)
(0.490213 0.348596 0.0118177)
(0.351222 0.249705 0.00845352)
(0.364125 0.258871 0.00876538)
(0.377985 0.268715 0.00910062)
(0.392925 0.279325 0.00946225)
(0.409081 0.290795 0.00985367)
(0.426602 0.303231 0.0102786)
(0.445636 0.316738 0.0107407)
(0.466326 0.331417 0.0112437)
(0.488838 0.347387 0.0117919)
(0.513589 0.364948 0.0123958)
(0.368561 0.261898 0.00887611)
(0.381546 0.271116 0.00919054)
(0.395498 0.281018 0.00952866)
(0.410556 0.291702 0.00989393)
(0.426879 0.303281 0.0102903)
(0.444639 0.315875 0.0107221)
(0.464007 0.329603 0.0111937)
(0.48512 0.344564 0.0117085)
(0.508124 0.36086 0.0122705)
(0.533541 0.378868 0.012893)
(0.329213 0.234296 0.00795732)
(0.341835 0.243276 0.00826289)
(0.355445 0.252958 0.00859262)
(0.370169 0.263431 0.00894963)
(0.38615 0.274796 0.00933748)
(0.403544 0.287164 0.00976009)
(0.422511 0.300647 0.0102215)
(0.443195 0.31535 0.0107254)
(0.46572 0.331359 0.0112751)
(0.490243 0.348789 0.0118748)
(0.350327 0.249167 0.00845849)
(0.363315 0.258399 0.00877325)
(0.377294 0.268334 0.00911233)
(0.392392 0.279062 0.00947892)
(0.408753 0.290685 0.0098766)
(0.426528 0.30331 0.0103092)
(0.445861 0.31704 0.0107805)
(0.46687 0.331956 0.0112935)
(0.489635 0.348119 0.0118506)
(0.514346 0.365667 0.0124572)
(0.368855 0.2622 0.00890392)
(0.382032 0.271559 0.00922381)
(0.396188 0.281611 0.00956782)
(0.411453 0.292449 0.00993924)
(0.427978 0.304177 0.0103418)
(0.445918 0.316907 0.0107796)
(0.465422 0.330741 0.0112563)
(0.486604 0.345761 0.0117751)
(0.509569 0.362042 0.0123389)
(0.534751 0.379898 0.0129591)
(0.384231 0.272994 0.00927672)
(0.397479 0.282397 0.0095989)
(0.411711 0.292495 0.00994539)
(0.427071 0.303391 0.0103198)
(0.443729 0.315204 0.0107266)
(0.46187 0.328064 0.0111703)
(0.481666 0.34209 0.0116555)
(0.50323 0.357361 0.0121851)
(0.526635 0.37393 0.0127616)
(0.552418 0.392185 0.0133989)
(0.349788 0.248877 0.00849364)
(0.362727 0.25808 0.00880879)
(0.37667 0.267997 0.00914877)
(0.391756 0.278724 0.00951705)
(0.408141 0.290373 0.00991762)
(0.425996 0.303064 0.0103549)
(0.445488 0.316916 0.0108331)
(0.466747 0.332019 0.0113559)
(0.489834 0.348418 0.0119251)
(0.514816 0.366164 0.0125433)
(0.368511 0.26205 0.00892893)
(0.381774 0.271475 0.00925205)
(0.396045 0.281615 0.00960014)
(0.411461 0.292567 0.00997667)
(0.428175 0.304437 0.0103856)
(0.446351 0.317343 0.0108311)
(0.466134 0.331385 0.011317)
(0.487617 0.34663 0.0118461)
(0.510828 0.363099 0.0124197)
(0.535945 0.380926 0.0130431)
(0.384955 0.2736 0.00931949)
(0.398385 0.283137 0.00964709)
(0.412808 0.293376 0.00999942)
(0.428363 0.304417 0.01038)
(0.445209 0.31637 0.0107929)
(0.463515 0.329354 0.0112426)
(0.483434 0.343477 0.0117331)
(0.505054 0.358799 0.012267)
(0.528414 0.37535 0.0128458)
(0.553954 0.393449 0.0134814)
(0.3987 0.283232 0.00965014)
(0.412202 0.292813 0.00998)
(0.426695 0.303095 0.0103346)
(0.442329 0.314183 0.0107178)
(0.459284 0.326202 0.0111343)
(0.477756 0.339292 0.011589)
(0.497926 0.353576 0.0120869)
(0.519885 0.369118 0.0126306)
(0.543636 0.385921 0.0132208)
(0.569718 0.404374 0.013872)
(0.368365 0.262028 0.00893525)
(0.381563 0.271414 0.00925852)
(0.395776 0.28152 0.00960713)
(0.41115 0.292449 0.00998484)
(0.427856 0.304322 0.0103961)
(0.446082 0.317272 0.0108457)
(0.466007 0.331424 0.0113387)
(0.487751 0.346864 0.0118787)
(0.511319 0.363594 0.0124665)
(0.53669 0.381606 0.0131031)
(0.385058 0.273762 0.00930972)
(0.398568 0.283361 0.00964043)
(0.413098 0.293683 0.00999662)
(0.428789 0.304827 0.010382)
(0.445807 0.316909 0.0108008)
(0.464326 0.330053 0.0112578)
(0.484499 0.344366 0.0117571)
(0.506401 0.3599 0.0123013)
(0.529997 0.376631 0.0128906)
(0.555456 0.394689 0.0135305)
(0.399781 0.284089 0.00965077)
(0.41345 0.293794 0.00998561)
(0.428121 0.304207 0.0103456)
(0.443935 0.315429 0.0107344)
(0.461062 0.327578 0.0111565)
(0.479684 0.340781 0.0116168)
(0.499962 0.355152 0.0121196)
(0.521967 0.370738 0.0126675)
(0.545666 0.387518 0.0132606)
(0.571501 0.405813 0.0139111)
(0.41215 0.292742 0.00994196)
(0.425895 0.302495 0.0102791)
(0.440635 0.312949 0.0106412)
(0.456519 0.324211 0.0110323)
(0.473734 0.336411 0.0114573)
(0.492491 0.349697 0.0119217)
(0.512983 0.364203 0.0124309)
(0.535288 0.379981 0.0129875)
(0.559335 0.396981 0.0135907)
(0.585663 0.415595 0.0142553)
)
;

boundaryField
{
    inlet
    {
        type            calculated;
        value           nonuniform 0();
    }
    outlet
    {
        type            calculated;
        value           nonuniform 0();
    }
    bottom
    {
        type            calculated;
        value           uniform (0 0 0);
    }
    top
    {
        type            symmetryPlane;
    }
    side1
    {
        type            symmetryPlane;
    }
    side2
    {
        type            symmetryPlane;
    }
    procBoundary9to1
    {
        type            processor;
        value           nonuniform List<vector> 
50
(
(0.250005 0.178173 0.00597499)
(0.260456 0.185624 0.00622431)
(0.271785 0.1937 0.0064946)
(0.284105 0.202482 0.00678863)
(0.297552 0.212068 0.00710965)
(0.312289 0.222573 0.00746155)
(0.32851 0.234135 0.00784897)
(0.346448 0.246922 0.00827757)
(0.366392 0.261137 0.00875423)
(0.388694 0.277034 0.00928747)
(0.279853 0.199369 0.00674006)
(0.291293 0.207522 0.0070148)
(0.303656 0.216332 0.0073118)
(0.317054 0.225879 0.00763382)
(0.331619 0.236258 0.00798406)
(0.347506 0.247578 0.00836627)
(0.364897 0.259969 0.00878491)
(0.384011 0.273589 0.00924536)
(0.405128 0.288636 0.00975449)
(0.428635 0.30539 0.0103218)
(0.306412 0.218214 0.00743151)
(0.318582 0.226884 0.00772589)
(0.331705 0.236232 0.00804356)
(0.345896 0.246341 0.00838733)
(0.361284 0.257301 0.00876041)
(0.378016 0.269218 0.0091665)
(0.39626 0.282212 0.00960979)
(0.416214 0.296423 0.0100953)
(0.43814 0.31204 0.0106297)
(0.462483 0.329382 0.0112241)
(0.330028 0.234953 0.00805684)
(0.342705 0.243982 0.00836597)
(0.356363 0.253707 0.00869936)
(0.37112 0.264215 0.00906004)
(0.387111 0.275601 0.00945143)
(0.404483 0.287968 0.00987731)
(0.423391 0.301427 0.0103418)
(0.444005 0.3161 0.0108493)
(0.466554 0.33215 0.0114059)
(0.491532 0.349936 0.0120246)
(0.35113 0.249892 0.00858001)
(0.364175 0.25918 0.00890055)
(0.378223 0.26918 0.00924629)
(0.393403 0.279985 0.00962059)
(0.40986 0.291697 0.0100272)
(0.427744 0.304423 0.0104704)
(0.447206 0.318268 0.010954)
(0.468383 0.333332 0.0114823)
(0.491451 0.349742 0.0120604)
(0.516946 0.367883 0.0127024)
)
;
    }
    procBoundary9to8
    {
        type            processor;
        value           nonuniform List<vector> 
20
(
(0.266892 0.189982 0.00638832)
(0.293718 0.208934 0.00704038)
(0.316794 0.225209 0.0076027)
(0.335776 0.238577 0.00806648)
(0.292021 0.207814 0.00702546)
(0.31537 0.224293 0.0075874)
(0.335426 0.238418 0.00807345)
(0.352014 0.250082 0.0084774)
(0.31439 0.223676 0.00759921)
(0.334753 0.238032 0.00808212)
(0.352321 0.250389 0.00850431)
(0.36695 0.260658 0.00885857)
(0.334253 0.237749 0.00811527)
(0.352156 0.250359 0.00853132)
(0.367691 0.261271 0.00890013)
(0.380702 0.27039 0.00921264)
(0.352048 0.250346 0.00853367)
(0.367949 0.261538 0.00889134)
(0.381809 0.27126 0.00921218)
(0.393467 0.279417 0.0094861)
)
;
    }
    procBoundary9to10
    {
        type            processor;
        value           nonuniform List<vector> 
20
(
(0.457345 0.32563 0.0109549)
(0.491573 0.349665 0.0118002)
(0.519389 0.369154 0.0124919)
(0.543359 0.38591 0.0130909)
(0.490981 0.349479 0.0118285)
(0.519582 0.369498 0.0125321)
(0.54377 0.386388 0.0131333)
(0.564853 0.401074 0.0136617)
(0.52015 0.370127 0.0126074)
(0.544571 0.387165 0.013201)
(0.565769 0.401917 0.0137254)
(0.584427 0.414865 0.0141932)
(0.545712 0.38819 0.0133117)
(0.566909 0.402933 0.0138155)
(0.585648 0.415927 0.0142743)
(0.602278 0.427422 0.01469)
(0.568389 0.404185 0.0139056)
(0.587033 0.417113 0.0143296)
(0.603736 0.428654 0.0147281)
(0.618659 0.438928 0.0150946)
)
;
    }
    procBoundary9to17
    {
        type            processor;
        value           nonuniform List<vector> 
50
(
(0.36635 0.26021 0.0088093)
(0.378856 0.269082 0.0091115)
(0.392298 0.278615 0.00943652)
(0.406829 0.288918 0.00978818)
(0.422641 0.300125 0.0101712)
(0.439963 0.312397 0.0105913)
(0.459048 0.325909 0.0110546)
(0.48013 0.340825 0.0115672)
(0.503357 0.357246 0.0121329)
(0.528807 0.375228 0.0127541)
(0.381246 0.27075 0.00918809)
(0.393992 0.279791 0.00949731)
(0.407677 0.289496 0.00982963)
(0.422459 0.299974 0.010189)
(0.438538 0.311367 0.0105804)
(0.456161 0.323848 0.0110101)
(0.47561 0.337612 0.0114851)
(0.497136 0.352835 0.012012)
(0.520843 0.369585 0.0125936)
(0.546624 0.387785 0.0132278)
(0.395156 0.280588 0.00954475)
(0.408155 0.289806 0.00986142)
(0.422092 0.299687 0.0102014)
(0.437121 0.310338 0.0105686)
(0.453449 0.321904 0.0109681)
(0.471334 0.334566 0.0114067)
(0.491083 0.348537 0.0118922)
(0.512974 0.364011 0.0124318)
(0.537082 0.381033 0.0130279)
(0.563126 0.399403 0.0136743)
(0.408097 0.289735 0.00987951)
(0.42135 0.299131 0.0102038)
(0.435537 0.309187 0.0105515)
(0.450807 0.320006 0.0109265)
(0.467365 0.331731 0.011334)
(0.485479 0.344551 0.011781)
(0.505478 0.358693 0.012276)
(0.527671 0.374372 0.0128272)
(0.552118 0.391622 0.0134369)
(0.578382 0.410133 0.014095)
(0.420201 0.298286 0.0101321)
(0.433701 0.307855 0.0104637)
(0.448131 0.31808 0.0108189)
(0.463633 0.32906 0.0112012)
(0.480404 0.340933 0.011616)
(0.49872 0.353891 0.0120703)
(0.518928 0.368175 0.0125734)
(0.541371 0.384022 0.0131347)
(0.566106 0.401464 0.0137568)
(0.592555 0.42009 0.0144269)
)
;
    }
}


// ************************************************************************* //
