/*--------------------------------*- C++ -*----------------------------------*\
| =========                 |                                                 |
| \\      /  F ield         | OpenFOAM: The Open Source CFD Toolbox           |
|  \\    /   O peration     | Version:  2.4.0                                 |
|   \\  /    A nd           | Web:      www.OpenFOAM.org                      |
|    \\/     M anipulation  |                                                 |
\*---------------------------------------------------------------------------*/
FoamFile
{
    version     2.0;
    format      ascii;
    class       volVectorField;
    location    "0.02";
    object      Ub;
}
// * * * * * * * * * * * * * * * * * * * * * * * * * * * * * * * * * * * * * //

dimensions      [0 1 -1 0 0 0 0];

internalField   nonuniform List<vector> 
200
(
(5.96419 0.314448 2.28226)
(5.90561 0.485831 1.77768)
(5.94154 0.366434 1.49634)
(5.39604 -0.637017 3.11333)
(5.2143 -3.84127 -0.812532)
(4.37368 -5.53841 10.6022)
(4.41464 -8.22591 -2.45722)
(3.25487 -6.55372 14.5802)
(5.06476 -6.25426 -3.09198)
(6.16867 -4.51623 -3.69872)
(5.9176 0.103148 1.69011)
(6.88921 0.11889 1.06646)
(6.54909 -0.0966013 1.81791)
(6.21894 -1.57637 0.819066)
(5.58134 -3.1619 4.78326)
(4.27371 -6.919 -3.77385)
(3.34787 -6.41255 8.19094)
(4.02808 -9.9137 -4.18482)
(2.74079 -4.54135 5.60155)
(5.91046 -11.3871 -5.72297)
(5.51616 -3.69981 3.84988)
(6.11791 -1.88414 3.28711)
(7.18071 -0.678041 1.426)
(6.39844 -0.893184 2.38826)
(5.19393 -2.91393 -0.317241)
(4.00233 -3.24361 2.37961)
(3.19599 -8.63504 -8.37996)
(3.90176 -4.93757 3.61731)
(8.11536 -12.2924 -5.64617)
(3.90568 -2.76961 1.8544)
(7.01931 -0.501315 -0.249061)
(4.82711 -7.08593 5.62273)
(4.71686 -3.09642 3.54843)
(6.03005 -1.63126 2.21242)
(4.64329 -1.40003 3.2106)
(3.44555 -3.56732 -2.59152)
(2.93164 -2.2768 -0.539804)
(3.59983 -10.9784 -17.2174)
(6.959 -4.24395 2.55037)
(11.4358 -9.62138 -4.80448)
(7.90719 -2.16285 -0.0083195)
(5.99524 -0.867908 2.32528)
(5.17777 -0.572058 2.42998)
(4.33702 0.0574404 1.82731)
(3.28303 -1.68515 6.83856)
(3.49863 -2.10853 -0.342611)
(4.01015 -3.0691 9.26325)
(5.59424 -5.46093 -4.89693)
(7.05218 -2.39475 0.490211)
(9.53829 -13.5605 -5.70476)
(8.78407 -2.03044 0.183384)
(7.91941 0.030348 1.37151)
(7.53708 0.871191 2.35345)
(6.63973 0.821315 2.86695)
(4.98713 -0.540112 0.857641)
(4.02109 -1.35619 6.61355)
(4.13812 -5.11093 -5.08311)
(4.10541 -2.17398 5.36774)
(6.98714 -10.4762 -9.54895)
(5.27033 -0.856815 1.0984)
(6.84032 -1.00565 -0.952284)
(9.31486 0.241012 1.99296)
(9.93868 0.492646 2.27688)
(8.0736 0.937955 2.41924)
(6.49966 1.06853 4.67881)
(5.4779 -1.3891 -1.48318)
(4.04058 -1.18715 1.65535)
(4.47409 -8.93528 -14.1581)
(5.01646 -1.92691 -0.855681)
(10.1719 -13.9589 -10.9894)
(6.06595 -3.97643 2.09082)
(9.91163 -1.74929 1.06976)
(10.0884 -2.30539 1.41028)
(11.765 -0.187338 3.40188)
(8.16371 -1.95284 1.99286)
(4.25724 -1.64591 2.30183)
(5.58811 -5.47694 -7.30449)
(4.61265 -3.19495 -2.93548)
(3.7547 -15.9169 -26.4462)
(5.93629 -3.40329 -3.58862)
(6.49119 -1.06247 -0.104291)
(6.90999 0.0547933 1.61513)
(6.24806 3.23384 8.04188)
(5.00928 3.85363 3.90894)
(3.77229 4.26176 9.91682)
(4.17121 6.81422 3.82584)
(4.32246 0.410735 0.571277)
(6.38883 -0.507775 -0.0890212)
(2.10155 -10.5812 -10.8765)
(6.67122 -0.528922 0.0353972)
(7.45058 -1.89192 -1.96256)
(8.20383 1.06115 3.52828)
(7.80239 2.11765 2.40663)
(5.64293 4.99526 11.7722)
(3.75689 5.67138 8.46518)
(3.14325 1.87492 1.30628)
(3.2617 3.08957 5.76554)
(3.20613 -4.04667 -6.22293)
(5.63052 -0.448706 -0.964783)
(-1.01608 -19.914 -25.1795)
(8.06227 -5.25556 -5.66253)
(9.3539 -0.511786 -1.7946)
(8.74605 3.45269 8.95561)
(7.11157 4.8042 10.4602)
(5.5907 1.53271 2.45845)
(0.229901 5.49648 10.8189)
(3.91537 -0.698226 -2.9285)
(4.32026 -1.09012 -2.59439)
(2.22022 -5.25657 -7.79888)
(4.1423 -2.60966 -4.61023)
(9.41372 -3.16527 -5.09832)
(8.63105 -3.33464 -0.0428735)
(9.74365 3.67491 12.0173)
(7.56878 0.36427 4.35566)
(-4.60501 30.8616 75.7784)
(8.39747 3.39135 -0.553576)
(5.84778 -0.481038 -2.6291)
(6.13508 -2.23489 -3.83872)
(4.12449 -4.94865 -7.1592)
(1.06242 -7.65247 -8.3725)
(8.41531 1.16698 -1.98816)
(7.71993 3.25366 4.3675)
(7.69401 3.51033 0.436845)
(7.38941 3.61618 17.1577)
(3.75637 10.5143 -3.648)
(2.87934 7.55775 -3.603)
(4.20468 1.4946 -3.65223)
(4.18969 -3.99746 -4.36134)
(4.69108 -1.76219 -2.80231)
(1.64932 -6.66804 -3.50514)
(9.38346 0.146065 -2.44904)
(9.9179 2.89721 -0.226225)
(8.21283 5.61694 10.3137)
(4.36392 8.34617 4.61822)
(8.621 2.01549 12.065)
(0.218626 5.39295 -0.745805)
(-0.0519015 0.38818 -6.61781)
(3.17229 0.132904 -3.81815)
(2.77559 -3.68356 -4.91652)
(2.71456 -2.3531 -4.53113)
(9.97964 -0.850067 -2.23299)
(8.24708 1.549 2.66285)
(7.26792 6.6853 11.7616)
(6.90252 2.8261 4.2983)
(1.01258 7.80118 19.1567)
(4.41051 -1.46091 -5.17977)
(2.50576 -0.51812 -6.20123)
(3.79386 -2.73939 -4.15543)
(2.4468 -1.16022 -3.3396)
(1.66405 -3.02504 -4.2992)
(7.49718 -2.65794 -3.00044)
(6.50568 3.55635 9.95219)
(6.64215 0.81237 2.36837)
(0.601252 14.2534 27.1345)
(8.51571 -3.0028 -5.51847)
(7.97447 16.5685 -3.02114)
(7.09958 4.3271 -3.79678)
(7.70829 1.02013 -6.88294)
(8.83636 3.18422 -2.05748)
(2.35625 -2.52845 -1.83949)
(3.66236 -1.26783 -0.818613)
(3.45819 2.39321 5.7706)
(5.12365 -0.0879235 4.73227)
(-1.18245 8.69389 21.945)
(12.6937 -7.37555 22.5179)
(3.41191 -1.19858 -7.34636)
(7.81143 -2.50668 -4.18284)
(6.89743 -1.16077 -4.39714)
(5.00613 -2.6935 -1.14051)
(2.23346 -1.63207 -3.92405)
(0.0213993 3.51879 14.709)
(4.80814 0.782885 2.64686)
(1.17013 9.31105 19.7238)
(10.3924 2.02024 5.11054)
(-10.0382 20.6465 45.6081)
(34.4459 -23.6937 92.366)
(9.8914 -1.06668 -8.03582)
(9.88966 0.181915 -4.25923)
(8.18282 1.63205 -4.74758)
(6.23823 -1.19458 -3.01776)
(0.619914 0.952904 -1.15757)
(-2.11342 10.3884 28.1861)
(4.32231 4.60347 2.5575)
(-3.92681 22.2161 59.4574)
(20.2411 -0.411299 6.63592)
(15.6097 3.79662 -3.26836)
(7.7039 6.93088 -5.6217)
(7.79479 3.94638 -3.55421)
(11.9277 -7.698 -1.86377)
(3.89687 3.45937 -4.15661)
(-0.766647 5.33125 9.16604)
(3.88592 4.18335 -0.171774)
(1.56723 14.6123 26.1968)
(12.2608 5.4149 -1.45168)
(15.9624 5.21391 1.10637)
(9.9486 4.24538 -6.82946)
(9.68404 2.25791 -5.00739)
(11.5148 -4.44548 -5.06174)
(4.25624 4.24594 -3.10318)
(3.35058 4.0582 -0.901104)
)
;

boundaryField
{
    inlet
    {
        type            fixedValue;
        value           nonuniform 0();
    }
    outlet
    {
        type            zeroGradient;
    }
    bottom
    {
        type            fixedValue;
        value           uniform (0 0 0);
    }
    top
    {
        type            symmetryPlane;
    }
    side1
    {
        type            symmetryPlane;
    }
    side2
    {
        type            symmetryPlane;
    }
    procBoundary9to1
    {
        type            processor;
        value           nonuniform List<vector> 
50
(
(5.20957 2.78093 3.06166)
(4.83365 4.16033 3.08034)
(5.66259 1.08968 3.54236)
(4.76472 0.744204 1.96874)
(4.54734 -1.21154 4.51946)
(4.7511 -3.15882 -0.403394)
(5.18739 -3.92139 7.18132)
(5.86034 -2.04661 -1.04287)
(6.24227 -4.61055 -6.39688)
(9.8684 -2.91342 0.189542)
(5.00177 0.88434 -0.0957705)
(1.81796 -2.11739 1.1994)
(6.34004 -0.405225 3.78618)
(4.23825 -0.0822325 2.81259)
(3.39415 0.690421 3.2949)
(4.76618 -1.10692 2.56164)
(2.37536 2.35359 0.463779)
(7.70232 -3.71028 2.53317)
(7.05428 -6.82009 -2.3376)
(6.41502 -4.52644 -3.73864)
(6.80158 -2.2376 -1.24708)
(7.50817 -0.0549908 2.27737)
(6.57146 0.696613 1.63641)
(4.81377 4.47255 8.26071)
(5.32113 4.06113 2.22003)
(5.08171 1.50371 3.35002)
(6.50336 2.86936 -0.944935)
(3.68972 -7.547 -9.2297)
(7.64398 -1.9366 -1.00306)
(8.70865 -1.3444 -0.0195975)
(7.26495 0.646597 -1.45244)
(7.28946 0.725707 -1.03051)
(6.74947 4.1186 7.6251)
(6.47263 4.07354 -0.356582)
(6.09006 5.21938 7.75555)
(5.63552 2.12943 -3.64108)
(5.38732 -1.79038 -3.46451)
(6.91705 -0.450703 -1.68132)
(4.77814 -7.60297 -3.75236)
(7.95413 -3.06484 -5.54634)
(5.05019 -0.595927 -1.23619)
(4.70868 1.00471 4.98266)
(5.00605 0.754992 -0.7205)
(4.90131 0.902276 10.0853)
(5.19943 0.132046 -3.03219)
(6.65625 -0.906797 2.93856)
(6.85729 0.378477 -4.34231)
(6.61143 -0.782903 -2.11431)
(5.48453 -2.02327 -4.6383)
(4.86125 -3.33633 4.60623)
)
;
    }
    procBoundary9to8
    {
        type            processor;
        value           nonuniform List<vector> 
20
(
(5.06498 -0.333798 2.16016)
(5.67189 -0.744239 1.05346)
(6.32811 -0.360201 0.758124)
(5.78695 -2.43629 2.13007)
(3.7828 7.92119 -10.1764)
(5.11801 -3.8179 -1.17533)
(4.69076 -2.36642 -1.86422)
(7.95445 -0.517271 0.51382)
(7.04675 -1.37811 -1.81236)
(7.10574 -1.89613 -0.468316)
(8.83674 -1.69868 -1.89456)
(9.43641 -0.416846 -1.00207)
(7.44907 0.278584 -1.68333)
(9.50139 -0.732332 -2.8477)
(9.02425 -1.76673 -4.20889)
(7.93491 -1.17488 -2.206)
(4.71096 -2.08636 -0.236046)
(2.667 -1.81583 -2.2366)
(0.369247 0.952883 4.6314)
(1.0527 0.931984 -2.19669)
)
;
    }
    procBoundary9to10
    {
        type            processor;
        value           nonuniform List<vector> 
20
(
(10.2786 -5.24668 1.45659)
(6.11835 -2.60931 0.174123)
(12.4549 -23.5355 -14.0538)
(8.2102 2.53208 0.998836)
(6.52184 -3.24467 -1.4532)
(11.4831 -20.3131 -9.47487)
(5.22158 -0.0290904 0.115144)
(16.8272 -34.401 -22.875)
(7.55729 0.0275641 2.88624)
(5.79756 -1.37503 -2.75675)
(1.25677 -10.6321 -11.1103)
(2.86806 -4.78726 -4.32918)
(5.15296 -3.5341 -5.38407)
(0.06348 -4.22461 -4.80902)
(0.485043 -3.19414 -1.7295)
(1.03257 -3.19404 -2.93329)
(1.44998 -2.79207 4.64201)
(1.68443 0.37874 -3.24921)
(3.35635 1.56864 -3.7362)
(4.09724 2.85461 1.00957)
)
;
    }
    procBoundary9to17
    {
        type            processor;
        value           nonuniform List<vector> 
50
(
(6.40658 -3.96414 1.86571)
(5.75106 -3.14038 1.65135)
(5.3786 -6.7784 1.63922)
(4.15826 -4.97088 4.76234)
(5.58164 -2.14965 5.15237)
(4.78382 -0.739385 1.83262)
(3.94594 -4.9113 -7.86472)
(4.49223 -1.86683 -2.42256)
(3.82221 -17.8803 -46.748)
(13.8565 -2.54678 25.9711)
(8.00779 -1.26546 1.22974)
(7.72692 -3.63127 1.71058)
(8.50503 -1.57985 2.05948)
(5.63884 -8.84696 -1.95034)
(6.60487 -2.25083 -3.72654)
(8.32253 -2.63629 0.839753)
(7.19495 -1.87992 1.41414)
(6.77625 -6.81917 -7.63124)
(3.43611 -4.90863 -3.99413)
(-0.806913 -28.9885 -49.1476)
(8.89887 -2.36605 -1.46146)
(8.10515 -0.73711 2.45941)
(8.0248 0.651256 2.07893)
(1.43602 17.1777 32.0254)
(8.3661 1.08882 -2.3444)
(8.32691 -2.7244 -3.12261)
(7.28946 -0.577076 -2.92687)
(7.68024 1.11638 -0.795795)
(6.47507 -7.18019 -9.05201)
(3.70383 -7.6377 -12.0022)
(6.11207 0.109095 0.0321277)
(7.21698 -1.19946 -1.58)
(2.37308 15.1536 19.2966)
(9.0933 -2.17908 -4.36274)
(4.02139 26.2339 0.92295)
(5.17528 4.53602 -3.19022)
(9.22408 -1.4612 -5.06821)
(8.75848 -1.12028 -4.48593)
(7.82563 3.83705 -2.78949)
(13.8058 5.83741 -3.59233)
(3.18189 2.56129 -2.20088)
(2.67157 8.32722 8.40465)
(7.09393 4.09711 -2.04144)
(8.95216 12.041 2.47683)
(9.52053 2.91339 -3.78098)
(8.79389 1.73227 -2.62409)
(8.13129 2.42642 -0.0902409)
(6.12708 2.92453 -1.91656)
(4.7562 4.11179 -1.31443)
(4.36066 4.07141 -1.01136)
)
;
    }
}


// ************************************************************************* //
