/*--------------------------------*- C++ -*----------------------------------*\
| =========                 |                                                 |
| \\      /  F ield         | OpenFOAM: The Open Source CFD Toolbox           |
|  \\    /   O peration     | Version:  2.4.0                                 |
|   \\  /    A nd           | Web:      www.OpenFOAM.org                      |
|    \\/     M anipulation  |                                                 |
\*---------------------------------------------------------------------------*/
FoamFile
{
    version     2.0;
    format      ascii;
    class       volVectorField;
    location    "0.02";
    object      Uc;
}
// * * * * * * * * * * * * * * * * * * * * * * * * * * * * * * * * * * * * * //

dimensions      [0 1 -1 0 0 0 0];

internalField   nonuniform List<vector> 
200
(
(2.68286e-50 1.91031e-50 6.4208e-52)
(4.91605e-48 3.50037e-48 1.17658e-49)
(8.90446e-46 6.3401e-46 2.13124e-47)
(1.59258e-43 1.13391e-43 3.81196e-45)
(2.80899e-41 1.99994e-41 6.72398e-43)
(4.87884e-39 3.47352e-39 1.16796e-40)
(8.33006e-37 5.93044e-37 1.99435e-38)
(1.3952e-34 9.93251e-35 3.34071e-36)
(2.28641e-32 1.62765e-32 5.47541e-34)
(3.65379e-30 2.60096e-30 8.75142e-32)
(2.57206e-52 1.83003e-52 6.16455e-54)
(4.55635e-50 3.24178e-50 1.09213e-51)
(7.97095e-48 5.67106e-48 1.91078e-49)
(1.37566e-45 9.78705e-46 3.29809e-47)
(2.33949e-43 1.66436e-43 5.60954e-45)
(3.91548e-41 2.78544e-41 9.38974e-43)
(6.43994e-39 4.58113e-39 1.54462e-40)
(1.0392e-36 7.39216e-37 2.49298e-38)
(1.642e-34 1.16796e-34 3.93985e-36)
(2.53356e-32 1.80206e-32 6.08047e-34)
(1.87747e-54 1.335e-54 4.50542e-56)
(3.2306e-52 2.2971e-52 7.75348e-54)
(5.48477e-50 3.89979e-50 1.31653e-51)
(9.17753e-48 6.52517e-48 2.20324e-49)
(1.51164e-45 1.07472e-45 3.62958e-47)
(2.44742e-43 1.73992e-43 5.87759e-45)
(3.88833e-41 2.76413e-41 9.34003e-43)
(6.04838e-39 4.29938e-39 1.45322e-40)
(9.18104e-37 6.52573e-37 2.20654e-38)
(1.35212e-34 9.61008e-35 3.25075e-36)
(1.11132e-56 7.89806e-57 2.66967e-58)
(1.85786e-54 1.32032e-54 4.46367e-56)
(3.06094e-52 2.17523e-52 7.35536e-54)
(4.96464e-50 3.5279e-50 1.19321e-51)
(7.9175e-48 5.62591e-48 1.9033e-49)
(1.23989e-45 8.80961e-46 2.98131e-47)
(1.90365e-43 1.35247e-43 4.5786e-45)
(2.8593e-41 2.03123e-41 6.87929e-43)
(4.18549e-39 2.97305e-39 1.00738e-40)
(5.92206e-37 4.20619e-37 1.42599e-38)
(3.0346e-52 2.16022e-52 7.29978e-54)
(5.37087e-50 3.82327e-50 1.29201e-51)
(9.38561e-48 6.68105e-48 2.25791e-49)
(1.61766e-45 1.15149e-45 3.89191e-47)
(2.74659e-43 1.95503e-43 6.6086e-45)
(4.58763e-41 3.26539e-41 1.10397e-42)
(7.52651e-39 5.35703e-39 1.81146e-40)
(1.21061e-36 8.61623e-37 2.91424e-38)
(1.90461e-34 1.35549e-34 4.58593e-36)
(2.92112e-32 2.07885e-32 7.03556e-34)
(2.8944e-54 2.05901e-54 6.96322e-56)
(4.96941e-52 3.53504e-52 1.19564e-53)
(8.41729e-50 5.98754e-50 2.02544e-51)
(1.40513e-47 9.99492e-48 3.38164e-49)
(2.30919e-45 1.6425e-45 5.55833e-47)
(3.73144e-43 2.654e-43 8.98361e-45)
(5.92091e-41 4.21106e-41 1.42584e-42)
(9.21093e-39 6.55062e-39 2.21877e-40)
(1.4017e-36 9.9681e-37 3.37768e-38)
(2.0787e-34 1.47818e-34 5.01117e-36)
(2.12422e-56 1.51024e-56 5.11276e-58)
(3.55003e-54 2.52386e-54 8.5458e-56)
(5.84798e-52 4.15742e-52 1.408e-53)
(9.48551e-50 6.74311e-50 2.28426e-51)
(1.5132e-47 1.07565e-47 3.64488e-49)
(2.37115e-45 1.68542e-45 5.71306e-47)
(3.64417e-43 2.59011e-43 8.78317e-45)
(5.48178e-41 3.89589e-41 1.32172e-42)
(8.04234e-39 5.71519e-39 1.93999e-40)
(1.14208e-36 8.11545e-37 2.75648e-38)
(1.27125e-58 9.03346e-59 3.06158e-60)
(2.06886e-56 1.47007e-56 4.98339e-58)
(3.31492e-54 2.35539e-54 7.98657e-56)
(5.22374e-52 3.7115e-52 1.25886e-53)
(8.08657e-50 5.7452e-50 1.94934e-51)
(1.22835e-47 8.72625e-48 2.96206e-49)
(1.8285e-45 1.29886e-45 4.41107e-47)
(2.66249e-43 1.89108e-43 6.42601e-45)
(3.77756e-41 2.68276e-41 9.12234e-43)
(5.16844e-39 3.67012e-39 1.24896e-40)
(1.72643e-54 1.22867e-54 4.17291e-56)
(2.95921e-52 2.10601e-52 7.15306e-54)
(5.00231e-50 3.55997e-50 1.20927e-51)
(8.33041e-48 5.92834e-48 2.01406e-49)
(1.36508e-45 9.71434e-46 3.3009e-47)
(2.19842e-43 1.5644e-43 5.31707e-45)
(3.47484e-41 2.4726e-41 8.40641e-43)
(5.38224e-39 3.82966e-39 1.30251e-40)
(8.15265e-37 5.80059e-37 1.97376e-38)
(1.20343e-34 8.56196e-35 2.91499e-36)
(1.64971e-56 1.17334e-56 3.98314e-58)
(2.75119e-54 1.95672e-54 6.64353e-56)
(4.52182e-52 3.21595e-52 1.0921e-53)
(7.31718e-50 5.20384e-50 1.76759e-51)
(1.16454e-47 8.28161e-48 2.81384e-49)
(1.82084e-45 1.29482e-45 4.40097e-47)
(2.79382e-43 1.98661e-43 6.75517e-45)
(4.2007e-41 2.9868e-41 1.01614e-42)
(6.17481e-39 4.39014e-39 1.49449e-40)
(8.82776e-37 6.27598e-37 2.13803e-38)
(1.22405e-58 8.70117e-59 2.95478e-60)
(1.9911e-56 1.41533e-56 4.80734e-58)
(3.1893e-54 2.26696e-54 7.70206e-56)
(5.02509e-52 3.57168e-52 1.21388e-53)
(7.77976e-50 5.52932e-50 1.87993e-51)
(1.18217e-47 8.40151e-48 2.85777e-49)
(1.76099e-45 1.25141e-45 4.25897e-47)
(2.56706e-43 1.82405e-43 6.21189e-45)
(3.64875e-41 2.59239e-41 8.83521e-43)
(5.00864e-39 3.55825e-39 1.21379e-40)
(7.43578e-61 5.28308e-61 1.79527e-62)
(1.18037e-58 8.38618e-59 2.85053e-60)
(1.84299e-56 1.30933e-56 4.45197e-58)
(2.82715e-54 2.00841e-54 6.83161e-56)
(4.25618e-52 3.02339e-52 1.02888e-53)
(6.28204e-50 4.4621e-50 1.51931e-51)
(9.08191e-48 6.45016e-48 2.19766e-49)
(1.28423e-45 9.11977e-46 3.10962e-47)
(1.7695e-43 1.25641e-43 4.28792e-45)
(2.34578e-41 1.66537e-41 5.6897e-43)
(6.60342e-57 4.69838e-57 1.60346e-58)
(1.09902e-54 7.81951e-55 2.66895e-56)
(1.80179e-52 1.28196e-52 4.3763e-54)
(2.90667e-50 2.06802e-50 7.06127e-52)
(4.60875e-48 3.27891e-48 1.11991e-49)
(7.17433e-46 5.104e-46 1.74389e-47)
(1.09525e-43 7.79148e-44 2.66336e-45)
(1.63784e-41 1.16507e-41 3.98482e-43)
(2.39506e-39 1.7036e-39 5.83083e-41)
(3.41187e-37 2.4267e-37 8.31288e-39)
(6.35869e-59 4.52169e-59 1.54069e-60)
(1.03228e-56 7.34044e-57 2.50167e-58)
(1.64992e-54 1.17321e-54 3.99941e-56)
(2.59368e-52 1.84422e-52 6.28889e-54)
(4.00603e-50 2.84833e-50 9.7168e-52)
(6.07354e-48 4.31811e-48 1.47379e-49)
(9.03034e-46 6.41987e-46 2.19243e-47)
(1.31529e-43 9.3499e-44 3.19534e-45)
(1.87231e-41 1.33085e-41 4.55211e-43)
(2.58723e-39 1.83889e-39 6.29645e-41)
(4.78912e-61 3.40378e-61 1.15941e-62)
(7.59815e-59 5.40009e-59 1.83993e-60)
(1.18586e-56 8.42774e-57 2.87251e-58)
(1.8187e-54 1.29246e-54 4.40703e-56)
(2.73795e-52 1.94561e-52 6.63746e-54)
(4.04214e-50 2.87218e-50 9.80427e-52)
(5.84686e-48 4.15416e-48 1.41905e-49)
(8.2754e-46 5.87898e-46 2.00996e-47)
(1.14202e-43 8.11212e-44 2.77625e-45)
(1.51868e-41 1.07865e-41 3.69596e-43)
(2.96146e-63 2.10379e-63 7.16792e-65)
(4.59413e-61 3.2635e-61 1.1123e-62)
(7.00306e-59 4.9745e-59 1.69615e-60)
(1.04771e-56 7.44184e-57 2.53866e-58)
(1.53669e-54 1.09142e-54 3.72535e-56)
(2.20769e-52 1.56785e-52 5.35522e-54)
(3.10474e-50 2.20466e-50 7.53657e-52)
(4.2705e-48 3.03205e-48 1.03751e-49)
(5.72478e-46 4.06395e-46 1.39222e-47)
(7.36709e-44 5.22901e-44 1.79381e-45)
(1.92306e-59 1.36793e-59 4.66468e-61)
(3.11492e-57 2.21571e-57 7.55827e-59)
(4.96457e-55 3.53135e-55 1.20511e-56)
(7.77677e-53 5.53157e-53 1.8886e-54)
(1.19593e-50 8.50628e-51 2.90586e-52)
(1.80363e-48 1.28282e-48 4.38524e-50)
(2.66538e-46 1.89562e-46 6.48532e-48)
(3.85668e-44 2.74268e-44 9.39255e-46)
(5.45716e-42 3.88054e-42 1.33052e-43)
(7.51939e-40 5.34655e-40 1.83584e-41)
(1.87484e-61 1.33294e-61 4.53289e-63)
(2.96868e-59 2.11057e-59 7.18053e-61)
(4.62339e-57 3.2869e-57 1.11882e-58)
(7.07444e-55 5.02922e-55 1.71289e-56)
(1.06247e-52 7.55272e-53 2.5741e-54)
(1.56482e-50 1.11231e-50 3.79397e-52)
(2.2587e-48 1.60541e-48 5.48108e-50)
(3.19295e-46 2.26923e-46 7.75621e-48)
(4.4108e-44 3.13444e-44 1.0728e-45)
(5.90388e-42 4.19511e-42 1.43815e-43)
(1.43759e-63 1.02157e-63 3.47036e-65)
(2.22859e-61 1.58361e-61 5.38246e-63)
(3.39527e-59 2.41255e-59 8.20471e-61)
(5.07769e-57 3.60785e-57 1.22779e-58)
(7.44633e-55 5.2905e-55 1.80182e-56)
(1.06987e-52 7.60067e-53 2.59096e-54)
(1.50514e-50 1.06919e-50 3.64862e-52)
(2.07172e-48 1.47148e-48 5.02783e-50)
(2.78078e-46 1.97484e-46 6.75778e-48)
(3.58901e-44 2.54849e-44 8.73611e-46)
(9.06843e-66 6.44115e-66 2.18751e-67)
(1.37698e-63 9.78011e-64 3.32338e-65)
(2.0526e-61 1.4578e-61 4.95699e-63)
(2.99985e-59 2.13044e-59 7.24953e-61)
(4.29354e-57 3.04896e-57 1.0384e-58)
(6.01314e-55 4.26968e-55 1.4556e-56)
(8.23806e-53 5.84878e-53 1.99629e-54)
(1.10377e-50 7.83524e-51 2.67803e-52)
(1.44178e-48 1.02328e-48 3.50323e-50)
(1.80395e-46 1.28011e-46 4.3909e-48)
)
;

boundaryField
{
    inlet
    {
        type            calculated;
        value           nonuniform 0();
    }
    outlet
    {
        type            calculated;
        value           nonuniform 0();
    }
    bottom
    {
        type            calculated;
        value           uniform (0 0 0);
    }
    top
    {
        type            symmetryPlane;
    }
    side1
    {
        type            symmetryPlane;
    }
    side2
    {
        type            symmetryPlane;
    }
    procBoundary9to1
    {
        type            processor;
        value           nonuniform List<vector> 
50
(
(1.80491e-48 1.28632e-48 4.31365e-50)
(3.42755e-46 2.44277e-46 8.19106e-48)
(6.44133e-44 4.5907e-44 1.53923e-45)
(1.1967e-41 8.52888e-42 2.85948e-43)
(2.19528e-39 1.56459e-39 5.24534e-41)
(3.97089e-37 2.83011e-37 9.48765e-39)
(7.07077e-35 5.03947e-35 1.6894e-36)
(1.23704e-32 8.81664e-33 2.95561e-34)
(2.12139e-30 1.51197e-30 5.06867e-32)
(3.55592e-28 2.53441e-28 8.49652e-30)
(2.12199e-50 1.51172e-50 5.11066e-52)
(3.88884e-48 2.77048e-48 9.36495e-50)
(7.04432e-46 5.01855e-46 1.69622e-47)
(1.25984e-43 8.97552e-44 3.03337e-45)
(2.22172e-41 1.58284e-41 5.349e-43)
(3.8574e-39 2.74818e-39 9.28676e-41)
(6.58177e-37 4.68916e-37 1.58457e-38)
(1.1012e-34 7.84548e-35 2.65122e-36)
(1.80151e-32 1.2835e-32 4.33759e-34)
(2.87097e-30 2.04548e-30 6.91348e-32)
(1.23492e-52 8.79459e-53 2.99509e-54)
(2.18873e-50 1.55874e-50 5.30786e-52)
(3.83015e-48 2.72774e-48 9.28779e-50)
(6.61026e-46 4.70771e-46 1.60287e-47)
(1.12364e-43 8.00242e-44 2.72461e-45)
(1.87834e-41 1.33773e-41 4.55479e-43)
(3.08213e-39 2.19506e-39 7.47455e-41)
(4.95258e-37 3.52717e-37 1.20125e-38)
(7.7679e-35 5.53223e-35 1.88456e-36)
(1.18335e-32 8.42784e-33 2.87189e-34)
(4.79469e-55 3.41343e-55 1.17051e-56)
(8.2348e-53 5.86259e-53 2.01024e-54)
(1.39493e-50 9.93099e-51 3.40523e-52)
(2.32791e-48 1.65734e-48 5.68306e-50)
(3.82248e-46 2.72138e-46 9.33269e-48)
(6.16672e-44 4.39034e-44 1.50589e-45)
(9.75731e-42 6.94657e-42 2.38332e-43)
(1.51063e-39 1.07546e-39 3.69123e-41)
(2.28025e-37 1.62336e-37 5.57457e-39)
(3.33403e-35 2.37359e-35 8.15622e-37)
(1.4103e-57 1.00368e-57 3.44614e-59)
(2.35195e-55 1.67386e-55 5.74825e-57)
(3.8644e-53 2.75028e-53 9.44715e-55)
(6.24864e-51 4.44716e-51 1.52809e-52)
(9.93151e-49 7.06825e-49 2.42975e-50)
(1.54952e-46 1.10278e-46 3.79293e-48)
(2.3695e-44 1.68633e-44 5.80396e-46)
(3.54374e-42 2.52196e-42 8.68742e-44)
(5.16366e-40 3.67472e-40 1.26718e-41)
(7.26953e-38 5.17335e-38 1.78627e-39)
)
;
    }
    procBoundary9to8
    {
        type            processor;
        value           nonuniform List<vector> 
20
(
(1.3567e-52 9.65739e-53 3.24738e-54)
(1.32704e-54 9.43978e-55 3.18089e-56)
(9.86821e-57 7.01533e-57 2.36826e-58)
(5.88775e-59 4.18339e-59 1.41444e-60)
(1.54358e-54 1.09847e-54 3.71355e-56)
(1.50725e-56 1.07196e-56 3.62623e-58)
(1.12431e-58 7.99152e-59 2.70613e-60)
(6.77324e-61 4.81192e-61 1.63117e-62)
(8.80747e-57 6.26616e-57 2.12888e-58)
(8.6552e-59 6.15445e-59 2.08967e-60)
(6.5173e-61 4.63174e-61 1.57314e-62)
(3.98218e-63 2.82868e-63 9.61339e-65)
(3.37521e-59 2.40073e-59 8.1946e-61)
(3.35729e-61 2.38681e-61 8.13336e-63)
(2.56349e-63 1.82154e-63 6.20506e-65)
(1.5937e-65 1.1319e-65 3.85659e-67)
(9.84916e-62 7.00386e-62 2.38744e-63)
(9.9567e-64 7.0772e-64 2.40599e-65)
(7.73468e-66 5.49518e-66 1.8662e-67)
(4.90398e-68 3.48252e-68 1.1823e-69)
)
;
    }
    procBoundary9to10
    {
        type            processor;
        value           nonuniform List<vector> 
20
(
(5.76957e-28 4.10793e-28 1.382e-29)
(3.84887e-30 2.73777e-30 9.23919e-32)
(1.95585e-32 1.39012e-32 4.70405e-34)
(8.25991e-35 5.86644e-35 1.99002e-36)
(4.48302e-30 3.19099e-30 1.08003e-31)
(3.04366e-32 2.16448e-32 7.34118e-34)
(1.59855e-34 1.13589e-34 3.86086e-36)
(6.99467e-37 4.96657e-37 1.69175e-38)
(1.79367e-32 1.27634e-32 4.34751e-34)
(1.24962e-34 8.88421e-35 3.02921e-36)
(6.79759e-37 4.82895e-37 1.64908e-38)
(3.08481e-39 2.1898e-39 7.49167e-41)
(4.94099e-35 3.51476e-35 1.20527e-36)
(3.54905e-37 2.5225e-37 8.64896e-39)
(2.002e-39 1.42182e-39 4.87958e-41)
(9.42668e-42 6.68989e-42 2.29923e-43)
(1.05875e-37 7.52883e-38 2.59023e-39)
(7.86231e-40 5.58653e-40 1.91921e-41)
(4.60198e-42 3.26742e-42 1.12265e-43)
(2.24859e-44 1.59533e-44 5.48631e-46)
)
;
    }
    procBoundary9to17
    {
        type            processor;
        value           nonuniform List<vector> 
50
(
(5.20528e-59 3.69718e-59 1.25167e-60)
(8.44311e-57 5.9967e-57 2.03057e-58)
(1.3469e-54 9.56589e-55 3.23991e-56)
(2.11031e-52 1.49869e-52 5.07735e-54)
(3.24269e-50 2.3027e-50 7.80382e-52)
(4.87971e-48 3.46485e-48 1.17469e-49)
(7.18185e-46 5.09887e-46 1.72951e-47)
(1.03254e-43 7.3296e-44 2.48759e-45)
(1.44784e-41 1.02757e-41 3.48989e-43)
(1.97175e-39 1.3991e-39 4.75558e-41)
(5.9354e-61 4.21516e-61 1.43044e-62)
(9.39315e-59 6.67049e-59 2.26425e-60)
(1.46042e-56 1.03706e-56 3.52125e-58)
(2.22739e-54 1.5816e-54 5.37209e-56)
(3.32736e-52 2.36246e-52 8.02777e-54)
(4.86142e-50 3.45132e-50 1.17337e-51)
(6.93915e-48 4.92576e-48 1.67568e-49)
(9.67101e-46 6.86386e-46 2.33674e-47)
(1.31549e-43 9.3346e-44 3.18075e-45)
(1.74144e-41 1.23541e-41 4.21413e-43)
(3.46609e-63 2.46116e-63 8.37212e-65)
(5.36272e-61 3.80775e-61 1.29568e-62)
(8.1434e-59 5.78185e-59 1.96815e-60)
(1.21168e-56 8.60247e-57 2.92956e-58)
(1.76362e-54 1.252e-54 4.26589e-56)
(2.50723e-52 1.7797e-52 6.06774e-54)
(3.47795e-50 2.46842e-50 8.42231e-52)
(4.70724e-48 3.3403e-48 1.14079e-49)
(6.22092e-46 4.41343e-46 1.509e-47)
(8.01563e-44 5.68518e-44 1.94642e-45)
(1.37983e-65 9.79632e-66 3.34039e-67)
(2.09086e-63 1.48438e-63 5.06342e-65)
(3.10677e-61 2.20549e-61 7.5266e-63)
(4.51858e-59 3.20751e-59 1.09519e-60)
(6.42094e-57 4.55752e-57 1.55713e-58)
(8.8999e-55 6.31638e-55 2.15971e-56)
(1.2021e-52 8.53025e-53 2.9194e-54)
(1.5828e-50 1.12297e-50 3.84766e-52)
(2.03549e-48 1.44379e-48 4.95376e-50)
(2.55638e-46 1.81274e-46 6.22982e-48)
(4.22822e-68 3.00146e-68 1.01952e-69)
(6.28403e-66 4.4606e-66 1.51612e-67)
(9.15055e-64 6.49498e-64 2.20914e-65)
(1.30301e-61 9.24798e-62 3.14803e-63)
(1.81074e-59 1.28504e-59 4.3783e-61)
(2.45124e-57 1.7394e-57 5.93266e-59)
(3.22924e-55 2.29112e-55 7.82434e-57)
(4.14295e-53 2.9388e-53 1.00516e-54)
(5.19165e-51 3.68175e-51 1.26161e-52)
(6.36297e-49 4.51101e-49 1.54918e-50)
)
;
    }
}


// ************************************************************************* //
