/*--------------------------------*- C++ -*----------------------------------*\
| =========                 |                                                 |
| \\      /  F ield         | OpenFOAM: The Open Source CFD Toolbox           |
|  \\    /   O peration     | Version:  2.4.0                                 |
|   \\  /    A nd           | Web:      www.OpenFOAM.org                      |
|    \\/     M anipulation  |                                                 |
\*---------------------------------------------------------------------------*/
FoamFile
{
    version     2.0;
    format      ascii;
    class       volVectorField;
    location    "0.05";
    object      Uc;
}
// * * * * * * * * * * * * * * * * * * * * * * * * * * * * * * * * * * * * * //

dimensions      [0 1 -1 0 0 0 0];

internalField   nonuniform List<vector> 
200
(
(-5.85999e-08 1.8605e-07 6.49501e-08)
(-1.97695e-09 6.27669e-09 2.19129e-09)
(-3.75269e-11 1.19147e-10 4.15978e-11)
(-5.27703e-13 1.67545e-12 5.84983e-13)
(-6.12215e-15 1.94378e-14 6.7871e-15)
(-6.19873e-17 1.96811e-16 6.87248e-17)
(-5.5118e-19 1.80272e-18 6.31251e-19)
(1.26325e-18 3.24e-19 2.42841e-19)
(8.91967e-17 2.22687e-17 1.5879e-17)
(5.05628e-15 1.3021e-15 8.39645e-16)
(-4.94575e-10 1.57022e-09 5.48098e-10)
(-1.87682e-11 5.9587e-11 2.07996e-11)
(-3.95827e-13 1.25671e-12 4.38676e-13)
(-6.1228e-15 1.94367e-14 6.76403e-15)
(-7.74989e-17 2.45921e-16 8.47603e-17)
(-8.04162e-19 2.7089e-18 9.1653e-19)
(4.57654e-18 1.32226e-18 5.94099e-19)
(4.07295e-16 1.15107e-16 5.20078e-17)
(3.11847e-14 8.81316e-15 3.98199e-15)
(1.93889e-12 5.47953e-13 2.47579e-13)
(-2.34807e-12 7.45484e-12 2.60209e-12)
(-9.89905e-14 3.14282e-13 1.09693e-13)
(-2.29976e-15 7.26723e-15 2.25571e-15)
(-1.09861e-16 -3.73263e-16 -6.05377e-15)
(-3.81758e-18 -2.1826e-17 -2.88545e-16)
(1.0006e-17 2.26734e-18 -6.14493e-18)
(1.08761e-15 3.07362e-16 1.38741e-16)
(1.05412e-13 2.97907e-14 1.34601e-14)
(8.87918e-12 2.50937e-12 1.13379e-12)
(6.135e-10 1.73382e-10 7.83385e-11)
(-8.25824e-15 2.62163e-14 9.12927e-15)
(-3.97894e-16 1.11092e-15 -8.61981e-16)
(-6.49941e-16 -4.43738e-15 -5.48793e-14)
(-1.49992e-14 -1.04674e-13 -1.2859e-12)
(-6.27651e-16 -4.46457e-15 -5.48882e-14)
(1.58201e-15 3.4663e-16 -1.08151e-15)
(1.87639e-13 5.30272e-14 2.39381e-14)
(2.00068e-11 5.65416e-12 2.5547e-12)
(1.87274e-09 5.29259e-10 2.39133e-10)
(1.45594e-07 4.11467e-08 1.85912e-08)
(-4.0589e-05 0.000128866 4.49823e-05)
(-1.19814e-06 3.80396e-06 1.32785e-06)
(-2.02143e-08 6.41784e-08 2.24032e-08)
(-2.55798e-10 8.12135e-10 2.83505e-10)
(-2.69751e-12 8.56439e-12 2.98979e-12)
(-2.50333e-14 7.94791e-14 2.77465e-14)
(-2.1133e-16 6.70154e-16 2.34599e-16)
(-1.23205e-17 -2.47672e-17 4.18441e-17)
(-6.90564e-16 -1.94359e-15 2.59217e-15)
(-3.27879e-14 -9.22914e-14 1.23241e-13)
(-2.99695e-07 9.51493e-07 3.32116e-07)
(-1.01092e-08 3.20953e-08 1.12029e-08)
(-1.91867e-10 6.09154e-10 2.12626e-10)
(-2.6978e-12 8.56357e-12 2.97593e-12)
(-3.12997e-14 9.92953e-14 3.40224e-14)
(-3.16989e-16 1.00438e-15 3.33968e-16)
(-2.87277e-18 9.17176e-18 2.8952e-18)
(2.15789e-18 5.67325e-19 4.87196e-19)
(1.55719e-16 3.64948e-17 3.10359e-17)
(8.98684e-15 2.21541e-15 1.63586e-15)
(-1.26454e-09 4.01474e-09 1.40132e-09)
(-4.79802e-11 1.5233e-10 5.31658e-11)
(-1.01395e-12 3.19705e-12 9.34379e-13)
(-6.59009e-14 -3.01024e-13 -4.29096e-12)
(-2.37743e-15 -1.45809e-14 -1.86626e-13)
(-5.38275e-17 -3.53992e-16 -4.42913e-15)
(4.99052e-18 -4.46758e-18 -7.52167e-17)
(5.29662e-16 1.49605e-16 6.58355e-17)
(4.10786e-14 1.16092e-14 5.20982e-15)
(2.59582e-12 7.33606e-13 3.30556e-13)
(-4.00202e-12 1.27043e-11 4.42155e-12)
(-1.78507e-13 4.67037e-13 -6.54879e-13)
(-4.63745e-13 -3.19661e-12 -3.94178e-11)
(-1.19284e-11 -8.32443e-11 -1.02264e-09)
(-4.59833e-13 -3.20903e-12 -3.94221e-11)
(-9.81057e-15 -6.85226e-14 -8.41833e-13)
(7.79887e-16 -8.06846e-16 -1.30255e-14)
(9.13985e-14 2.58171e-14 1.14213e-14)
(7.79818e-12 2.20385e-12 9.92076e-13)
(5.476e-10 1.54758e-10 6.99333e-11)
(-0.0164184 0.0521262 0.0181941)
(-0.000415454 0.00131901 0.000460388)
(-6.13336e-06 1.94726e-05 6.79671e-06)
(-6.89908e-08 2.19037e-07 7.64525e-08)
(-6.54795e-10 2.07889e-09 7.25613e-10)
(-5.52422e-12 1.75387e-11 6.12168e-12)
(-4.27705e-14 1.355e-13 4.75244e-14)
(-4.49413e-15 -1.07911e-14 1.60777e-14)
(-2.98105e-13 -8.38487e-13 1.12145e-12)
(-1.57298e-11 -4.42443e-11 5.92275e-11)
(-0.000103906 0.000329888 0.000115144)
(-3.06715e-06 9.7378e-06 3.39888e-06)
(-5.1747e-08 1.6429e-07 5.73434e-08)
(-6.5489e-10 2.07844e-09 7.19351e-10)
(-6.90856e-12 2.19008e-11 7.3737e-12)
(-6.41601e-14 2.02904e-13 6.42999e-14)
(-5.42218e-16 1.70625e-15 4.83365e-16)
(-2.2463e-17 -3.79201e-17 7.0568e-17)
(-1.17899e-15 -3.31711e-15 4.38993e-15)
(-5.59794e-14 -1.57515e-13 2.10059e-13)
(-3.83607e-07 1.2179e-06 4.25096e-07)
(-1.29397e-08 4.10815e-08 1.43372e-08)
(-2.46616e-10 7.72534e-10 1.84006e-10)
(-2.95711e-11 -1.71308e-10 -2.23532e-09)
(-1.06819e-12 -7.04787e-12 -8.8099e-11)
(-2.27138e-14 -1.54396e-13 -1.91214e-12)
(-3.56647e-16 -2.45142e-15 -3.02334e-14)
(-3.20687e-18 -3.14288e-17 -3.88771e-16)
(9.95161e-17 1.81344e-17 2.26464e-17)
(5.85135e-15 1.23477e-15 1.37621e-15)
(-1.07914e-09 3.42544e-09 1.19003e-09)
(-4.56502e-11 9.71392e-11 -3.58178e-10)
(-2.44956e-10 -1.70071e-09 -2.09255e-08)
(-7.08733e-09 -4.94603e-08 -6.07606e-07)
(-2.44092e-10 -1.70345e-09 -2.09264e-08)
(-4.70712e-12 -3.28497e-11 -4.03549e-10)
(-6.70164e-14 -4.67705e-13 -5.74563e-12)
(-5.57717e-16 -5.41648e-15 -6.73008e-14)
(1.78347e-14 4.9792e-15 1.56859e-15)
(1.14202e-12 3.21945e-13 1.45922e-13)
(-4.05892e-05 0.000128865 4.49791e-05)
(-1.19814e-06 3.80394e-06 1.32773e-06)
(-2.02144e-08 6.4178e-08 2.24006e-08)
(-2.55839e-10 8.11857e-10 2.80124e-10)
(-2.69931e-12 8.55192e-12 2.83695e-12)
(-2.5164e-14 7.89292e-14 2.43156e-14)
(-9.56455e-15 -2.56415e-14 3.53892e-14)
(-8.88361e-13 -2.49874e-12 3.34523e-12)
(-7.03197e-11 -1.97793e-10 2.64771e-10)
(-4.175e-09 -1.17433e-08 1.5718e-08)
(-2.99695e-07 9.51491e-07 3.32109e-07)
(-1.01092e-08 3.20952e-08 1.12011e-08)
(-1.92618e-10 6.03918e-10 1.48305e-10)
(-2.1215e-11 -1.20663e-10 -1.58453e-09)
(-7.81468e-13 -5.13591e-12 -6.42791e-11)
(-1.69402e-14 -1.15002e-13 -1.42481e-12)
(-3.11521e-16 -1.97228e-15 -2.27366e-14)
(-3.5749e-15 -1.00697e-14 1.30232e-14)
(-2.54381e-13 -7.1551e-13 9.52264e-13)
(-1.34228e-11 -3.77551e-11 5.05332e-11)
(-1.26461e-09 4.01421e-09 1.39478e-09)
(-5.32425e-11 1.15607e-10 -3.97974e-10)
(-2.68235e-10 -1.86166e-09 -2.29083e-08)
(-7.53997e-09 -5.26191e-08 -6.4641e-07)
(-2.67223e-10 -1.86487e-09 -2.29094e-08)
(-5.26228e-12 -3.67239e-11 -4.51143e-10)
(-7.61312e-14 -5.31297e-13 -6.52682e-12)
(-9.15102e-16 -6.33771e-15 -7.74111e-14)
(-7.63939e-16 -2.18806e-15 2.01378e-15)
(-3.58319e-14 -1.00813e-13 1.34927e-13)
(-2.00663e-11 -9.94038e-11 -1.37279e-09)
(-1.24959e-09 -8.7188e-09 -1.07115e-07)
(-7.25264e-08 -5.06141e-07 -6.21779e-06)
(-2.388e-06 -1.66652e-05 -0.000204727)
(-7.25264e-08 -5.06141e-07 -6.21779e-06)
(-1.24942e-09 -8.71934e-09 -1.07115e-07)
(-1.60645e-11 -1.12109e-10 -1.37723e-09)
(-1.71549e-13 -1.1972e-12 -1.47073e-11)
(-1.58057e-15 -1.12208e-14 -1.37869e-13)
(1.64603e-15 1.56678e-16 -6.33046e-16)
(-5.86005e-08 1.86049e-07 6.47958e-08)
(-1.97697e-09 6.27663e-09 2.18538e-09)
(-3.75275e-11 1.19145e-10 4.14715e-11)
(-5.27887e-13 1.6742e-12 5.68164e-13)
(-6.13086e-15 1.93776e-14 6.0309e-15)
(-6.27081e-17 1.93837e-16 5.09097e-17)
(-4.91838e-17 -1.34967e-16 1.80524e-16)
(-4.19591e-15 -1.1802e-14 1.56112e-14)
(-2.98794e-13 -8.40435e-13 1.11546e-12)
(-1.57626e-11 -4.43366e-11 5.90949e-11)
(-4.94577e-10 1.57022e-09 5.46714e-10)
(-1.87684e-11 5.95862e-11 2.07344e-11)
(-3.99085e-13 1.23398e-12 1.59517e-13)
(-7.96183e-14 -4.93467e-13 -6.26691e-12)
(-3.33314e-15 -2.24742e-14 -2.77725e-13)
(-7.93684e-17 -5.45248e-16 -6.69061e-15)
(-1.60598e-18 -1.01617e-17 -1.15407e-16)
(-1.8278e-17 -5.14906e-17 6.53959e-17)
(-1.18235e-15 -3.32565e-15 4.37992e-15)
(-5.6131e-14 -1.57883e-13 2.10348e-13)
(-2.34843e-12 7.45236e-12 2.56471e-12)
(-1.21351e-13 1.58238e-13 -1.79872e-12)
(-1.03261e-12 -7.18295e-12 -8.7954e-11)
(-2.61684e-11 -1.82621e-10 -2.23484e-09)
(-1.03031e-12 -7.19024e-12 -8.79565e-11)
(-2.236e-14 -1.56044e-13 -1.90809e-12)
(-3.53847e-16 -2.46939e-15 -3.01832e-14)
(-4.62672e-18 -3.20213e-17 -3.88798e-16)
(-3.86262e-18 -1.1077e-17 9.71723e-18)
(-1.64498e-16 -4.6273e-16 6.16195e-16)
(-7.54303e-14 -4.42558e-13 -5.72329e-12)
(-4.71733e-12 -3.2917e-11 -4.02707e-10)
(-2.44552e-10 -1.70666e-09 -2.0887e-08)
(-7.09925e-09 -4.95436e-08 -6.06583e-07)
(-2.44552e-10 -1.70666e-09 -2.0887e-08)
(-4.71694e-12 -3.29182e-11 -4.02708e-10)
(-6.71723e-14 -4.68776e-13 -5.7325e-12)
(-7.8731e-16 -5.49441e-15 -6.71619e-14)
(-8.00987e-18 -5.61226e-17 -6.85472e-16)
(1.68451e-18 -1.09473e-18 -4.45402e-18)
)
;

boundaryField
{
    inlet
    {
        type            calculated;
        value           nonuniform 0();
    }
    outlet
    {
        type            calculated;
        value           nonuniform 0();
    }
    bottom
    {
        type            calculated;
        value           uniform (0 0 0);
    }
    top
    {
        type            symmetryPlane;
    }
    side1
    {
        type            symmetryPlane;
    }
    side2
    {
        type            symmetryPlane;
    }
    procBoundary18to10
    {
        type            processor;
        value           nonuniform List<vector> 
50
(
(-2.41221e-10 1.89464e-09 4.18883e-09)
(-9.41686e-12 7.27356e-11 1.5926e-10)
(-2.03042e-13 1.54816e-12 3.36398e-12)
(-3.19672e-15 2.41257e-14 5.20943e-14)
(-4.10491e-17 3.07222e-16 6.59887e-16)
(-4.56128e-19 3.38628e-18 7.24439e-18)
(-3.96678e-20 -6.54518e-20 2.03793e-19)
(-2.78002e-18 -7.82806e-18 1.04806e-17)
(-1.79966e-16 -5.0678e-16 6.78432e-16)
(-8.54359e-15 -2.40611e-14 3.22113e-14)
(-1.98609e-07 9.72351e-07 1.40751e-06)
(-6.88189e-09 3.33783e-08 4.76798e-08)
(-1.3331e-10 6.4206e-10 9.07926e-10)
(-1.90465e-12 9.12357e-12 1.2799e-11)
(-2.23813e-14 1.06745e-13 1.48784e-13)
(-2.29199e-16 1.08782e-15 1.50964e-15)
(-2.10486e-17 -4.32584e-17 8.51065e-17)
(-1.6349e-15 -4.59847e-15 6.15526e-15)
(-1.16449e-13 -3.27545e-13 4.38417e-13)
(-6.14459e-12 -1.72833e-11 2.31336e-11)
(-8.63912e-05 0.000274282 9.57389e-05)
(-2.62398e-06 8.33081e-06 2.90793e-06)
(-4.52045e-08 1.43519e-07 5.00969e-08)
(-5.81224e-10 1.84532e-09 6.44139e-10)
(-6.20684e-12 1.97061e-11 6.8788e-12)
(-5.82568e-14 1.84554e-13 6.47445e-14)
(-7.80188e-15 -1.89806e-14 2.80581e-14)
(-6.94045e-13 -1.95216e-12 2.613e-12)
(-5.4938e-11 -1.54528e-10 2.06836e-10)
(-3.26176e-09 -9.17455e-09 1.22802e-08)
(-2.56258e-07 8.13858e-07 2.83371e-07)
(-8.82964e-09 2.80359e-08 9.77851e-09)
(-1.70291e-10 5.40681e-10 1.88657e-10)
(-2.42475e-12 7.69776e-12 2.68022e-12)
(-2.85163e-14 8.99088e-14 3.15357e-14)
(-1.30771e-14 -3.50464e-14 4.84545e-14)
(-1.51861e-12 -4.27147e-12 5.7174e-12)
(-1.60315e-10 -4.50927e-10 6.03569e-10)
(-1.42799e-08 -4.01659e-08 5.37623e-08)
(-9.69163e-07 -2.72603e-06 3.64881e-06)
(-4.31498e-10 1.37107e-09 4.74473e-10)
(-1.66528e-11 5.28836e-11 1.83741e-11)
(-3.55732e-13 1.12954e-12 3.92722e-13)
(-5.55944e-15 1.7648e-14 6.10615e-15)
(-7.1543e-17 2.23525e-16 7.87776e-17)
(-6.86714e-17 -1.88466e-16 2.54997e-16)
(-7.32577e-15 -2.06056e-14 2.74404e-14)
(-6.95676e-13 -1.95677e-12 2.60693e-12)
(-5.50544e-11 -1.54855e-10 2.06397e-10)
(-3.2679e-09 -9.19184e-09 1.2257e-08)
)
;
    }
    procBoundary18to17
    {
        type            processor;
        value           nonuniform List<vector> 
20
(
(-1.72704e-09 5.48327e-09 1.9143e-09)
(-1.66594e-11 5.28916e-11 1.84624e-11)
(-8.89799e-14 2.825e-13 9.86079e-14)
(-3.47693e-16 1.10385e-15 3.84735e-16)
(-1.02502e-06 3.25433e-06 1.13599e-06)
(-8.83109e-09 2.80376e-08 9.7865e-09)
(-4.25882e-11 1.35212e-10 4.71946e-11)
(-1.51629e-13 4.81381e-13 1.67857e-13)
(-0.000345421 0.00109666 0.00038278)
(-2.62398e-06 8.33079e-06 2.90778e-06)
(-1.13037e-08 3.58878e-08 1.25263e-08)
(-3.63428e-11 1.15375e-10 4.0205e-11)
(-1.02497e-06 3.25425e-06 1.1356e-06)
(-8.83093e-09 2.80374e-08 9.78522e-09)
(-4.25886e-11 1.35205e-10 4.71138e-11)
(-3.23175e-13 -7.15802e-13 -1.45386e-11)
(-1.72686e-09 5.48296e-09 1.90788e-09)
(-1.66586e-11 5.28905e-11 1.84054e-11)
(-8.89821e-14 2.82465e-13 9.79027e-14)
(-1.13499e-15 -4.39049e-15 -6.62911e-14)
)
;
    }
    procBoundary18to19
    {
        type            processor;
        value           nonuniform List<vector> 
20
(
(2.06092e-13 5.52308e-14 3.09524e-14)
(8.74668e-11 2.47192e-11 1.1169e-11)
(3.11419e-08 8.80109e-09 3.97663e-09)
(8.4481e-06 2.38754e-06 1.07877e-06)
(-8.65071e-13 -2.43576e-12 3.26067e-12)
(3.7491e-13 9.82487e-14 5.97274e-14)
(1.19611e-10 3.38036e-11 1.52736e-11)
(2.83907e-08 8.02354e-09 3.62531e-09)
(-4.67054e-10 -1.31371e-09 1.75838e-09)
(-1.47719e-12 -4.15723e-12 5.56471e-12)
(2.49658e-13 6.03587e-14 4.72432e-14)
(5.3493e-11 1.50384e-11 6.87571e-12)
(-1.41684e-07 -3.98525e-07 5.33423e-07)
(-3.98552e-10 -1.12103e-09 1.50048e-09)
(-9.4558e-13 -2.66069e-12 3.56145e-12)
(7.25091e-14 1.50491e-14 1.7241e-14)
(-4.6792e-10 -1.31615e-09 1.75512e-09)
(-1.48112e-12 -4.16605e-12 5.55318e-12)
(-3.90652e-15 -1.09894e-14 1.46425e-14)
(7.65559e-17 -2.36884e-18 4.54268e-17)
)
;
    }
    procBoundary18to26
    {
        type            processor;
        value           nonuniform List<vector> 
50
(
(-4.59877e-17 -7.76456e-17 -1.86185e-15)
(-1.42531e-15 -9.93449e-15 -1.22088e-13)
(-6.75267e-14 -4.71249e-13 -5.78915e-12)
(-1.77961e-12 -1.24194e-11 -1.52569e-10)
(-6.65301e-14 -4.70968e-13 -5.78903e-12)
(1.36331e-13 2.8993e-14 -1.04499e-13)
(1.78054e-11 5.03187e-12 2.27176e-12)
(2.10964e-09 5.9621e-10 2.6939e-10)
(2.22187e-07 6.27927e-08 2.83721e-08)
(1.97447e-05 5.58009e-06 2.5213e-06)
(-2.51176e-14 -6.81254e-14 -1.23684e-12)
(-1.0363e-12 -7.22704e-12 -8.88004e-11)
(-5.45756e-11 -3.80867e-10 -4.67883e-09)
(-1.61802e-09 -1.12917e-08 -1.38715e-07)
(-5.45755e-11 -3.80867e-10 -4.67883e-09)
(-1.03513e-12 -7.2284e-12 -8.8801e-11)
(6.59584e-14 -7.88773e-14 -1.23826e-12)
(8.67484e-12 2.45048e-12 1.09326e-12)
(8.22461e-10 2.32438e-10 1.05023e-10)
(6.49818e-08 1.83646e-08 8.29782e-09)
(-9.63118e-12 -4.12078e-11 -6.0328e-10)
(-5.58814e-10 -3.8987e-09 -4.78984e-08)
(-3.3116e-08 -2.31107e-07 -2.83908e-06)
(-1.12192e-06 -7.82959e-06 -9.6184e-05)
(-3.3116e-08 -2.31107e-07 -2.83908e-06)
(-5.58706e-10 -3.89905e-09 -4.78986e-08)
(-7.06978e-12 -4.93393e-11 -6.06118e-10)
(-5.49081e-14 -5.14761e-13 -6.38928e-12)
(1.69304e-12 4.72771e-13 1.57574e-13)
(1.20472e-10 3.39198e-11 1.5455e-11)
(-1.90682e-09 -1.3307e-08 -1.63473e-07)
(-1.69519e-07 -1.18302e-06 -1.45331e-05)
(-1.14828e-05 -8.01354e-05 -0.000984438)
(-0.000453812 -0.00316702 -0.0389059)
(-1.14828e-05 -8.01354e-05 -0.000984438)
(-1.69519e-07 -1.18302e-06 -1.45331e-05)
(-1.90681e-09 -1.33071e-08 -1.63473e-07)
(-1.80975e-11 -1.26297e-10 -1.55152e-09)
(-1.50121e-13 -1.0648e-12 -1.30892e-11)
(1.64428e-13 3.79349e-14 -7.97246e-14)
(-7.08456e-12 -4.94409e-11 -6.04869e-10)
(-5.59742e-10 -3.90628e-09 -4.78098e-08)
(-3.31706e-08 -2.31488e-07 -2.8344e-06)
(-1.12354e-06 -7.84088e-06 -9.60453e-05)
(-3.31706e-08 -2.31488e-07 -2.8344e-06)
(-5.59742e-10 -3.90628e-09 -4.78097e-08)
(-7.08454e-12 -4.9441e-11 -6.04869e-10)
(-7.4725e-14 -5.21484e-13 -6.3773e-12)
(-6.9043e-16 -4.83956e-15 -5.91696e-14)
(1.82377e-16 1.06649e-17 -4.7415e-16)
)
;
    }
}


// ************************************************************************* //
