/*--------------------------------*- C++ -*----------------------------------*\
| =========                 |                                                 |
| \\      /  F ield         | OpenFOAM: The Open Source CFD Toolbox           |
|  \\    /   O peration     | Version:  2.4.0                                 |
|   \\  /    A nd           | Web:      www.OpenFOAM.org                      |
|    \\/     M anipulation  |                                                 |
\*---------------------------------------------------------------------------*/
FoamFile
{
    version     2.0;
    format      ascii;
    class       volVectorField;
    location    "0.11";
    object      Ur;
}
// * * * * * * * * * * * * * * * * * * * * * * * * * * * * * * * * * * * * * //

dimensions      [0 1 -1 0 0 0 0];

internalField   nonuniform List<vector> 
200
(
(4.43571e+07 -2.9175e+07 1.07348e+08)
(-5.58529e+06 -1.61836e+07 -2.30036e+07)
(-2.10108e+06 -3.43094e+07 9.27168e+07)
(-3.8266e+07 717792 -1.39507e+07)
(-3.956e+07 1.11655e+07 8.17066e+07)
(-5.42632e+07 7.33775e+07 -1.37658e+07)
(-1.35717e+07 9.75418e+07 5.22308e+07)
(4.72005e+07 2.16638e+08 -5.11742e+07)
(2.15914e+08 1.90987e+08 4.49182e+07)
(3.67423e+08 3.07678e+08 2.71939e+07)
(3.49188e+07 3.66594e+06 -5.0916e+07)
(5.05098e+07 -1.07529e+07 9.7121e+07)
(1.9263e+07 6.9601e+06 -5.36845e+07)
(2.9535e+07 -4.48784e+06 8.39635e+07)
(1.06934e+07 2.16371e+07 -4.75866e+07)
(3.35803e+07 6.00746e+06 7.02462e+07)
(3.45471e+07 4.31427e+07 -4.4751e+07)
(8.02588e+07 3.03804e+07 6.18388e+07)
(1.13469e+08 4.5813e+07 -5.38049e+07)
(2.14236e+08 6.7e+07 5.57486e+07)
(7.08856e+07 -2.15681e+07 1.07293e+08)
(3.88007e+07 1.82067e+06 -5.6175e+07)
(5.90658e+07 -8.64035e+06 9.81491e+07)
(4.09242e+07 342721 -6.43662e+07)
(5.05785e+07 -9.35949e+06 9.2561e+07)
(5.03018e+07 -996761 -6.74042e+07)
(5.5411e+07 -1.80461e+07 8.74631e+07)
(6.88164e+07 -4.52197e+06 -6.06871e+07)
(7.51968e+07 -3.62412e+07 7.87023e+07)
(1.09436e+08 -8.26843e+06 -7.24948e+07)
(4.36056e+07 -9.40598e+06 -4.9734e+07)
(6.69473e+07 -2.3982e+07 1.02059e+08)
(3.91108e+07 -7.38085e+06 -5.84461e+07)
(6.03712e+07 -1.48618e+07 1.04357e+08)
(4.32749e+07 -1.35134e+07 -6.64595e+07)
(5.42629e+07 -2.08665e+07 1.05917e+08)
(5.53956e+07 -2.05991e+07 -7.34764e+07)
(5.429e+07 -3.85021e+07 1.0472e+08)
(6.53141e+07 -3.18285e+07 -6.96832e+07)
(6.63439e+07 -4.67828e+07 8.72023e+07)
(1.16397e+08 -2.98132e+07 -4.8366e+07)
(1.3041e+08 -2.79845e+07 1.5438e+08)
(1.03886e+08 -3.77754e+07 -6.04981e+07)
(1.08002e+08 -2.95843e+07 1.43003e+08)
(8.80061e+07 -2.18925e+07 -5.98801e+07)
(8.99619e+07 -8.56439e+06 1.26824e+08)
(9.203e+07 2.88194e+07 -8.66807e+07)
(1.20868e+08 2.43434e+07 7.28826e+07)
(1.19309e+08 5.18796e+07 -1.20709e+08)
(1.62567e+08 5.17402e+08 -3.51333e+08)
(1.59828e+08 -3.13125e+07 1.53775e+08)
(1.37013e+08 -4.53839e+07 -8.37047e+07)
(1.45964e+08 -3.0424e+07 1.45655e+08)
(1.3084e+08 -4.24913e+07 -9.502e+07)
(1.35165e+08 -3.06573e+07 1.37071e+08)
(1.30746e+08 -3.17318e+07 -9.45666e+07)
(1.35427e+08 -2.89938e+07 1.23696e+08)
(1.53885e+08 -2.47345e+07 -1.14081e+08)
(1.56922e+08 -3.65021e+07 1.03131e+08)
(1.82654e+08 3.61625e+06 -1.09859e+08)
(1.44066e+08 -5.52309e+07 -7.55643e+07)
(1.63978e+08 -3.62045e+07 1.45779e+08)
(1.45357e+08 -5.84459e+07 -1.00975e+08)
(1.56819e+08 -3.39385e+07 1.45709e+08)
(1.47854e+08 -5.36364e+07 -1.16483e+08)
(1.52107e+08 -3.69519e+07 1.35943e+08)
(1.52007e+08 -4.73012e+07 -1.17302e+08)
(1.5385e+08 -4.39731e+07 1.23135e+08)
(1.62111e+08 -4.62655e+07 -1.23518e+08)
(1.53173e+08 -4.70108e+07 1.12026e+08)
(1.59541e+08 -5.22172e+07 1.3069e+08)
(1.33532e+08 -6.59186e+07 -8.61151e+07)
(1.58014e+08 -3.82865e+07 1.40289e+08)
(1.3964e+08 -6.75526e+07 -1.09759e+08)
(1.55799e+08 -3.70096e+07 1.42958e+08)
(1.49025e+08 -6.07573e+07 -1.28097e+08)
(1.55755e+08 -4.10657e+07 1.3472e+08)
(1.56343e+08 -5.47782e+07 -1.29767e+08)
(1.57865e+08 -4.93528e+07 1.28119e+08)
(1.61426e+08 -4.83167e+07 -1.30832e+08)
(1.67964e+08 -3.18522e+07 2.2905e+08)
(1.68375e+08 -5.97187e+07 -6.33432e+07)
(1.80892e+08 -5.30381e+07 2.28662e+08)
(1.76304e+08 -7.3803e+07 -8.65727e+07)
(1.79605e+08 -6.53004e+07 2.23096e+08)
(1.70996e+08 -7.95511e+07 -1.13164e+08)
(1.59531e+08 -1.15444e+08 1.63806e+08)
(1.22033e+08 -1.02732e+08 -1.66229e+08)
(7.07195e+07 -1.93246e+08 9.8199e+08)
(-9.06572e+07 -3.30244e+08 -1.70684e+08)
(2.07033e+08 -6.88868e+07 -7.43682e+07)
(2.17812e+08 -5.60129e+07 2.12226e+08)
(2.15289e+08 -6.99511e+07 -1.09115e+08)
(2.16542e+08 -5.73072e+07 2.14605e+08)
(2.14303e+08 -6.52005e+07 -1.2757e+08)
(2.10048e+08 -5.36755e+07 2.06423e+08)
(2.08256e+08 -5.36485e+07 -1.42078e+08)
(2.22234e+08 -3.75698e+07 1.7328e+08)
(9.64335e+07 -6.09158e+07 -1.818e+08)
(4.38165e+07 -7.9308e+07 7.28672e+08)
(2.36764e+08 -6.63189e+07 1.87466e+08)
(2.32987e+08 -7.34121e+07 -1.03847e+08)
(2.36154e+08 -6.05152e+07 1.92361e+08)
(2.33064e+08 -6.87717e+07 -1.30283e+08)
(2.30651e+08 -5.82282e+07 1.98676e+08)
(2.28429e+08 -6.19234e+07 -1.46001e+08)
(2.22705e+08 -5.49981e+07 1.94592e+08)
(2.24236e+08 -5.65647e+07 -1.52582e+08)
(2.13803e+08 -6.82208e+07 1.73689e+08)
(1.45109e+08 -8.92066e+07 -1.67337e+08)
(2.25712e+08 -8.37578e+07 -8.38272e+07)
(2.35941e+08 -6.5243e+07 1.60579e+08)
(2.30375e+08 -7.23593e+07 -1.20154e+08)
(2.32572e+08 -5.87507e+07 1.71503e+08)
(2.28078e+08 -6.54981e+07 -1.41688e+08)
(2.2547e+08 -5.47076e+07 1.8201e+08)
(2.21908e+08 -5.73605e+07 -1.53505e+08)
(2.15061e+08 -5.01313e+07 1.84501e+08)
(2.10629e+08 -5.5539e+07 -1.58474e+08)
(1.90477e+08 -6.38827e+07 1.7176e+08)
(6.1898e+07 -8.0262e+07 -1.03357e+08)
(1.02707e+08 -4.95163e+07 2.03421e+08)
(1.05611e+08 -9.22345e+07 -5.54465e+07)
(9.74526e+07 -7.60685e+07 1.68939e+08)
(1.21421e+08 -8.38204e+07 -7.87931e+07)
(1.2517e+08 -6.27629e+07 1.87825e+08)
(1.08047e+08 -1.5308e+08 -5.95698e+07)
(1.90803e+08 2.74439e+07 9.10204e+07)
(2.77684e+08 6.4708e+07 -1.05525e+08)
(1.71426e+08 -1.24318e+08 6.49474e+08)
(1.89609e+08 -6.27557e+07 2.21338e+08)
(2.02168e+08 -7.26779e+07 -1.13462e+08)
(2.00113e+08 -6.26886e+07 2.22248e+08)
(2.06716e+08 -7.78664e+07 -1.29603e+08)
(2.0909e+08 -5.79895e+07 2.28975e+08)
(2.10126e+08 -6.45921e+07 -1.3978e+08)
(2.27524e+08 -1.16943e+07 2.22412e+08)
(1.0249e+08 -1.10049e+08 -1.09204e+08)
(4.42995e+08 1.56816e+08 1.13979e+09)
(2.70448e+08 3.24685e+08 -1.09692e+08)
(2.56848e+08 -7.0688e+07 -1.18541e+08)
(2.57847e+08 -6.84344e+07 2.19591e+08)
(2.59987e+08 -6.68871e+07 -1.43844e+08)
(2.55065e+08 -6.34034e+07 2.28117e+08)
(2.53196e+08 -6.2311e+07 -1.58309e+08)
(2.45489e+08 -5.53211e+07 2.29375e+08)
(2.53573e+08 -5.52738e+07 -1.62144e+08)
(2.3463e+08 -3.30858e+07 2.26712e+08)
(2.35078e+08 -1.30483e+08 -1.41994e+08)
(4.06333e+08 7.92073e+07 8.28996e+08)
(2.80876e+08 -7.51106e+07 1.90414e+08)
(2.80169e+08 -6.17503e+07 -1.34792e+08)
(2.73972e+08 -6.64932e+07 2.04172e+08)
(2.72628e+08 -5.5634e+07 -1.53679e+08)
(2.64417e+08 -5.79643e+07 2.16734e+08)
(2.63147e+08 -4.74253e+07 -1.66465e+08)
(2.53844e+08 -4.73873e+07 2.23157e+08)
(2.56256e+08 -4.49291e+07 -1.71005e+08)
(2.35441e+08 -2.80078e+07 2.27123e+08)
(2.50746e+08 -8.33747e+07 -1.61218e+08)
(-1.35863e+08 -9.37773e+07 1.20135e+08)
(-2.45958e+08 -8.0721e+06 -1.82786e+08)
(-1.39026e+08 -7.38945e+07 1.70527e+08)
(-9.97418e+07 -2.96635e+07 -8.7523e+07)
(-1.96036e+08 -9.09198e+07 -9.60794e+07)
(-1.2075e+08 -8.39307e+07 1.2058e+08)
(-7.37793e+07 -6.70202e+07 3.53326e+07)
(-9.45785e+07 -8.98561e+07 8.8022e+06)
(3.10846e+07 -3.08562e+07 -4.28972e+07)
(3.22804e+07 -7.67961e+07 -9.51982e+06)
(-8.96197e+07 -5.8475e+07 -1.3874e+08)
(-6.49944e+07 -6.72802e+07 1.17234e+08)
(-2.95939e+07 -5.22349e+07 -9.65239e+07)
(-2.29143e+07 -7.94684e+07 1.03454e+08)
(5.36102e+06 -1.04291e+08 -5.44177e+07)
(8.31536e+06 -8.60035e+07 1.26894e+08)
(3.73665e+07 -1.33744e+08 -8.02984e+07)
(-5.77569e+07 -8.01444e+07 -2.39988e+08)
(6.32372e+07 -1.3204e+08 -7.18292e+07)
(2.07294e+08 2.55508e+07 3.55825e+08)
(1.37117e+08 -8.61161e+07 2.03642e+08)
(1.61015e+08 -7.71488e+07 -1.40381e+08)
(1.62574e+08 -7.7712e+07 2.16056e+08)
(1.7721e+08 -7.46951e+07 -1.4986e+08)
(1.73655e+08 -7.27795e+07 2.27813e+08)
(1.76771e+08 -7.94583e+07 -1.59146e+08)
(1.65632e+08 -6.13898e+07 2.29539e+08)
(1.9001e+08 -1.22293e+08 -1.45668e+08)
(9.06354e+07 -7.4643e+07 -1.87747e+08)
(1.63403e+08 -1.36271e+08 -1.10052e+08)
(2.38472e+08 -6.70608e+07 -1.47261e+08)
(2.34925e+08 -7.3134e+07 2.22973e+08)
(2.42758e+08 -5.60808e+07 -1.6535e+08)
(2.38894e+08 -6.07554e+07 2.34961e+08)
(2.43094e+08 -4.70008e+07 -1.78504e+08)
(2.35285e+08 -4.93201e+07 2.41817e+08)
(2.37953e+08 -4.38417e+07 -1.84376e+08)
(2.25926e+08 -3.59921e+07 2.45399e+08)
(2.28667e+08 -6.58542e+07 -1.77056e+08)
(1.71715e+08 -4.56459e+07 5.74625e+06)
)
;

boundaryField
{
    inlet
    {
        type            calculated;
        value           nonuniform 0();
    }
    outlet
    {
        type            calculated;
        value           nonuniform List<vector> 
20
(
(3.67423e+08 3.07678e+08 2.71939e+07)
(2.14236e+08 6.7e+07 5.57486e+07)
(1.09436e+08 -8.26843e+06 -7.24948e+07)
(6.63439e+07 -4.67828e+07 8.72023e+07)
(1.62567e+08 5.17402e+08 -3.51333e+08)
(1.82654e+08 3.61625e+06 -1.09859e+08)
(1.53173e+08 -4.70108e+07 1.12026e+08)
(1.61426e+08 -4.83167e+07 -1.30832e+08)
(-9.06572e+07 -3.30244e+08 -1.70684e+08)
(4.38165e+07 -7.9308e+07 7.28672e+08)
(1.45109e+08 -8.92066e+07 -1.67337e+08)
(1.90477e+08 -6.38827e+07 1.7176e+08)
(1.71426e+08 -1.24318e+08 6.49474e+08)
(2.70448e+08 3.24685e+08 -1.09692e+08)
(4.06333e+08 7.92073e+07 8.28996e+08)
(2.50746e+08 -8.33747e+07 -1.61218e+08)
(3.22804e+07 -7.67961e+07 -9.51982e+06)
(2.07294e+08 2.55508e+07 3.55825e+08)
(1.63403e+08 -1.36271e+08 -1.10052e+08)
(1.71715e+08 -4.56459e+07 5.74625e+06)
)
;
    }
    bottom
    {
        type            calculated;
        value           uniform (0 0 0);
    }
    top
    {
        type            symmetryPlane;
    }
    side1
    {
        type            symmetryPlane;
    }
    side2
    {
        type            symmetryPlane;
    }
    procBoundary23to15
    {
        type            processor;
        value           nonuniform List<vector> 
50
(
(1.33303e+06 -3.67259e+07 1.05411e+07)
(1.01464e+07 -4.47286e+07 1.33915e+08)
(-4.73022e+07 -4.30087e+07 3.34624e+07)
(-5.96073e+07 -5.14114e+07 1.03057e+08)
(-1.28039e+08 1.77981e+07 3.11016e+07)
(-1.33402e+08 4.48716e+07 8.82044e+07)
(-2.02597e+08 1.82345e+08 2.30641e+07)
(-1.23461e+08 3.48287e+08 4.4602e+07)
(-3.83792e+07 4.51682e+08 5.68057e+07)
(9.3486e+07 7.3351e+08 -1.16859e+08)
(9.80966e+07 -7.30491e+06 1.86214e+08)
(7.74833e+07 -3.20599e+07 92497.9)
(8.92616e+07 -3.4364e+07 1.8109e+08)
(5.05828e+07 -3.71591e+07 3.52656e+06)
(4.26245e+07 -4.32236e+07 1.8669e+08)
(-1.62684e+07 -2.1787e+07 -2.58709e+06)
(1.6102e+07 -7.43627e+07 1.87055e+08)
(-3.02928e+08 -1.7555e+07 -2.37332e+07)
(-2.97469e+08 5.11568e+08 -1.3671e+09)
(-2.84244e+08 -1.41966e+06 -5.92157e+06)
(6.20476e+07 -7.62631e+07 -8.85165e+07)
(1.0858e+08 1.30889e+06 2.37831e+08)
(1.32289e+08 -4.3532e+07 -7.13295e+06)
(1.64088e+08 -4.56208e+07 2.40945e+08)
(1.71032e+08 -6.95791e+07 -4.77583e+07)
(2.74597e+08 -5.51307e+07 2.16362e+08)
(1.39276e+08 -6.92664e+07 -7.97226e+07)
(2.55318e+08 -2.08561e+08 1.2908e+09)
(2.79123e+07 -1.55942e+08 -8.0624e+07)
(3.03173e+08 4.22499e+08 -2.25296e+09)
(-6.60538e+07 6.29226e+07 1.92292e+08)
(-6.27577e+07 -1.20831e+08 -2.20024e+08)
(1.91118e+07 -3.63956e+07 1.74609e+08)
(7.37631e+07 -7.51019e+07 6.95345e+06)
(1.30063e+08 -5.29575e+07 1.14716e+08)
(1.66398e+07 -8.58348e+07 -4.74407e+07)
(2.88905e+08 1.91457e+08 8.76724e+08)
(1.05859e+08 4.96053e+07 -3.82616e+07)
(3.04911e+08 8.9913e+06 5.39408e+08)
(2.09931e+07 -7.87265e+06 -1.35058e+08)
(-1.82942e+08 -4.16308e+08 -4.59292e+08)
(-1.82635e+08 -1.08786e+08 1.2889e+08)
(-4.68046e+08 2.60104e+08 -2.95796e+08)
(-1.74073e+08 -1.14544e+08 1.16247e+08)
(-1.29687e+08 -1.09026e+08 1.09275e+08)
(-1.40271e+08 -8.98438e+07 -4.05501e+07)
(-1.51678e+08 -1.0297e+08 9.34951e+07)
(-2.17284e+07 2.99058e+06 1.22749e+08)
(1.60611e+06 -3.04831e+07 -1.98843e+07)
(6.18368e+07 5.6991e+07 8.6749e+06)
)
;
    }
    procBoundary23to22
    {
        type            processor;
        value           nonuniform List<vector> 
20
(
(3.76509e+07 -3.38201e+06 -3.69004e+07)
(7.38391e+07 -1.92549e+07 1.18466e+08)
(4.7496e+07 -9.36715e+06 -4.59254e+07)
(6.95835e+07 -4.48993e+07 1.06712e+08)
(1.48231e+08 -1.60406e+07 1.71606e+08)
(1.41875e+08 -3.91389e+07 -5.46707e+07)
(1.68078e+08 -5.04005e+07 1.47162e+08)
(1.32813e+08 -6.75621e+07 -5.86588e+07)
(1.35967e+08 -8.07279e+07 -6.72338e+07)
(2.13854e+08 -5.40148e+07 2.15118e+08)
(2.23673e+08 -8.06159e+07 -6.09958e+07)
(2.37201e+08 -7.73994e+07 1.6315e+08)
(2.04818e+07 2.69505e+07 2.04653e+08)
(1.68288e+08 -9.3668e+07 -1.04601e+08)
(2.55216e+08 -7.39256e+07 2.09103e+08)
(2.79081e+08 -7.32646e+07 -1.09976e+08)
(-8.91227e+07 -3.89783e+08 -3.77513e+08)
(-5.90678e+07 -8.6002e+07 1.39333e+08)
(1.24436e+08 -8.27009e+07 -1.32787e+08)
(2.29549e+08 -8.89329e+07 2.08051e+08)
)
;
    }
    procBoundary23to31
    {
        type            processor;
        value           nonuniform List<vector> 
50
(
(5.86268e+07 -4.3832e+07 9.81969e+07)
(3.71386e+07 -9.84152e+06 -5.23246e+07)
(5.72543e+07 -2.85018e+07 1.0155e+08)
(2.99461e+07 -1.80767e+07 -5.97902e+07)
(5.17428e+07 -2.47983e+07 1.10348e+08)
(3.64508e+07 -3.06123e+07 -7.10918e+07)
(4.63179e+07 -3.34828e+07 1.14614e+08)
(4.35611e+07 -3.81447e+07 -7.6587e+07)
(4.25259e+07 -5.53631e+07 1.17568e+08)
(4.22286e+07 -3.6353e+07 -7.30271e+07)
(1.14602e+08 -6.45703e+07 -7.01039e+07)
(1.4135e+08 -5.04876e+07 1.20864e+08)
(1.12825e+08 -7.09391e+07 -9.17135e+07)
(1.40161e+08 -3.94043e+07 1.35117e+08)
(1.20679e+08 -7.17609e+07 -1.13965e+08)
(1.38592e+08 -3.94653e+07 1.37405e+08)
(1.3138e+08 -6.34766e+07 -1.31991e+08)
(1.38707e+08 -4.20429e+07 1.3166e+08)
(1.36274e+08 -5.6267e+07 -1.36385e+08)
(1.36224e+08 -4.50694e+07 1.23976e+08)
(2.26222e+08 -7.12175e+07 1.31936e+08)
(2.10996e+08 -7.89475e+07 -1.01283e+08)
(2.21449e+08 -6.08855e+07 1.39224e+08)
(2.13661e+08 -6.6861e+07 -1.30383e+08)
(2.16574e+08 -5.45272e+07 1.55273e+08)
(2.11075e+08 -5.9292e+07 -1.46788e+08)
(2.08522e+08 -4.97992e+07 1.69418e+08)
(2.03139e+08 -5.1589e+07 -1.55022e+08)
(1.96045e+08 -4.53754e+07 1.76596e+08)
(1.93688e+08 -4.7791e+07 -1.59624e+08)
(2.74351e+08 -5.89608e+07 -1.2248e+08)
(2.70237e+08 -6.84893e+07 1.73767e+08)
(2.64171e+08 -4.92723e+07 -1.40167e+08)
(2.55741e+08 -5.96557e+07 1.88856e+08)
(2.50311e+08 -4.1631e+07 -1.54862e+08)
(2.41982e+08 -5.01847e+07 2.03353e+08)
(2.37528e+08 -3.33732e+07 -1.65484e+08)
(2.27666e+08 -4.00847e+07 2.13297e+08)
(2.23927e+08 -2.92131e+07 -1.70201e+08)
(2.13138e+08 -2.17437e+07 2.19919e+08)
(2.35872e+08 -6.59529e+07 2.07239e+08)
(2.37584e+08 -4.0243e+07 -1.53249e+08)
(2.29081e+08 -5.48803e+07 2.17312e+08)
(2.28827e+08 -3.02549e+07 -1.66671e+08)
(2.2028e+08 -4.07548e+07 2.26642e+08)
(2.19449e+08 -1.72652e+07 -1.76733e+08)
(2.09936e+08 -2.55097e+07 2.34567e+08)
(2.08172e+08 -7.82599e+06 -1.81748e+08)
(1.95248e+08 -1.5441e+07 2.39955e+08)
(1.92177e+08 -1.35117e+07 -1.78995e+08)
)
;
    }
}


// ************************************************************************* //
