/*--------------------------------*- C++ -*----------------------------------*\
| =========                 |                                                 |
| \\      /  F ield         | OpenFOAM: The Open Source CFD Toolbox           |
|  \\    /   O peration     | Version:  2.4.0                                 |
|   \\  /    A nd           | Web:      www.OpenFOAM.org                      |
|    \\/     M anipulation  |                                                 |
\*---------------------------------------------------------------------------*/
FoamFile
{
    version     2.0;
    format      ascii;
    class       volScalarField;
    location    "0.02";
    object      p;
}
// * * * * * * * * * * * * * * * * * * * * * * * * * * * * * * * * * * * * * //

dimensions      [1 -1 -2 0 0 0 0];

internalField   nonuniform List<scalar> 
200
(
-87.3674
-85.7029
-84.5947
-79.7015
-78.5
-72.3569
-70.4381
-65.4194
-58.5642
-51.3012
-88.9748
-86.9453
-87.6567
-85.4854
-82.2121
-75.9099
-66.1008
-59.8902
-53.4898
-39.2481
-135.706
-108.318
-95.1799
-85.7659
-76.6493
-68.6499
-60.5475
-54.5957
-46.7882
-30.6391
-169.533
-107.036
-92.0769
-81.7192
-68.1792
-54.5938
-51.6425
-45.5431
-39.9436
-28.6491
-102.677
-102.897
-105.402
-101.542
-90.6833
-91.9176
-86.54
-85.3984
-89.333
-80.4154
-92.434
-86.9528
-89.8817
-92.7844
-85.0919
-79.343
-81.5336
-81.4169
-82.5501
-79.8794
-119.486
-102.308
-91.9202
-89.5504
-87.4141
-77.9696
-75.3282
-76.8892
-75.2421
-68.495
-212.835
-136.604
-101.118
-85.6413
-68.8276
-70.6169
-66.838
-65.682
-69.1424
-63.4027
-90.6192
-82.3453
-90.9544
-84.9436
-83.2166
-78.815
-81.5754
-84.3335
-81.1318
-80.467
-83.2375
-87.4539
-85.1467
-87.8882
-77.4886
-75.1776
-76.1681
-78.3269
-79.1838
-74.7144
-87.3398
-84.7033
-86.3923
-84.6317
-82.5796
-77.9956
-70.7703
-71.9081
-75.7657
-72.5036
-118.299
-99.8092
-95.0219
-89.3578
-90.9451
-84.3777
-83.4086
-86.585
-79.901
-76.8759
-77.5467
-76.1893
-74.2482
-87.4325
-90.9268
-90.7409
-99.1209
-112.703
-134.92
-117.539
-89.8755
-85.1641
-90.1587
-89.8692
-105.459
-99.7932
-89.8423
-101.022
-113.138
-136.17
-93.7574
-95.7587
-98.9754
-98.9362
-99.6896
-109.219
-102.621
-101.386
-107.655
-91.4898
-108.048
-103.744
-102.43
-106.679
-102.677
-104.078
-104.007
-101.726
-94.1569
-88.2377
-74.8696
-69.5816
-69.7748
-66.3929
-67.0152
-39.9257
12.0955
2.5291
-12.9555
-39.4261
-66.8282
-72.3808
-71.8935
-73.1001
-73.5913
-65.0682
-31.9135
0.186325
-25.7774
-35.847
-80.4755
-75.012
-74.147
-71.7046
-69.1645
-62.2602
-50.6426
-52.5217
-59.4006
-74.3346
-89.3725
-89.0816
-80.6896
-75.8183
-64.8747
-42.2523
-48.5049
-60.7041
-69.171
-66.371
)
;

boundaryField
{
    inlet
    {
        type            zeroGradient;
    }
    outlet
    {
        type            fixedValue;
        value           nonuniform 0();
    }
    bottom
    {
        type            zeroGradient;
    }
    top
    {
        type            symmetryPlane;
    }
    side1
    {
        type            symmetryPlane;
    }
    side2
    {
        type            symmetryPlane;
    }
    procBoundary19to11
    {
        type            processor;
        value           nonuniform List<scalar> 
50
(
-89.6725
-88.4728
-85.3947
-84.0118
-75.656
-72.8907
-69.369
-65.9069
-66.0036
-58.867
-119.777
-140.879
-133.129
-112.908
-105.958
-93.9587
-93.23
-82.7629
-75.2502
-76.7954
-91.552
-103.161
-118.287
-114.917
-95.5463
-91.5213
-88.7552
-84.7508
-95.1921
-71.0643
-74.963
-49.7156
-69.8112
-74.5882
-86.0865
-86.8206
-85.8912
-99.6335
-109.638
-114.595
-68.0922
-74.4854
-70.5331
-66.4339
-56.659
-43.1492
-34.8137
-42.8693
-37.1557
-41.7842
)
;
    }
    procBoundary19to18
    {
        type            processor;
        value           nonuniform List<scalar> 
20
(
-89.0835
-97.7445
-209.399
-129.629
-107.97
-100.13
-148.016
-377.848
-87.6682
-85.7588
-94.4997
-134.547
-82.2691
-81.7218
-92.2026
-111.68
-78.2462
-73.7017
-76.7228
-99.6844
)
;
    }
    procBoundary19to20
    {
        type            processor;
        value           nonuniform List<scalar> 
20
(
-43.7728
-12.5706
-8.06103
-23.4047
-77.9645
-72.5849
-53.5636
-55.4957
-61.8378
-73.2608
-70.5001
-71.893
-106.395
-101.8
-84.1014
-81.7043
-43.5989
-55.0567
-59.9485
-64.6111
)
;
    }
    procBoundary19to27
    {
        type            processor;
        value           nonuniform List<scalar> 
50
(
-27.0493
-41.0983
-59.8727
-57.214
-56.1568
-46.9164
-36.1149
-36.8457
-29.5737
-22.9218
-183.338
-133.052
-97.1292
-76.5631
-63.4263
-47.9606
-49.1118
-50.3319
-51.4664
-50.2343
-139.259
-116.14
-101.242
-99.3303
-92.7449
-92.7303
-82.835
-82.7162
-78.4542
-74.5507
-117.149
-104.031
-95.5871
-99.5096
-104.1
-104.863
-102.041
-94.3247
-91.4132
-83.6614
-91.1374
-89.6635
-82.5193
-76.807
-66.6736
-68.1217
-76.1209
-73.2409
-68.8532
-67.8315
)
;
    }
}


// ************************************************************************* //
