/*--------------------------------*- C++ -*----------------------------------*\
| =========                 |                                                 |
| \\      /  F ield         | OpenFOAM: The Open Source CFD Toolbox           |
|  \\    /   O peration     | Version:  2.4.0                                 |
|   \\  /    A nd           | Web:      www.OpenFOAM.org                      |
|    \\/     M anipulation  |                                                 |
\*---------------------------------------------------------------------------*/
FoamFile
{
    version     2.0;
    format      ascii;
    class       volVectorField;
    location    "0.02";
    object      Uc;
}
// * * * * * * * * * * * * * * * * * * * * * * * * * * * * * * * * * * * * * //

dimensions      [0 1 -1 0 0 0 0];

internalField   nonuniform List<vector> 
200
(
(1.58528e-18 1.07199e-18 4.30618e-20)
(1.80409e-17 1.06692e-17 6.272e-19)
(3.5526e-16 2.09969e-16 1.23727e-17)
(4.22706e-17 2.42967e-17 2.09256e-18)
(4.79492e-16 2.6999e-16 2.88729e-17)
(2.45485e-17 1.37707e-17 1.48281e-18)
(5.94269e-18 2.32316e-18 4.41674e-19)
(2.89253e-19 1.07127e-19 2.21962e-20)
(9.76725e-21 4.157e-21 4.8287e-22)
(2.61859e-22 1.29158e-22 5.00584e-24)
(3.00734e-21 2.02169e-21 8.27538e-23)
(3.48509e-20 2.06094e-20 1.21165e-21)
(6.2399e-19 3.68769e-19 2.17347e-20)
(8.16342e-20 4.69219e-20 4.04082e-21)
(8.41835e-19 4.74021e-19 5.06872e-20)
(4.74139e-20 2.65961e-20 2.86396e-21)
(1.09478e-20 4.31361e-21 8.10865e-22)
(5.68678e-22 2.11958e-22 4.34721e-23)
(1.98596e-23 8.29018e-24 1.06516e-24)
(5.4775e-25 2.62243e-25 1.41625e-26)
(5.39116e-24 3.60516e-24 1.5005e-25)
(6.29622e-23 3.72314e-23 2.18898e-24)
(1.0335e-21 6.1073e-22 3.60037e-23)
(1.4743e-22 8.47384e-23 7.29706e-24)
(1.39363e-21 7.84732e-22 8.39031e-23)
(8.56395e-23 4.8035e-23 5.17301e-24)
(1.91113e-23 7.58686e-24 1.41083e-24)
(1.05445e-24 3.95254e-25 8.03418e-26)
(3.82168e-26 1.57154e-26 2.17562e-27)
(1.08661e-27 5.06953e-28 3.43337e-29)
(9.22929e-27 6.14223e-27 2.59507e-28)
(1.07837e-25 6.37638e-26 3.74903e-27)
(1.63414e-24 9.65575e-25 5.6936e-26)
(2.52404e-25 1.45071e-25 1.2492e-26)
(2.20237e-24 1.24014e-24 1.3258e-25)
(1.46638e-25 8.22419e-26 8.85787e-27)
(3.19257e-26 1.2765e-26 2.3493e-27)
(1.86318e-27 7.02031e-28 1.41549e-28)
(7.02013e-29 2.85324e-29 4.18041e-30)
(2.06043e-30 9.39987e-31 7.52008e-32)
(8.21725e-21 5.50898e-21 2.41732e-22)
(9.81613e-20 5.73773e-20 4.15477e-21)
(1.85837e-18 1.07508e-18 8.99552e-20)
(2.11823e-18 8.15025e-19 5.36665e-19)
(2.47015e-18 1.37006e-18 1.70332e-19)
(1.36858e-19 7.503e-20 9.1128e-21)
(3.41845e-20 1.21003e-20 3.86082e-21)
(6.03635e-21 1.08842e-21 7.0781e-22)
(2.95431e-22 5.1018e-23 3.28555e-23)
(8.59892e-24 1.57707e-24 8.98027e-25)
(1.69528e-23 1.12947e-23 5.06495e-25)
(2.06527e-22 1.20745e-22 8.70296e-24)
(3.59109e-21 2.07726e-21 1.73856e-22)
(3.89703e-21 1.5121e-21 9.7379e-22)
(4.77304e-21 2.64721e-21 3.29484e-22)
(2.86606e-22 1.57559e-22 1.90015e-23)
(6.71984e-23 2.4319e-23 7.24687e-24)
(1.10075e-23 2.11029e-24 1.27242e-24)
(5.65066e-25 1.01312e-25 6.24265e-26)
(1.74382e-26 3.27408e-27 1.81486e-27)
(3.28415e-26 2.17587e-26 9.94837e-28)
(4.03658e-25 2.36016e-25 1.69697e-26)
(6.49275e-24 3.75462e-24 3.15149e-25)
(6.79409e-24 2.65741e-24 1.67498e-24)
(8.62766e-24 4.78409e-24 5.96851e-25)
(5.58487e-25 3.07593e-25 3.69345e-26)
(1.24886e-25 4.60563e-26 1.29559e-26)
(1.92577e-26 3.90974e-27 2.19317e-27)
(1.03131e-27 1.91927e-28 1.13113e-28)
(3.35794e-29 6.4572e-30 3.48118e-30)
(6.04266e-29 3.98326e-29 1.85363e-30)
(7.43684e-28 4.34825e-28 3.12354e-29)
(1.11323e-26 6.43489e-27 5.42589e-28)
(1.13353e-26 4.46771e-27 2.75802e-27)
(1.47874e-26 8.19729e-27 1.0259e-27)
(1.02685e-27 5.6628e-28 6.78213e-29)
(2.2154e-28 8.30522e-29 2.22362e-29)
(3.25442e-29 6.96796e-30 3.65005e-30)
(1.81004e-30 3.49421e-31 1.96992e-31)
(6.19165e-32 1.21973e-32 6.39154e-33)
(2.30921e-23 1.53462e-23 7.38699e-25)
(2.85845e-22 1.6517e-22 1.42018e-23)
(5.19461e-21 2.94554e-21 3.15974e-22)
(1.00042e-20 3.75898e-21 2.63121e-21)
(6.80706e-21 3.72132e-21 5.25568e-22)
(4.06266e-22 2.18266e-22 2.93565e-23)
(1.04776e-22 3.41547e-23 1.48767e-23)
(2.86123e-23 4.4242e-24 3.53546e-24)
(1.55633e-24 2.30424e-25 1.83157e-25)
(4.85403e-26 7.45311e-27 5.48339e-27)
(5.14828e-26 3.39928e-26 1.6732e-27)
(6.502e-25 3.75969e-25 3.19673e-26)
(1.09377e-23 6.20446e-24 6.61984e-25)
(1.98023e-23 7.48118e-24 5.16486e-24)
(1.43425e-23 7.84286e-24 1.10645e-24)
(9.16517e-25 4.94975e-25 6.56931e-26)
(2.19245e-25 7.38642e-26 2.9369e-26)
(5.49212e-26 8.92529e-27 6.73936e-27)
(3.14462e-27 4.79158e-28 3.69018e-28)
(1.0394e-28 1.62617e-29 1.17235e-29)
(1.07191e-28 7.03687e-29 3.534e-30)
(1.36637e-27 7.90408e-28 6.67431e-29)
(2.14121e-26 1.21457e-26 1.2949e-27)
(3.69316e-26 1.40263e-26 9.55379e-27)
(2.8086e-26 1.53572e-26 2.16953e-27)
(1.91591e-27 1.03844e-27 1.36642e-28)
(4.32644e-28 1.49859e-28 5.51063e-29)
(1.00613e-28 1.7172e-29 1.22492e-29)
(6.03257e-30 9.4677e-31 7.05506e-31)
(2.10407e-31 3.35689e-32 2.36871e-32)
(2.10969e-31 1.37777e-31 7.04855e-33)
(2.69369e-30 1.55854e-30 1.31094e-31)
(3.95321e-29 2.24172e-29 2.39546e-30)
(6.55917e-29 2.50388e-29 1.68313e-29)
(5.18573e-29 2.83473e-29 4.01665e-30)
(3.764e-30 2.04536e-30 2.67663e-31)
(8.12861e-31 2.88346e-31 9.90731e-32)
(1.77277e-31 3.17378e-32 2.13961e-32)
(1.10806e-32 1.7921e-33 1.29081e-33)
(4.0626e-34 6.61402e-35 4.56337e-35)
(4.65819e-26 3.06811e-26 1.62374e-27)
(5.92244e-25 3.38317e-25 3.37113e-26)
(1.03407e-23 5.75224e-24 7.49421e-25)
(2.63824e-23 9.82797e-24 7.02937e-24)
(1.33685e-23 7.20556e-24 1.13872e-24)
(8.54988e-25 4.50954e-25 6.6357e-26)
(2.27432e-25 6.917e-26 3.74058e-26)
(7.91529e-26 1.1431e-26 1.00242e-26)
(4.66312e-27 6.46852e-28 5.61684e-28)
(1.55067e-28 2.20589e-29 1.80504e-29)
(1.11603e-28 7.30267e-29 3.94712e-30)
(1.44727e-27 8.27872e-28 8.10126e-29)
(2.35373e-26 1.31084e-26 1.68727e-27)
(5.61009e-26 2.09884e-26 1.48524e-26)
(3.04775e-26 1.64406e-26 2.58582e-27)
(2.06606e-27 1.09789e-27 1.58538e-28)
(5.05207e-28 1.60138e-28 7.81164e-29)
(1.61306e-28 2.42842e-29 2.03535e-29)
(9.99633e-30 1.41924e-30 1.20267e-30)
(3.51448e-31 5.07679e-32 4.08885e-32)
(2.48531e-31 1.61678e-31 8.90884e-33)
(3.25253e-30 1.86212e-30 1.80061e-31)
(4.95529e-29 2.7611e-29 3.53323e-30)
(1.11835e-28 4.20138e-29 2.9422e-29)
(6.42298e-29 3.46577e-29 5.44495e-30)
(4.6102e-30 2.46263e-30 3.51163e-31)
(1.05567e-30 3.46486e-31 1.54553e-31)
(3.1223e-31 4.90212e-32 3.92183e-32)
(2.02595e-32 2.94687e-33 2.4335e-33)
(7.50213e-34 1.10135e-34 8.72117e-35)
(5.21012e-34 3.37152e-34 1.89159e-35)
(6.82945e-33 3.91201e-33 3.75421e-34)
(9.79346e-32 5.45733e-32 6.97178e-33)
(2.11369e-31 7.97283e-32 5.5264e-32)
(1.27024e-31 6.85374e-32 1.07816e-32)
(9.63521e-33 5.1662e-33 7.30516e-34)
(2.09515e-33 7.08507e-34 2.92173e-34)
(5.78866e-34 9.47782e-35 7.2322e-35)
(3.91665e-35 5.84134e-36 4.69492e-36)
(1.52242e-36 2.27301e-37 1.76788e-37)
(7.55907e-29 4.93356e-29 2.86436e-30)
(9.80967e-28 5.53983e-28 6.26663e-29)
(1.64867e-26 9.00261e-27 1.37282e-27)
(5.04237e-26 1.86998e-26 1.34822e-26)
(2.10397e-26 1.11822e-26 1.95013e-27)
(1.43457e-27 7.43784e-28 1.18353e-28)
(3.92902e-28 1.1263e-28 7.14038e-29)
(1.60178e-28 2.22502e-29 2.0553e-29)
(1.0114e-29 1.35303e-30 1.23111e-30)
(3.57173e-31 4.86821e-32 4.21246e-32)
(1.93689e-31 1.25592e-31 7.42635e-33)
(2.56166e-30 1.44972e-30 1.59953e-31)
(4.03027e-29 2.20541e-29 3.30073e-30)
(1.1475e-28 4.27113e-29 3.0511e-29)
(5.1567e-29 2.7449e-29 4.74335e-30)
(3.69541e-30 1.9343e-30 3.00529e-31)
(9.24059e-31 2.77911e-31 1.57787e-31)
(3.46522e-31 4.99055e-32 4.43715e-32)
(2.29737e-32 3.13452e-33 2.79524e-33)
(8.55483e-34 1.18133e-34 1.00881e-34)
(4.59405e-34 2.9616e-34 1.78155e-35)
(6.12844e-33 3.47317e-33 3.76702e-34)
(9.0736e-32 4.97121e-32 7.35698e-33)
(2.43726e-31 9.10407e-32 6.44487e-32)
(1.1631e-31 6.19607e-32 1.06596e-32)
(8.76442e-33 4.61851e-33 7.05853e-34)
(2.03942e-33 6.38765e-34 3.29253e-34)
(7.09064e-34 1.05967e-34 9.05351e-35)
(4.91559e-35 6.84703e-36 5.97595e-36)
(1.92363e-36 2.69328e-37 2.26757e-37)
(1.02203e-36 6.55405e-37 4.00782e-38)
(1.36511e-35 7.74363e-36 8.30185e-37)
(1.91026e-34 1.04721e-34 1.54031e-35)
(4.88893e-34 1.83255e-34 1.28579e-34)
(2.45189e-34 1.30657e-34 2.24491e-35)
(1.94125e-35 1.02797e-35 1.55322e-36)
(4.26516e-36 1.3833e-36 6.54584e-37)
(1.38459e-36 2.14828e-37 1.76153e-37)
(9.99991e-38 1.42327e-38 1.21426e-38)
(4.10008e-39 5.82439e-40 4.83026e-40)
)
;

boundaryField
{
    inlet
    {
        type            calculated;
        value           nonuniform 0();
    }
    outlet
    {
        type            calculated;
        value           nonuniform 0();
    }
    bottom
    {
        type            calculated;
        value           uniform (0 0 0);
    }
    top
    {
        type            symmetryPlane;
    }
    side1
    {
        type            symmetryPlane;
    }
    side2
    {
        type            symmetryPlane;
    }
    procBoundary19to11
    {
        type            processor;
        value           nonuniform List<vector> 
50
(
(7.78867e-16 5.30143e-16 2.08471e-17)
(8.56241e-15 5.06391e-15 2.97652e-16)
(1.8731e-13 1.10712e-13 6.52246e-15)
(2.00658e-14 1.15336e-14 9.93467e-16)
(2.52893e-13 1.42397e-13 1.52293e-14)
(1.16527e-14 6.53662e-15 7.03884e-16)
(3.01527e-15 1.16905e-15 2.24909e-16)
(1.36798e-16 5.02944e-17 1.05456e-17)
(4.4955e-18 1.96206e-18 1.97852e-19)
(1.17544e-19 5.9992e-20 1.31744e-21)
(3.68497e-18 2.48781e-18 1.06557e-19)
(4.24531e-17 2.48037e-17 1.81161e-18)
(8.82443e-16 5.10385e-16 4.2887e-17)
(1.07628e-15 4.1048e-16 2.76568e-16)
(1.17257e-15 6.50248e-16 8.09114e-17)
(5.96168e-17 3.25459e-17 3.99886e-18)
(1.62289e-17 5.59278e-18 1.93857e-18)
(3.14662e-18 5.31719e-19 3.73932e-19)
(1.45859e-19 2.42667e-20 1.63179e-20)
(3.98185e-21 7.13984e-22 4.17074e-22)
(9.52383e-21 6.3752e-21 2.99538e-22)
(1.13663e-19 6.55969e-20 5.74745e-21)
(2.24751e-18 1.27303e-18 1.3839e-19)
(4.69274e-18 1.75337e-18 1.24479e-18)
(2.94104e-18 1.60659e-18 2.28046e-19)
(1.63628e-19 8.72161e-20 1.19787e-20)
(4.66242e-20 1.45997e-20 7.08578e-21)
(1.40791e-20 2.07123e-21 1.74994e-21)
(7.23149e-22 1.0415e-22 8.52992e-23)
(2.11801e-23 3.19512e-24 2.39537e-24)
(1.77857e-23 1.18005e-23 6.1103e-25)
(2.18167e-22 1.24348e-22 1.27554e-23)
(4.11536e-21 2.28402e-21 3.0437e-22)
(1.14522e-20 4.24745e-21 3.0712e-21)
(5.30584e-21 2.8551e-21 4.55976e-22)
(3.2044e-22 1.67134e-22 2.53104e-23)
(9.51002e-23 2.7507e-23 1.67801e-23)
(3.64817e-23 5.05881e-24 4.63277e-24)
(2.03244e-24 2.75795e-25 2.44985e-25)
(6.36602e-26 8.92718e-27 7.41181e-27)
(2.68714e-26 1.76649e-26 1.00789e-27)
(3.36897e-25 1.8961e-25 2.22952e-26)
(6.08214e-24 3.30896e-24 5.20547e-25)
(2.03487e-23 7.51815e-24 5.4717e-24)
(7.72908e-24 4.09675e-24 7.26347e-25)
(5.03035e-25 2.57161e-25 4.23959e-26)
(1.54793e-25 4.18792e-26 3.01579e-26)
(6.9215e-26 9.28561e-27 8.89222e-27)
(4.14308e-27 5.44081e-28 5.04338e-28)
(1.3825e-28 1.86163e-29 1.6303e-29)
)
;
    }
    procBoundary19to18
    {
        type            processor;
        value           nonuniform List<vector> 
20
(
(5.95973e-20 4.14263e-20 1.51728e-21)
(1.19321e-22 8.26776e-23 3.06121e-24)
(2.24558e-25 1.55121e-25 5.80349e-27)
(4.01863e-28 2.76777e-28 1.04592e-29)
(3.26271e-22 2.25939e-22 8.60787e-24)
(7.03844e-25 4.85705e-25 1.87457e-26)
(1.42047e-27 9.76936e-28 3.81836e-29)
(2.71449e-30 1.8608e-30 7.36307e-32)
(9.62471e-25 6.63913e-25 2.64136e-26)
(2.22628e-27 1.52992e-27 6.17509e-29)
(4.79769e-30 3.285e-30 1.34499e-31)
(9.75343e-33 6.65463e-33 2.76325e-34)
(2.02736e-27 1.39286e-27 5.80653e-29)
(5.00638e-30 3.42581e-30 1.4501e-31)
(1.14761e-32 7.82243e-33 3.36262e-34)
(2.4734e-35 1.67959e-35 7.33163e-37)
(3.41999e-30 2.33987e-30 1.0221e-31)
(8.98195e-33 6.11945e-33 2.71445e-34)
(2.1827e-35 1.48099e-35 6.67457e-37)
(4.97235e-38 3.36038e-38 1.53883e-39)
)
;
    }
    procBoundary19to20
    {
        type            processor;
        value           nonuniform List<vector> 
20
(
(1.73188e-22 9.69032e-23 5.0045e-24)
(3.19114e-25 1.78853e-25 9.2845e-27)
(5.60517e-28 3.14407e-28 1.6426e-29)
(9.46128e-31 5.30761e-31 2.79454e-32)
(1.14258e-24 5.74918e-25 4.64191e-26)
(2.27369e-27 1.13859e-27 9.43843e-29)
(4.29447e-30 2.13847e-30 1.82098e-31)
(7.76459e-33 3.84243e-33 3.36215e-34)
(4.0394e-27 1.83601e-27 2.05301e-28)
(8.62594e-30 3.88447e-30 4.49208e-31)
(1.74158e-32 7.76484e-33 9.28591e-34)
(3.35415e-35 1.47993e-35 1.82958e-36)
(1.01281e-29 4.18233e-30 6.03702e-31)
(2.30821e-32 9.41557e-33 1.40861e-33)
(4.9564e-35 1.99606e-35 3.09385e-36)
(1.01199e-37 4.02259e-38 6.45496e-39)
(2.01931e-32 7.62261e-33 1.3511e-33)
(4.88893e-35 1.81969e-35 3.34194e-36)
(1.11179e-37 4.07852e-38 7.7572e-39)
(2.39725e-40 8.66646e-41 1.70547e-41)
)
;
    }
    procBoundary19to27
    {
        type            processor;
        value           nonuniform List<vector> 
50
(
(1.49622e-29 9.92777e-30 4.23257e-31)
(1.72836e-28 1.02183e-28 6.00843e-30)
(2.48794e-27 1.46975e-27 8.66917e-29)
(4.08217e-28 2.34657e-28 2.01459e-29)
(3.35156e-27 1.88704e-27 2.01743e-28)
(2.40186e-28 1.34691e-28 1.45088e-29)
(5.13154e-29 2.06582e-29 3.76443e-30)
(3.15453e-30 1.19428e-30 2.39021e-31)
(1.23567e-31 4.97559e-32 7.62243e-33)
(3.74048e-33 1.67267e-33 1.52479e-34)
(1.04526e-31 6.86958e-32 3.22765e-33)
(1.27387e-30 7.44779e-31 5.34217e-32)
(1.82432e-29 1.05432e-29 8.89059e-31)
(1.81579e-29 7.20284e-30 4.36809e-30)
(2.42509e-29 1.34374e-29 1.68773e-30)
(1.79743e-30 9.92166e-31 1.18624e-31)
(3.76925e-31 1.43403e-31 3.67459e-32)
(5.31882e-32 1.1968e-32 5.872e-33)
(3.05878e-33 6.12253e-34 3.30125e-34)
(1.09423e-34 2.20808e-35 1.12443e-35)
(3.87744e-34 2.52489e-34 1.30265e-35)
(4.90844e-33 2.84055e-33 2.37724e-34)
(6.93177e-32 3.93158e-32 4.18284e-33)
(1.11414e-31 4.27133e-32 2.8391e-32)
(9.11265e-32 4.97895e-32 7.08189e-33)
(7.01123e-33 3.81734e-33 4.97584e-34)
(1.46027e-33 5.29134e-34 1.71045e-34)
(3.00791e-34 5.64355e-35 3.59546e-35)
(1.95105e-35 3.25411e-36 2.26255e-36)
(7.48879e-37 1.24465e-37 8.39062e-38)
(1.01354e-36 6.54102e-37 3.69197e-38)
(1.31843e-35 7.55656e-36 7.18419e-37)
(1.82808e-34 1.01954e-34 1.28993e-35)
(3.80579e-34 1.44038e-34 9.89762e-35)
(2.37997e-34 1.28372e-34 2.02464e-35)
(1.90254e-35 1.02308e-35 1.43754e-36)
(3.96435e-36 1.3769e-36 5.28713e-37)
(1.02915e-36 1.7577e-37 1.2777e-37)
(7.23074e-38 1.10686e-38 8.64516e-39)
(2.93954e-39 4.46595e-40 3.40894e-40)
(2.09737e-39 1.34175e-39 8.22581e-41)
(2.78213e-38 1.57984e-38 1.6701e-39)
(3.77966e-37 2.07536e-37 3.00688e-38)
(9.30911e-37 3.49937e-37 2.43688e-37)
(4.87775e-37 2.59914e-37 4.46785e-38)
(4.04974e-38 2.15274e-38 3.22386e-39)
(8.4812e-39 2.83817e-39 1.24181e-39)
(2.58307e-39 4.1644e-40 3.27149e-40)
(1.93618e-40 2.81889e-41 2.34717e-41)
(8.29025e-42 1.19555e-42 9.75867e-43)
)
;
    }
}


// ************************************************************************* //
