/*--------------------------------*- C++ -*----------------------------------*\
| =========                 |                                                 |
| \\      /  F ield         | OpenFOAM: The Open Source CFD Toolbox           |
|  \\    /   O peration     | Version:  2.4.0                                 |
|   \\  /    A nd           | Web:      www.OpenFOAM.org                      |
|    \\/     M anipulation  |                                                 |
\*---------------------------------------------------------------------------*/
FoamFile
{
    version     2.0;
    format      ascii;
    class       volScalarField;
    location    "0.09";
    object      p;
}
// * * * * * * * * * * * * * * * * * * * * * * * * * * * * * * * * * * * * * //

dimensions      [1 -1 -2 0 0 0 0];

internalField   nonuniform List<scalar> 
200
(
6.2495e+16
6.24947e+16
6.24944e+16
6.2494e+16
6.24934e+16
6.24929e+16
6.24921e+16
6.24914e+16
6.24906e+16
6.24905e+16
6.24945e+16
6.24944e+16
6.24942e+16
6.24939e+16
6.24936e+16
6.24933e+16
6.2493e+16
6.24927e+16
6.24925e+16
6.24922e+16
6.24944e+16
6.24944e+16
6.24943e+16
6.24942e+16
6.24941e+16
6.24939e+16
6.24938e+16
6.24937e+16
6.24936e+16
6.24935e+16
6.24946e+16
6.24946e+16
6.24946e+16
6.24946e+16
6.24946e+16
6.24945e+16
6.24944e+16
6.24944e+16
6.24943e+16
6.24943e+16
6.24942e+16
6.24934e+16
6.24931e+16
6.24923e+16
6.24923e+16
6.24916e+16
6.24917e+16
6.24908e+16
6.24906e+16
6.24901e+16
6.24938e+16
6.24936e+16
6.24935e+16
6.24934e+16
6.2493e+16
6.24929e+16
6.24925e+16
6.24924e+16
6.2492e+16
6.24919e+16
6.2494e+16
6.24939e+16
6.24939e+16
6.24938e+16
6.24937e+16
6.24936e+16
6.24935e+16
6.24933e+16
6.24932e+16
6.24931e+16
6.24943e+16
6.24943e+16
6.24943e+16
6.24943e+16
6.24942e+16
6.24942e+16
6.24941e+16
6.24941e+16
6.2494e+16
6.2494e+16
6.24908e+16
6.24905e+16
6.24904e+16
6.24905e+16
6.24898e+16
6.24909e+16
6.24888e+16
6.24897e+16
6.24884e+16
6.24885e+16
6.24926e+16
6.24923e+16
6.24922e+16
6.2492e+16
6.24921e+16
6.24912e+16
6.24916e+16
6.24911e+16
6.24911e+16
6.24909e+16
6.24932e+16
6.24932e+16
6.24931e+16
6.24932e+16
6.2493e+16
6.24931e+16
6.24928e+16
6.24928e+16
6.24926e+16
6.24925e+16
6.24938e+16
6.24938e+16
6.24938e+16
6.24937e+16
6.24938e+16
6.24937e+16
6.24937e+16
6.24937e+16
6.24936e+16
6.24936e+16
6.24881e+16
6.24871e+16
6.24867e+16
6.24861e+16
6.2486e+16
6.2485e+16
6.24862e+16
6.24841e+16
6.24855e+16
6.24853e+16
6.2491e+16
6.24905e+16
6.24902e+16
6.24901e+16
6.24896e+16
6.24902e+16
6.24888e+16
6.24894e+16
6.2489e+16
6.24893e+16
6.24926e+16
6.24924e+16
6.24923e+16
6.24922e+16
6.24923e+16
6.24919e+16
6.2492e+16
6.24917e+16
6.24918e+16
6.24917e+16
6.24934e+16
6.24933e+16
6.24933e+16
6.24934e+16
6.24933e+16
6.24934e+16
6.24933e+16
6.24933e+16
6.24932e+16
6.24932e+16
6.24897e+16
6.24885e+16
6.2487e+16
6.24858e+16
6.24843e+16
6.24832e+16
6.24836e+16
6.24843e+16
6.24848e+16
6.24854e+16
6.24922e+16
6.24917e+16
6.2491e+16
6.24903e+16
6.24897e+16
6.24891e+16
6.2489e+16
6.24889e+16
6.2489e+16
6.2489e+16
6.2493e+16
6.24929e+16
6.24927e+16
6.24925e+16
6.24922e+16
6.2492e+16
6.24917e+16
6.24916e+16
6.24914e+16
6.24914e+16
6.24936e+16
6.24935e+16
6.24935e+16
6.24934e+16
6.24934e+16
6.24932e+16
6.24931e+16
6.2493e+16
6.2493e+16
6.2493e+16
)
;

boundaryField
{
    inlet
    {
        type            zeroGradient;
    }
    outlet
    {
        type            fixedValue;
        value           nonuniform 0();
    }
    bottom
    {
        type            zeroGradient;
    }
    top
    {
        type            symmetryPlane;
    }
    side1
    {
        type            symmetryPlane;
    }
    side2
    {
        type            symmetryPlane;
    }
    procBoundary16to8
    {
        type            processor;
        value           nonuniform List<scalar> 
50
(
6.24976e+16
6.2496e+16
6.24953e+16
6.24941e+16
6.24937e+16
6.24925e+16
6.24919e+16
6.24905e+16
6.24896e+16
6.24888e+16
6.24929e+16
6.24922e+16
6.24921e+16
6.24919e+16
6.24909e+16
6.24926e+16
6.24898e+16
6.24903e+16
6.24882e+16
6.2488e+16
6.2488e+16
6.24881e+16
6.2489e+16
6.24879e+16
6.24885e+16
6.24869e+16
6.24892e+16
6.24847e+16
6.24864e+16
6.24843e+16
6.24824e+16
6.24819e+16
6.24812e+16
6.24806e+16
6.24789e+16
6.24783e+16
6.24772e+16
6.24785e+16
6.24777e+16
6.24807e+16
6.24845e+16
6.24821e+16
6.24794e+16
6.24768e+16
6.24743e+16
6.24759e+16
6.24766e+16
6.24783e+16
6.24795e+16
6.24805e+16
)
;
    }
    procBoundary16to17
    {
        type            processor;
        value           nonuniform List<scalar> 
20
(
6.24903e+16
6.24921e+16
6.24937e+16
6.24942e+16
6.24899e+16
6.24916e+16
6.24931e+16
6.2494e+16
6.24882e+16
6.24908e+16
6.24925e+16
6.24937e+16
6.2486e+16
6.24893e+16
6.24917e+16
6.24932e+16
6.24857e+16
6.2489e+16
6.24914e+16
6.2493e+16
)
;
    }
    procBoundary16to24
    {
        type            processor;
        value           nonuniform List<scalar> 
50
(
6.24949e+16
6.24949e+16
6.24949e+16
6.24949e+16
6.24949e+16
6.24948e+16
6.24948e+16
6.24948e+16
6.24948e+16
6.24948e+16
6.24947e+16
6.24946e+16
6.24947e+16
6.24947e+16
6.24946e+16
6.24946e+16
6.24946e+16
6.24946e+16
6.24946e+16
6.24946e+16
6.24943e+16
6.24943e+16
6.24943e+16
6.24943e+16
6.24943e+16
6.24943e+16
6.24943e+16
6.24943e+16
6.24943e+16
6.24944e+16
6.2494e+16
6.2494e+16
6.2494e+16
6.2494e+16
6.2494e+16
6.2494e+16
6.2494e+16
6.2494e+16
6.2494e+16
6.24941e+16
6.2494e+16
6.2494e+16
6.2494e+16
6.2494e+16
6.24939e+16
6.24939e+16
6.24939e+16
6.24939e+16
6.24939e+16
6.24939e+16
)
;
    }
}


// ************************************************************************* //
