/*--------------------------------*- C++ -*----------------------------------*\
| =========                 |                                                 |
| \\      /  F ield         | OpenFOAM: The Open Source CFD Toolbox           |
|  \\    /   O peration     | Version:  2.4.0                                 |
|   \\  /    A nd           | Web:      www.OpenFOAM.org                      |
|    \\/     M anipulation  |                                                 |
\*---------------------------------------------------------------------------*/
FoamFile
{
    version     2.0;
    format      ascii;
    class       surfaceScalarField;
    location    "0.09";
    object      phib;
}
// * * * * * * * * * * * * * * * * * * * * * * * * * * * * * * * * * * * * * //

dimensions      [0 3 -1 0 0 0 0];

internalField   nonuniform List<scalar> 
490
(
1.06195
3.78361
0.146434
1.63774
3.32049
0.098955
2.05649
3.16959
-0.367565
3.01826
2.80903
-0.189887
3.5325
2.61152
-0.209101
4.30319
2.15979
-0.122874
4.68003
1.82278
0.0359752
5.2151
1.39318
-0.0208161
5.6198
0.945151
0.0785752
0.463735
0.0873815
0.71868
2.97667
0.08827
1.22537
2.78083
0.0329781
1.92715
2.57619
-0.108383
2.45312
2.37033
-0.0872717
3.06446
2.05362
-0.0534385
3.30689
1.89349
0.0238641
3.62247
1.51755
-0.0103468
3.87769
1.07617
0.0617923
3.99759
0.758135
0.067118
0.358346
0.197281
0.566932
2.4384
-0.0286436
1.10661
2.28274
-0.041581
1.56591
2.11718
-0.000290158
1.97382
1.98636
-0.0239316
2.26788
1.75569
0.00386734
2.59789
1.53838
0.0250907
3.03601
1.07286
0.00656843
3.28404
0.737909
0.0902341
3.11429
0.754013
0.17387
0.693855
0.165511
0.497518
-0.0604012
0.912586
-0.0176833
1.16856
-0.00884383
1.40751
-0.00566553
1.67248
0.108069
2.17814
0.105401
2.46753
0.12532
2.50066
0.218424
2.42781
0.187674
0.290455
1.79906
4.51487
0.834152
0.812359
3.06822
0.126774
1.00247
2.25425
0.135583
0.44497
3.34702
0.165645
1.85477
2.12884
-0.106879
2.20449
2.34
0.141971
4.38003
1.39247
-0.170539
4.39685
1.10954
0.39197
4.7591
0.343065
0.488045
-0.0599356
0.580944
0.97552
2.80808
0.819553
1.18755
2.49837
0.390793
1.07846
2.54427
-0.289306
2.1791
1.95882
0.200283
2.23696
1.93432
0.0832175
3.15856
1.30839
0.133879
3.28412
0.986451
0.270104
3.65147
0.502627
0.301347
3.506
0.141955
0.413704
-0.289376
0.381437
0.347833
2.11849
0.313131
0.569496
1.9648
0.270331
1.16372
1.79253
0.157221
1.50809
1.58087
0.0096523
2.11016
1.20433
0.131788
2.36815
0.885373
0.190122
2.61052
0.555752
0.194897
2.6726
0.201173
0.329607
2.72976
-0.0398443
0.298512
-0.532479
0.422902
0.292977
0.143321
0.61304
0.152344
0.877681
0.184422
1.24405
0.155824
1.56944
0.220098
1.80157
0.197287
1.95843
0.322302
2.09439
0.274683
2.18149
0.37448
0.323437
-2.39623
4.89453
1.08935
-2.18594
1.7402
1.1703
-3.00907
2.41288
1.55465
-2.82953
2.86784
1.10435
-3.24613
3.54041
0.896457
1.72826
3.34268
-1.20476
1.43369
3.30553
0.274968
4.15407
0.701512
0.437718
3.90779
0.194317
0.968758
-0.913974
1.06948
0.764081
2.7876
2.16242
-0.689111
2.16881
1.41538
-0.688422
1.59823
0.524662
-1.14124
2.74481
0.776133
0.145416
1.714
0.622974
0.75468
2.39912
0.468172
3.18046
0.537516
0.612336
3.1768
0.229658
0.776865
3.50074
-0.538834
0.822919
-0.874595
0.689729
0.474393
1.49283
1.13352
0.653589
1.3552
0.904739
0.135437
1.73289
0.540703
1.16095
1.11429
0.614663
1.03389
1.40774
0.565102
2.42936
0.553933
0.639844
2.3744
0.250484
0.536887
2.63274
-0.256408
0.557332
2.48137
-0.603922
0.514968
-0.88148
0.470323
0.136169
0.39186
0.193366
0.405629
0.647754
0.620893
0.703878
0.420715
1.40511
0.470955
1.54563
0.362905
1.80861
0.390644
1.8371
0.415187
1.87407
0.343734
0.417805
-0.698995
1.96934
1.96571
-2.29138
1.91366
1.85516
-1.46863
0.64415
1.36679
-1.98626
1.46773
0.887312
3.27451
0.823177
1.27132
2.08198
4.13112
-1.39712
3.26626
0.533155
1.02274
2.13372
0.811456
-0.0291888
3.09173
-1.27015
0.874077
-1.61879
0.687002
-0.534012
2.77984
1.88594
0.782126
0.84182
1.17108
0.2392
0.886634
0.825104
0.654425
0.91554
0.913099
-0.112514
1.51608
0.697008
2.33305
1.22895
0.92477
1.72099
1.29359
0.463968
3.12727
-0.591602
0.773649
2.93535
-0.883803
0.628489
-1.572
0.509093
1.28888
1.61313
1.01137
1.42706
0.976777
0.631594
1.66172
0.534894
0.657787
1.14256
1.28382
0.765543
1.80207
0.654474
0.767205
1.58701
1.45211
0.631734
2.82637
-0.0111706
0.602287
2.62616
-0.373556
0.539498
2.7603
-0.90511
0.402128
-1.20422
0.448637
0.551287
0.411501
0.818327
0.364704
0.571761
0.546736
1.21123
0.498302
0.921274
0.510116
2.03667
0.427472
1.96858
0.460008
2.1424
0.312321
1.94417
0.3968
0.239821
1.20927
1.23351
4.02953
-0.86928
4.69371
-1.93834
4.74971
-2.00843
4.58218
-1.9282
3.06161
-2.56521
2.4916
-2.00415
2.24551
-2.94265
2.07578
-2.94356
-3.19286
2.83036
0.289103
3.76166
-0.629493
3.58602
-0.937604
3.30506
-0.814374
3.31686
-1.24299
2.72182
-1.0454
2.97835
-1.79672
2.73536
-1.926
2.65565
-2.23537
-2.35051
1.38723
-0.0867458
1.87095
-0.481614
1.80836
-0.217225
2.33575
-0.576224
2.18867
-0.328708
2.67208
-0.897066
2.52765
-1.05
2.51326
-1.37212
2.24468
-1.56465
-1.77139
0.432375
0.501414
1.08195
1.19445
1.77037
1.80574
1.97723
1.866
1.83461
)
;

boundaryField
{
    inlet
    {
        type            fixedValue;
        value           nonuniform List<scalar> 
20
(
-1.5e-05
-1.5e-05
-1.5e-05
-1.5e-05
-1.5e-05
-1.5e-05
-1.5e-05
-1.5e-05
-1.5e-05
-1.5e-05
-1.5e-05
-1.5e-05
-1.5e-05
-1.5e-05
-1.5e-05
-1.5e-05
-1.5e-05
-1.5e-05
-1.5e-05
-1.5e-05
)
;
    }
    outlet
    {
        type            calculated;
        value           nonuniform 0();
    }
    bottom
    {
        type            fixedValue;
        value           uniform 0;
    }
    top
    {
        type            symmetryPlane;
        value           nonuniform List<scalar> 
40
(
-5.59771e-15
-1.06496e-14
-1.43952e-14
-1.27777e-14
-3.94011e-15
-6.83264e-15
-1.22834e-14
-1.07053e-14
-2.99158e-15
-5.51951e-15
-8.43652e-15
-8.90653e-15
-2.61965e-15
-4.13571e-15
-6.34365e-15
-8.04023e-15
-2.39587e-15
-3.67354e-15
-5.28531e-15
-6.92199e-15
-2.66864e-15
-2.88611e-15
-4.47758e-15
-6.10104e-15
-2.78827e-15
-2.71403e-15
-3.83326e-15
-5.08051e-15
-2.12574e-15
-2.59894e-15
-3.53219e-15
-4.65694e-15
-2.38905e-15
-2.70794e-15
-3.39225e-15
-4.29266e-15
-2.32785e-15
-2.64913e-15
-3.2951e-15
-4.25275e-15
)
;
    }
    side1
    {
        type            symmetryPlane;
        value           nonuniform 0();
    }
    side2
    {
        type            symmetryPlane;
        value           nonuniform 0();
    }
    procBoundary16to8
    {
        type            processor;
        value           nonuniform List<scalar> 
50
(
-4.99198
-3.99524
-3.22077
-3.58092
-2.91666
-2.8076
-2.2356
-1.90744
-1.42842
-1.42672
-7.00163
-2.10934
-2.94751
-3.14505
-3.64085
-2.95457
-3.3615
-1.53914
-1.11478
-0.0224274
-2.75348
-2.99402
-3.00883
-3.98608
-4.12714
-6.97034
-3.45647
-3.46764
-0.428756
0.129548
-2.14669
-1.00614
-1.27903
-0.73307
-6.45881
-2.74623
-2.4652
0.787995
0.406811
2.30815
-0.477053
-0.0958223
2.64095
2.83975
3.36705
2.68866
3.59689
3.15955
3.98738
3.84314
)
;
    }
    procBoundary16to17
    {
        type            processor;
        value           nonuniform List<scalar> 
20
(
6.4954
3.9057
2.61327
3.03159
4.3479
3.55128
2.71547
2.19075
4.20368
3.15307
2.44084
1.76558
2.78484
3.0692
2.41421
1.89677
2.1125
2.32239
2.1142
1.61614
)
;
    }
    procBoundary16to24
    {
        type            processor;
        value           nonuniform List<scalar> 
50
(
2.0013
1.88535
1.87005
1.75307
1.38266
0.927324
0.658145
0.48636
0.63919
-0.200379
1.62181
1.47471
1.33463
1.05301
0.766907
0.561357
0.201907
0.00895573
-0.313752
-0.574723
1.10814
1.04472
0.842036
0.793271
0.455653
0.247799
-0.0808452
-0.4254
-0.610142
-0.867354
1.04222
0.750662
0.855617
0.566764
0.905265
0.272146
-0.0124388
-0.444512
-0.759943
-0.978835
-0.107604
-0.185949
-0.251024
-0.190424
-0.394514
-0.504958
-0.761481
-0.948573
-1.13646
-1.3131
)
;
    }
}


// ************************************************************************* //
