/*--------------------------------*- C++ -*----------------------------------*\
| =========                 |                                                 |
| \\      /  F ield         | OpenFOAM: The Open Source CFD Toolbox           |
|  \\    /   O peration     | Version:  2.4.0                                 |
|   \\  /    A nd           | Web:      www.OpenFOAM.org                      |
|    \\/     M anipulation  |                                                 |
\*---------------------------------------------------------------------------*/
FoamFile
{
    version     2.0;
    format      ascii;
    class       volVectorField;
    location    "0.04";
    object      A_Source;
}
// * * * * * * * * * * * * * * * * * * * * * * * * * * * * * * * * * * * * * //

dimensions      [1 -2 -2 0 0 0 0];

internalField   nonuniform List<vector> 
200
(
(0.607694 0.292306 -0.250596)
(0.0205027 0.00986196 -0.00845473)
(0.000389484 0.000187475 -0.000160599)
(3.48715e-05 3.07865e-05 -1.29556e-05)
(0.00278669 0.00266871 -0.00101413)
(0.220125 0.210808 -0.0801076)
(13.0422 12.4901 -4.74627)
(441.676 422.982 -160.732)
(13.0474 12.5114 -4.60916)
(0.220325 0.211615 -0.0748987)
(82.2867 39.5806 -33.9327)
(2.42949 1.16861 -1.00185)
(0.0410211 0.0197427 -0.0169148)
(0.00330543 0.00291818 -0.00122807)
(0.293481 0.281057 -0.106806)
(26.0798 24.9759 -9.49112)
(1765.93 1691.19 -642.668)
(69867.5 66910.2 -25426.6)
(1765.93 1691.19 -642.668)
(26.0798 24.9759 -9.49111)
(0.607694 0.292306 -0.250596)
(0.0205027 0.00986196 -0.00845474)
(0.000389484 0.000187475 -0.000160599)
(3.48715e-05 3.07865e-05 -1.29558e-05)
(0.00278669 0.00266871 -0.00101415)
(0.220125 0.210808 -0.0801094)
(13.0422 12.4901 -4.74638)
(441.676 422.982 -160.738)
(13.0422 12.4901 -4.74638)
(0.220147 0.210836 -0.0801159)
(0.00257275 0.00122971 -0.00106093)
(9.76719e-05 4.66517e-05 -4.02772e-05)
(2.06253e-06 9.85265e-07 -8.50445e-07)
(2.03197e-07 1.77889e-07 -7.54945e-08)
(1.47576e-05 1.40239e-05 -5.37073e-06)
(0.00104881 0.000997378 -0.00038169)
(0.0552193 0.0525484 -0.0200958)
(1.63588 1.55785 -0.595341)
(0.0552193 0.0525483 -0.0200958)
(0.00104906 0.000997694 -0.000381767)
(210.346 101.178 -86.7409)
(6.20906 2.98661 -2.56044)
(0.104755 0.0503881 -0.0431981)
(0.00132573 0.000637749 -0.000546687)
(2.54379e-05 1.76979e-05 -9.93462e-06)
(0.000814976 0.00078042 -0.000296589)
(0.0429249 0.0411081 -0.015621)
(1.27236 1.21851 -0.463024)
(0.0429396 0.0411905 -0.0150841)
(0.000527559 0.00100217 0.00146288)
(33288.2 16011.9 -13727.1)
(841.07 404.562 -346.834)
(12.4163 5.97232 -5.12012)
(0.139675 0.0671904 -0.0575976)
(0.00241191 0.00167797 -0.000941974)
(0.0858424 0.0822037 -0.0312409)
(5.0864 4.87111 -1.85107)
(172.285 164.993 -62.6991)
(5.0864 4.87111 -1.85107)
(0.0858284 0.0822004 -0.0312194)
(210.346 101.178 -86.7409)
(6.20906 2.98661 -2.56044)
(0.104755 0.0503881 -0.0431981)
(0.00132573 0.000637749 -0.000546686)
(2.54378e-05 1.76979e-05 -9.93473e-06)
(0.000814976 0.000780419 -0.000296597)
(0.0429249 0.0411081 -0.0156215)
(1.27236 1.21851 -0.463046)
(0.0429249 0.0411081 -0.0156215)
(0.000814928 0.000780491 -0.000296484)
(0.778747 0.372482 -0.321134)
(0.0262775 0.01256 -0.0108361)
(0.000498909 0.000238298 -0.000205736)
(7.01792e-06 3.35007e-06 -2.89395e-06)
(1.48186e-07 1.02235e-07 -5.7874e-08)
(4.31527e-06 4.10038e-06 -1.57049e-06)
(0.00020449 0.000194463 -7.44194e-05)
(0.00538682 0.00512626 -0.00196041)
(0.00020449 0.000194462 -7.44194e-05)
(4.31563e-06 4.1016e-06 -1.57017e-06)
(0.606694 0.291825 -0.250184)
(0.0204647 0.00984371 -0.00843909)
(0.000388411 0.000186829 -0.00016017)
(5.46137e-06 2.62712e-06 -2.2521e-06)
(8.92512e-08 5.53389e-08 -3.54598e-08)
(1.67599e-06 1.60862e-06 -5.97142e-07)
(7.92777e-05 7.63827e-05 -2.73293e-05)
(0.002068 0.00202908 -0.000592012)
(-0.00244305 0.00198947 0.0151899)
(-0.171207 0.129843 1.03282)
(82.1682 39.5236 -33.8839)
(2.42549 1.16668 -1.00021)
(0.0409217 0.0196837 -0.016875)
(0.000517863 0.000249109 -0.000213551)
(7.69739e-06 4.76859e-06 -3.06584e-06)
(0.0001591 0.000152342 -5.79031e-05)
(0.008379 0.00802435 -0.00304932)
(0.248381 0.237869 -0.0903906)
(0.00835416 0.00804319 -0.00289946)
(-0.00131594 0.00127135 0.00884045)
(0.606694 0.291825 -0.250184)
(0.0204647 0.00984371 -0.00843909)
(0.000388411 0.000186829 -0.00016017)
(5.46137e-06 2.62712e-06 -2.2521e-06)
(8.92954e-08 5.53206e-08 -3.5566e-08)
(1.67825e-06 1.60691e-06 -6.10791e-07)
(7.95459e-05 7.61791e-05 -2.89487e-05)
(0.00209632 0.00200759 -0.000762895)
(7.94111e-05 7.62813e-05 -2.81356e-05)
(-5.43472e-06 7.00639e-06 4.23024e-05)
(0.00256799 0.00122743 -0.00105897)
(9.74711e-05 4.65559e-05 -4.01944e-05)
(2.05613e-06 9.81396e-07 -8.47891e-07)
(3.18126e-08 1.51746e-08 -1.31185e-08)
(5.67606e-10 3.48442e-10 -2.26077e-10)
(9.77805e-09 9.28342e-09 -3.55874e-09)
(4.2118e-07 4.00244e-07 -1.53278e-07)
(9.98777e-06 9.49799e-06 -3.63476e-06)
(4.20645e-07 4.00647e-07 -1.50053e-07)
(-1.56169e-08 2.84683e-08 1.49676e-07)
(0.00099997 0.000480994 -0.000412361)
(3.79419e-05 1.82504e-05 -1.56462e-05)
(8.00076e-07 3.84859e-07 -3.2994e-07)
(1.20791e-08 6.02124e-09 -4.96823e-09)
(-8.40043e-09 3.57804e-09 1.93601e-08)
(-4.53822e-07 3.48374e-07 2.75033e-06)
(-6.00954e-05 4.57628e-05 0.000363144)
(-0.00715012 0.00542698 0.0431477)
(-0.728401 0.552408 4.39408)
(-57.6976 43.7569 348.061)
(0.118499 0.0569992 -0.0488659)
(0.00399721 0.00192269 -0.00164834)
(7.5866e-05 3.64922e-05 -3.1285e-05)
(1.06673e-06 5.13126e-07 -4.39885e-07)
(1.5697e-08 9.22205e-09 -6.0622e-09)
(2.12714e-07 2.13575e-07 -4.46399e-08)
(9.66786e-06 1.04372e-05 3.74496e-07)
(0.000200389 0.000316319 0.000338035)
(-0.00644736 0.00490734 0.0389524)
(-0.43828 0.332385 2.64393)
(0.000999972 0.000480995 -0.00041236)
(3.79419e-05 1.82504e-05 -1.56462e-05)
(8.00098e-07 3.84854e-07 -3.29938e-07)
(1.23746e-08 5.95257e-09 -5.1029e-09)
(1.98975e-10 1.16501e-10 -7.81329e-11)
(2.49608e-09 2.45686e-09 -6.86331e-10)
(1.04991e-07 1.07806e-07 -1.4232e-08)
(2.18929e-06 2.78603e-06 1.48063e-06)
(-3.16906e-05 2.42211e-05 0.000191796)
(-0.00188804 0.00143186 0.0113896)
(4.76355e-06 2.27525e-06 -1.96436e-06)
(2.00865e-07 9.58734e-08 -8.28312e-08)
(4.66069e-09 2.22299e-09 -1.92194e-09)
(7.86628e-11 3.74952e-11 -3.24381e-11)
(1.3712e-12 7.94141e-13 -5.41513e-13)
(1.59309e-11 1.54337e-11 -4.7258e-12)
(6.17606e-10 6.18396e-10 -1.18545e-10)
(1.21023e-08 1.42589e-08 4.77311e-09)
(-1.14737e-07 8.75847e-08 6.95788e-07)
(-6.08631e-06 4.5912e-06 3.67158e-05)
(1.23745e-06 5.95223e-07 -5.09242e-07)
(5.21672e-08 2.50929e-08 -2.14636e-08)
(1.20997e-09 5.82207e-10 -4.97761e-10)
(1.5547e-11 1.49041e-11 -5.19903e-12)
(-1.68849e-10 1.95756e-10 1.94297e-10)
(-5.05472e-09 5.52492e-09 1.53078e-08)
(-3.01946e-07 2.35314e-07 1.61083e-06)
(-3.05156e-05 2.35371e-05 0.000170236)
(-0.00262874 0.00201208 0.0151772)
(-0.174164 0.13257 1.03078)
(0.000130332 6.26906e-05 -5.36456e-05)
(4.94574e-06 2.37894e-06 -2.03529e-06)
(1.04305e-07 5.01716e-08 -4.29151e-08)
(1.61337e-09 7.76091e-10 -6.63652e-10)
(2.40356e-11 1.43774e-11 -8.1914e-12)
(2.1155e-10 2.6786e-10 9.70818e-11)
(7.25666e-09 1.28333e-08 1.59942e-08)
(-6.75941e-08 4.86902e-07 1.79629e-06)
(-2.51529e-05 1.91426e-05 0.000149521)
(-0.00148416 0.00112672 0.00888075)
(1.23746e-06 5.95227e-07 -5.09243e-07)
(5.21674e-08 2.50929e-08 -2.14637e-08)
(1.21015e-09 5.82092e-10 -4.978e-10)
(2.04195e-11 9.82242e-12 -8.39779e-12)
(3.34604e-13 1.9168e-13 -1.23485e-13)
(2.90498e-12 3.18503e-12 1.93556e-13)
(1.01634e-10 1.35523e-10 8.66106e-11)
(7.6003e-10 4.01087e-09 1.04067e-08)
(-1.35612e-07 1.03172e-07 8.11235e-07)
(-7.14162e-06 5.41853e-06 4.28208e-05)
(6.55439e-09 3.13401e-09 -2.72489e-09)
(3.03944e-10 1.45007e-10 -1.25213e-10)
(7.69374e-12 3.66731e-12 -3.16537e-12)
(1.40684e-13 6.70122e-14 -5.78535e-14)
(2.49014e-15 1.40082e-15 -9.41136e-16)
(2.04634e-14 2.1373e-14 -1.02871e-15)
(6.82671e-13 8.2644e-13 3.38836e-13)
(7.26516e-12 2.10444e-11 4.39489e-11)
(-5.36899e-10 4.06144e-10 3.2192e-09)
(-2.5484e-08 1.92185e-08 1.52872e-07)
)
;

boundaryField
{
    inlet
    {
        type            zeroGradient;
    }
    outlet
    {
        type            zeroGradient;
    }
    bottom
    {
        type            zeroGradient;
    }
    top
    {
        type            symmetryPlane;
    }
    side1
    {
        type            symmetryPlane;
    }
    side2
    {
        type            symmetryPlane;
    }
    procBoundary27to19
    {
        type            processor;
        value           nonuniform List<vector> 
50
(
(0.00256473 0.00123349 -0.00105764)
(9.73281e-05 4.68144e-05 -4.01363e-05)
(2.05539e-06 9.89404e-07 -8.47024e-07)
(2.22722e-07 1.92441e-07 -3.01517e-08)
(1.48973e-05 1.48687e-05 -2.51059e-07)
(0.001062 0.00106898 5.90715e-05)
(0.0562439 0.0575553 0.0112088)
(1.69443 1.81716 1.05174)
(1.92603 7.60726 48.7426)
(0.0641781 0.255916 1.64503)
(0.776552 0.373528 -0.320229)
(0.0261945 0.0125998 -0.0108019)
(0.000497153 0.000239135 -0.000205015)
(6.99075e-06 3.36305e-06 -2.88256e-06)
(1.48494e-07 1.06567e-07 -3.24842e-08)
(4.37472e-06 4.42404e-06 4.22842e-07)
(0.000208699 0.000215049 5.43124e-05)
(0.00560355 0.00608623 0.00413699)
(0.00636255 0.0250629 0.160441)
(0.000235578 0.000949643 0.00610428)
(0.00256041 0.00122548 -0.001069)
(9.71319e-05 4.66741e-05 -4.01568e-05)
(2.04811e-06 9.84859e-07 -8.45375e-07)
(3.10507e-08 1.53564e-08 -1.30516e-08)
(-1.21375e-08 2.79566e-09 1.78076e-10)
(9.25046e-09 1.02349e-08 1.55112e-09)
(4.27771e-07 4.49098e-07 1.55262e-07)
(1.01599e-05 1.16832e-05 1.05371e-05)
(-9.65017e-06 6.28317e-05 0.000425473)
(-0.00126675 0.000964073 0.00762218)
(4.74924e-06 2.25679e-06 -2.01811e-06)
(1.99698e-07 9.61158e-08 -8.30892e-08)
(-6.08695e-09 4.70333e-09 -3.29699e-09)
(-1.30196e-07 2.50302e-08 3.3222e-09)
(-2.85039e-06 5.46578e-07 7.53487e-08)
(-1.4076e-07 3.70156e-08 3.64708e-08)
(-6.11546e-07 4.70386e-07 3.43525e-06)
(-6.26898e-05 4.80257e-05 0.000362927)
(-0.00548335 0.00418017 0.032351)
(-0.367379 0.279183 2.19703)
(6.53365e-09 3.07435e-09 -2.83541e-09)
(3.00295e-10 1.45968e-10 -1.25929e-10)
(-6.80947e-11 5.10845e-11 9.09219e-12)
(-2.04439e-09 2.15071e-09 1.06021e-09)
(-7.0843e-08 8.54381e-08 4.26783e-08)
(-1.35207e-06 1.89282e-06 9.20782e-07)
(-8.60299e-06 8.12259e-06 -8.97913e-07)
(-0.00060764 0.000571697 -6.65039e-05)
(-0.0320095 0.0301147 -0.00346272)
(-0.949194 0.892892 -0.0988954)
)
;
    }
    procBoundary27to26
    {
        type            processor;
        value           nonuniform List<vector> 
20
(
(0.0179111 0.0086153 -0.00738608)
(2.07853 0.99979 -0.857129)
(0.0179111 0.00861537 -0.00738603)
(8.66997e-05 4.14074e-05 -3.57531e-05)
(5.31191 2.55507 -2.19049)
(699.291 336.365 -288.368)
(5.31191 2.55507 -2.19049)
(0.0229564 0.0109714 -0.0094666)
(0.017878 0.00859262 -0.00738719)
(2.07504 0.99811 -0.855689)
(0.0178774 0.00859917 -0.00737215)
(8.65206e-05 4.13218e-05 -3.56788e-05)
(3.36802e-05 1.61691e-05 -1.39567e-05)
(0.00349185 0.00167961 -0.00143994)
(3.36778e-05 1.61993e-05 -1.38878e-05)
(1.80556e-07 8.61771e-08 -7.44784e-08)
(4.68966e-08 2.24794e-08 -1.94637e-08)
(4.38997e-06 2.11161e-06 -1.80654e-06)
(4.68939e-08 2.25676e-08 -1.93495e-08)
(4.7462e-10 1.04266e-09 -4.30119e-09)
)
;
    }
    procBoundary27to28
    {
        type            processor;
        value           nonuniform List<vector> 
20
(
(0.00278016 0.00269398 -0.000839427)
(0.293501 0.281087 -0.106811)
(0.00532799 0.00592271 -0.00179909)
(4.17244e-05 4.81547e-05 -1.37001e-05)
(-0.00976576 0.00742595 0.0589775)
(0.00100399 0.00110331 0.000102402)
(2.1518e-05 2.46546e-05 -5.03455e-06)
(1.874e-07 2.18728e-07 -5.36471e-08)
(-6.7796 5.14154 40.898)
(-0.0500481 0.0380149 0.301987)
(-0.000211079 0.000160813 0.0012743)
(-6.69176e-07 5.09756e-07 4.04383e-06)
(-2746.57 2082.96 16568.7)
(-17.3555 13.1621 104.697)
(-0.0640736 0.0485923 0.386524)
(-0.000180664 0.000136364 0.00108986)
(-6.78947 5.14904 40.839)
(-0.0501405 0.0380258 0.301476)
(-0.000211607 0.000160479 0.00127179)
(-6.71573e-07 5.0663e-07 4.03459e-06)
)
;
    }
}


// ************************************************************************* //
