/*--------------------------------*- C++ -*----------------------------------*\
| =========                 |                                                 |
| \\      /  F ield         | OpenFOAM: The Open Source CFD Toolbox           |
|  \\    /   O peration     | Version:  2.4.0                                 |
|   \\  /    A nd           | Web:      www.OpenFOAM.org                      |
|    \\/     M anipulation  |                                                 |
\*---------------------------------------------------------------------------*/
FoamFile
{
    version     2.0;
    format      ascii;
    class       surfaceScalarField;
    location    "0.04";
    object      phia;
}
// * * * * * * * * * * * * * * * * * * * * * * * * * * * * * * * * * * * * * //

dimensions      [0 3 -1 0 0 0 0];

internalField   nonuniform List<scalar> 
490
(
4.99201e-08
3.63231e-06
4.91126e-06
4.99199e-08
3.63231e-06
4.91129e-06
4.99198e-08
3.6323e-06
4.91131e-06
4.99197e-08
3.6323e-06
4.91134e-06
4.99196e-08
3.63229e-06
4.91136e-06
4.99195e-08
3.63229e-06
4.91138e-06
4.99195e-08
3.63229e-06
4.91139e-06
4.99196e-08
3.63229e-06
4.91137e-06
4.99197e-08
3.6323e-06
4.91136e-06
3.63222e-06
4.91134e-06
4.99209e-08
3.63234e-06
4.91109e-06
4.99207e-08
3.63234e-06
4.91113e-06
4.99204e-08
3.63233e-06
4.91118e-06
4.99202e-08
3.63232e-06
4.91124e-06
4.99199e-08
3.63231e-06
4.91129e-06
4.99197e-08
3.6323e-06
4.91134e-06
4.99197e-08
3.63229e-06
4.91138e-06
4.99199e-08
3.6323e-06
4.91136e-06
4.97851e-08
3.63194e-06
4.91135e-06
1.12722e-06
4.91134e-06
4.99009e-08
3.62099e-06
4.91104e-06
4.99215e-08
3.62163e-06
4.9111e-06
4.99211e-08
3.62223e-06
4.91116e-06
4.99208e-08
3.62283e-06
4.91122e-06
4.99204e-08
3.62344e-06
4.91128e-06
4.992e-08
3.62405e-06
4.91133e-06
4.99198e-08
3.62466e-06
4.91137e-06
4.92788e-08
3.62258e-06
4.91136e-06
-4.32445e-06
-2.29264e-06
4.91136e-06
-1.9045e-05
4.97857e-06
4.97966e-08
4.91099e-06
4.99223e-08
4.91107e-06
4.99219e-08
4.91115e-06
4.99214e-08
4.91122e-06
4.99208e-08
4.91128e-06
4.99194e-08
4.91134e-06
4.73402e-08
4.91138e-06
-1.04359e-05
4.91141e-06
-4.60965e-05
5.0725e-06
5.51258e-06
4.99199e-08
3.63231e-06
4.90898e-06
4.99198e-08
3.6323e-06
4.91123e-06
4.99197e-08
3.6323e-06
4.91127e-06
4.99196e-08
3.63229e-06
4.91131e-06
4.99195e-08
3.63229e-06
4.91134e-06
4.99195e-08
3.63229e-06
4.91137e-06
4.99195e-08
3.63229e-06
4.91139e-06
4.99195e-08
3.63229e-06
4.91139e-06
4.99195e-08
3.63229e-06
4.91138e-06
3.63229e-06
4.91138e-06
4.99207e-08
3.63234e-06
4.90963e-06
4.99204e-08
3.63233e-06
4.91111e-06
4.99202e-08
3.63232e-06
4.91117e-06
4.99199e-08
3.63231e-06
4.91123e-06
4.99197e-08
3.6323e-06
4.91129e-06
4.99195e-08
3.63229e-06
4.91135e-06
4.99195e-08
3.63229e-06
4.91139e-06
4.99195e-08
3.63229e-06
4.91138e-06
4.99195e-08
3.63229e-06
4.91138e-06
3.63219e-06
4.91138e-06
4.99215e-08
3.62163e-06
4.91e-06
4.99211e-08
3.62223e-06
4.91108e-06
4.99208e-08
3.62284e-06
4.91115e-06
4.99204e-08
3.62344e-06
4.91122e-06
4.992e-08
3.62405e-06
4.91129e-06
4.99196e-08
3.62466e-06
4.91135e-06
4.99195e-08
3.62528e-06
4.91139e-06
4.99195e-08
3.62464e-06
4.91138e-06
4.97545e-08
3.62373e-06
4.91138e-06
1.67488e-06
4.91139e-06
4.99223e-08
4.91021e-06
4.99219e-08
4.91107e-06
4.99214e-08
4.91115e-06
4.99209e-08
4.91123e-06
4.99203e-08
4.9113e-06
4.99198e-08
4.91136e-06
4.99194e-08
4.91138e-06
4.94276e-08
4.91138e-06
-3.40336e-06
4.9114e-06
4.99403e-06
5.02205e-08
3.63077e-06
1.8992e-07
4.99202e-08
3.63231e-06
4.87941e-06
4.992e-08
3.63231e-06
4.91116e-06
4.99198e-08
3.6323e-06
4.91122e-06
4.99197e-08
3.6323e-06
4.91129e-06
4.99195e-08
3.63229e-06
4.91135e-06
4.99195e-08
3.63229e-06
4.91139e-06
4.99195e-08
3.63229e-06
4.91138e-06
4.99195e-08
3.63229e-06
4.91138e-06
3.63229e-06
4.91138e-06
5.01132e-08
3.63132e-06
2.59809e-07
4.99209e-08
3.63235e-06
4.89062e-06
4.99206e-08
3.63234e-06
4.91108e-06
4.99203e-08
3.63233e-06
4.91116e-06
4.992e-08
3.63232e-06
4.91125e-06
4.99196e-08
3.6323e-06
4.91133e-06
4.99195e-08
3.63229e-06
4.91138e-06
4.99195e-08
3.63229e-06
4.91138e-06
4.99195e-08
3.63229e-06
4.91138e-06
3.63223e-06
4.91138e-06
5.00602e-08
3.62026e-06
3.47403e-07
4.99217e-08
3.62162e-06
4.89639e-06
4.99213e-08
3.62223e-06
4.91108e-06
4.99208e-08
3.62283e-06
4.91117e-06
4.99203e-08
3.62343e-06
4.91126e-06
4.99198e-08
3.62404e-06
4.91133e-06
4.99195e-08
3.62464e-06
4.91138e-06
4.99195e-08
3.624e-06
4.91138e-06
4.98188e-08
3.6232e-06
4.91138e-06
2.53796e-06
4.91138e-06
5.00293e-08
4.52544e-07
4.99225e-08
4.8998e-06
4.99219e-08
4.91109e-06
4.99213e-08
4.91119e-06
4.99207e-08
4.91128e-06
4.99199e-08
4.91135e-06
4.99195e-08
4.91138e-06
4.96201e-08
4.91138e-06
-1.87636e-06
4.91139e-06
4.96211e-06
6.99323e-07
-3.56407e-07
-4.60774e-06
5.42539e-08
3.61014e-06
9.01263e-08
4.99208e-08
3.63231e-06
4.58096e-06
4.992e-08
3.63231e-06
4.90402e-06
4.99198e-08
3.6323e-06
4.90466e-06
4.99196e-08
3.6323e-06
4.90525e-06
4.99195e-08
3.63229e-06
4.90582e-06
4.99195e-08
3.63229e-06
4.90532e-06
4.99195e-08
3.63229e-06
4.90481e-06
3.63229e-06
4.90431e-06
6.88444e-07
-2.90575e-07
-4.53673e-06
5.27102e-08
3.61745e-06
1.09822e-07
4.99214e-08
3.63235e-06
4.68883e-06
4.99206e-08
3.63234e-06
4.90349e-06
4.99202e-08
3.63233e-06
4.90413e-06
4.99197e-08
3.63231e-06
4.90473e-06
4.99195e-08
3.63229e-06
4.90532e-06
4.99195e-08
3.63229e-06
4.90481e-06
4.99195e-08
3.63229e-06
4.90431e-06
3.63224e-06
4.90381e-06
6.75856e-07
-2.09375e-07
-4.44766e-06
5.19206e-08
3.61004e-06
1.26093e-07
4.9922e-08
3.62161e-06
4.74723e-06
4.99212e-08
3.62221e-06
4.90303e-06
4.99206e-08
3.62281e-06
4.90365e-06
4.99199e-08
3.62341e-06
4.90424e-06
4.99195e-08
3.624e-06
4.90481e-06
4.99195e-08
3.62337e-06
4.90431e-06
4.98392e-08
3.6226e-06
4.90381e-06
2.84856e-06
4.9033e-06
6.61169e-07
-4.34086e-06
5.14544e-08
1.42306e-07
4.99227e-08
4.78269e-06
4.99217e-08
4.90256e-06
4.99209e-08
4.90318e-06
4.992e-08
4.90376e-06
4.99195e-08
4.90431e-06
4.96817e-08
4.9038e-06
-1.32636e-06
4.90331e-06
4.94062e-06
1.36444e-06
-4.65171e-07
7.50886e-07
-4.54912e-07
9.42349e-08
3.40268e-06
4.99269e-08
3.63227e-06
4.99199e-08
3.6323e-06
4.99196e-08
3.6323e-06
4.99195e-08
3.63229e-06
4.99195e-08
3.63229e-06
4.99195e-08
3.63229e-06
3.63229e-06
1.36355e-06
-4.65173e-07
7.35121e-07
-4.48462e-07
7.93559e-08
3.47422e-06
4.99258e-08
3.63232e-06
4.99203e-08
3.63233e-06
4.99198e-08
3.63231e-06
4.99195e-08
3.63229e-06
4.99195e-08
3.63229e-06
4.99195e-08
3.63229e-06
3.63225e-06
1.36237e-06
-4.64134e-07
7.25861e-07
-4.39102e-07
7.1274e-08
3.5037e-06
4.99254e-08
3.62156e-06
4.99208e-08
3.62219e-06
4.992e-08
3.62278e-06
4.99195e-08
3.62337e-06
4.99195e-08
3.62273e-06
4.98488e-08
3.62198e-06
3.01158e-06
1.36087e-06
7.19427e-07
6.63395e-08
4.99254e-08
4.99212e-08
4.99201e-08
4.99195e-08
4.97109e-08
-1.0373e-06
)
;

boundaryField
{
    inlet
    {
        type            calculated;
        value           nonuniform 0();
    }
    outlet
    {
        type            calculated;
        value           nonuniform 0();
    }
    bottom
    {
        type            calculated;
        value           uniform 0;
    }
    top
    {
        type            symmetryPlane;
        value           uniform 0;
    }
    side1
    {
        type            symmetryPlane;
        value           nonuniform 0();
    }
    side2
    {
        type            symmetryPlane;
        value           uniform 0;
    }
    procBoundary27to19
    {
        type            processor;
        value           nonuniform List<scalar> 
50
(
-3.63229e-06
-3.63229e-06
-3.63229e-06
-3.63229e-06
-3.63229e-06
-3.63229e-06
-3.63229e-06
-3.63229e-06
-3.63229e-06
-3.63229e-06
-3.63229e-06
-3.63229e-06
-3.63229e-06
-3.63229e-06
-3.63229e-06
-3.63229e-06
-3.63229e-06
-3.63229e-06
-3.63229e-06
-3.63229e-06
-3.62952e-06
-3.63229e-06
-3.63229e-06
-3.63229e-06
-3.63229e-06
-3.63229e-06
-3.63229e-06
-3.63229e-06
-3.63229e-06
-3.63229e-06
4.06687e-07
-3.59322e-06
-3.63229e-06
-3.63229e-06
-3.63229e-06
-3.63229e-06
-3.63229e-06
-3.63229e-06
-3.63229e-06
-3.63229e-06
4.65178e-07
4.59647e-07
-3.25403e-06
-3.63224e-06
-3.63229e-06
-3.63229e-06
-3.63229e-06
-3.63229e-06
-3.63229e-06
-3.63229e-06
)
;
    }
    procBoundary27to26
    {
        type            processor;
        value           nonuniform List<scalar> 
20
(
-4.99271e-08
-4.98932e-08
3.179e-07
1.92373e-06
-4.99475e-08
-4.99388e-08
-4.99147e-08
-4.98116e-08
-5.56328e-07
-4.85727e-07
-4.17268e-07
-3.56732e-07
-1.35285e-06
-1.34351e-06
-1.33172e-06
-1.3175e-06
-1.36564e-06
-1.36564e-06
-1.36564e-06
-1.36564e-06
)
;
    }
    procBoundary27to28
    {
        type            processor;
        value           nonuniform List<scalar> 
20
(
4.98961e-08
-1.17178e-06
-3.99707e-05
-7.12875e-05
4.99196e-08
4.98785e-08
-1.40936e-06
-3.90408e-05
4.99196e-08
4.98944e-08
-7.46673e-07
-3.74728e-05
4.99261e-08
4.99029e-08
-5.17967e-07
-3.68764e-05
4.99433e-08
4.99144e-08
-3.99727e-07
-3.6535e-05
)
;
    }
}


// ************************************************************************* //
