/*--------------------------------*- C++ -*----------------------------------*\
| =========                 |                                                 |
| \\      /  F ield         | OpenFOAM: The Open Source CFD Toolbox           |
|  \\    /   O peration     | Version:  2.4.0                                 |
|   \\  /    A nd           | Web:      www.OpenFOAM.org                      |
|    \\/     M anipulation  |                                                 |
\*---------------------------------------------------------------------------*/
FoamFile
{
    version     2.0;
    format      ascii;
    class       volVectorField;
    location    "0.04";
    object      Uc;
}
// * * * * * * * * * * * * * * * * * * * * * * * * * * * * * * * * * * * * * //

dimensions      [0 1 -1 0 0 0 0];

internalField   nonuniform List<vector> 
200
(
(-5.88747e-07 -5.55915e-07 1.06598e-08)
(-1.98634e-08 -1.87557e-08 3.59646e-10)
(-3.76946e-10 -3.5591e-10 6.77925e-12)
(8.68566e-12 9.91174e-12 -5.08287e-12)
(1.32589e-09 1.41409e-09 -4.90902e-10)
(1.04742e-07 1.11708e-07 -3.87781e-08)
(6.20583e-06 6.61858e-06 -2.29755e-06)
(0.00021016 0.000224138 -7.78066e-05)
(6.20717e-06 6.62107e-06 -2.29762e-06)
(1.04785e-07 1.11804e-07 -3.87802e-08)
(-7.97208e-05 -7.52751e-05 1.44342e-06)
(-2.35374e-06 -2.22248e-06 4.26167e-08)
(-3.97081e-08 -3.74924e-08 7.15013e-10)
(8.23183e-10 9.39404e-10 -4.81782e-10)
(1.39639e-07 1.48927e-07 -5.16997e-08)
(1.24095e-05 1.32349e-05 -4.59431e-06)
(0.000840247 0.000896132 -0.000311081)
(0.0331936 0.0354014 -0.0122891)
(0.000840247 0.000896132 -0.000311081)
(1.24095e-05 1.32349e-05 -4.59431e-06)
(-5.88747e-07 -5.55915e-07 1.06598e-08)
(-1.98634e-08 -1.87557e-08 3.59646e-10)
(-3.76946e-10 -3.5591e-10 6.77925e-12)
(8.68565e-12 9.91176e-12 -5.08286e-12)
(1.32589e-09 1.41409e-09 -4.90902e-10)
(1.04742e-07 1.11708e-07 -3.87781e-08)
(6.20583e-06 6.61858e-06 -2.29755e-06)
(0.00021016 0.000224138 -7.78066e-05)
(6.20583e-06 6.61858e-06 -2.29755e-06)
(1.04709e-07 1.11706e-07 -3.87788e-08)
(-2.49254e-09 -2.33869e-09 4.51298e-11)
(-9.46267e-11 -8.87235e-11 1.7133e-12)
(-1.99571e-12 -1.8698e-12 3.58435e-14)
(5.06195e-14 5.72784e-14 -2.96192e-14)
(7.02153e-12 7.43088e-12 -2.59969e-12)
(4.99054e-10 5.28516e-10 -1.84763e-10)
(2.62749e-08 2.78456e-08 -9.72764e-09)
(7.784e-07 8.25512e-07 -2.88183e-07)
(2.62749e-08 2.78456e-08 -9.72764e-09)
(4.98667e-10 5.28494e-10 -1.84771e-10)
(-0.000203786 -0.000192422 3.68974e-06)
(-6.01546e-06 -5.68e-06 1.08916e-07)
(-1.01489e-07 -9.58294e-08 1.83755e-09)
(-1.2842e-09 -1.21258e-09 2.32294e-11)
(-8.09061e-12 -6.97272e-12 -1.77344e-12)
(3.87601e-10 4.13396e-10 -1.43544e-10)
(2.04249e-08 2.17834e-08 -7.56182e-09)
(6.05425e-07 6.45694e-07 -2.24144e-07)
(2.03272e-08 2.18048e-08 -7.55603e-09)
(-5.71002e-09 1.14123e-09 2.14904e-10)
(-0.0322007 -0.030405 0.000583024)
(-0.000814815 -0.000769376 1.4753e-05)
(-1.20291e-05 -1.13583e-05 2.17799e-07)
(-1.35304e-07 -1.27758e-07 2.44788e-09)
(-7.67312e-10 -6.61314e-10 -1.68123e-10)
(4.08301e-08 4.35471e-08 -1.51202e-08)
(2.42025e-06 2.58122e-06 -8.96038e-07)
(8.19778e-05 8.74302e-05 -3.03503e-05)
(2.42025e-06 2.58122e-06 -8.96038e-07)
(4.07821e-08 4.35643e-08 -1.51169e-08)
(-0.000203786 -0.000192422 3.68974e-06)
(-6.01546e-06 -5.68e-06 1.08916e-07)
(-1.01489e-07 -9.58294e-08 1.83755e-09)
(-1.2842e-09 -1.21258e-09 2.32294e-11)
(-8.09061e-12 -6.9727e-12 -1.77344e-12)
(3.87601e-10 4.13396e-10 -1.43544e-10)
(2.04249e-08 2.17834e-08 -7.56182e-09)
(6.05426e-07 6.45693e-07 -2.24144e-07)
(2.04249e-08 2.17834e-08 -7.56181e-09)
(3.87263e-10 4.13543e-10 -1.43531e-10)
(-7.54467e-07 -7.08396e-07 1.36603e-08)
(-2.54582e-08 -2.38869e-08 4.60945e-10)
(-4.83353e-10 -4.53201e-10 8.75157e-12)
(-6.79789e-12 -6.3693e-12 1.22941e-13)
(-4.71192e-14 -4.02658e-14 -1.03327e-14)
(2.05214e-12 2.17187e-12 -7.60037e-13)
(9.73022e-11 1.03047e-10 -3.60238e-11)
(2.5632e-09 2.71643e-09 -9.48962e-10)
(9.73022e-11 1.03047e-10 -3.60238e-11)
(2.0498e-12 2.17265e-12 -7.6002e-13)
(-5.87778e-07 -5.55e-07 1.06423e-08)
(-1.98267e-08 -1.8721e-08 3.58981e-10)
(-3.76301e-10 -3.55317e-10 6.81329e-12)
(-5.29062e-12 -4.99557e-12 9.57374e-14)
(-4.9376e-14 -4.47394e-14 -3.42907e-15)
(7.49822e-13 8.56465e-13 -2.92712e-13)
(3.2172e-11 4.1045e-11 -1.36793e-11)
(3.98062e-10 1.13533e-09 -3.3406e-10)
(-5.33552e-08 6.40882e-09 3.12463e-09)
(-3.62372e-06 4.32219e-07 2.13015e-07)
(-7.9606e-05 -7.51667e-05 1.44134e-06)
(-2.34987e-06 -2.21883e-06 4.25466e-08)
(-3.96458e-08 -3.74349e-08 7.17825e-10)
(-5.01679e-10 -4.73701e-10 9.07902e-12)
(-4.22639e-12 -3.86057e-12 -2.98206e-13)
(7.56306e-11 8.06677e-11 -2.80179e-11)
(3.98689e-09 4.25215e-09 -1.47607e-09)
(1.1818e-07 1.26048e-07 -4.37554e-08)
(3.46112e-09 4.31486e-09 -1.44516e-09)
(-3.11445e-08 3.80437e-09 1.80725e-09)
(-5.87778e-07 -5.55e-07 1.06423e-08)
(-1.98267e-08 -1.8721e-08 3.58981e-10)
(-3.76301e-10 -3.55316e-10 6.81329e-12)
(-5.29062e-12 -4.99556e-12 9.57367e-14)
(-4.9025e-14 -4.47812e-14 -3.46e-15)
(7.97629e-13 8.50763e-13 -2.95523e-13)
(3.78497e-11 4.03677e-11 -1.40131e-11)
(9.9745e-10 1.06384e-09 -3.69294e-10)
(3.49969e-11 4.0708e-11 -1.38454e-11)
(-1.49763e-10 1.88077e-11 8.55528e-12)
(-2.48793e-09 -2.33436e-09 4.50462e-11)
(-9.44321e-11 -8.85412e-11 1.70978e-12)
(-1.99202e-12 -1.86644e-12 3.60674e-14)
(-3.08174e-14 -2.88543e-14 5.576e-16)
(-3.1162e-16 -2.8207e-16 -2.19945e-17)
(4.64631e-15 4.91426e-15 -1.7217e-15)
(2.00407e-13 2.12092e-13 -7.41965e-14)
(4.75229e-12 5.03305e-12 -1.75947e-12)
(1.89084e-13 2.13432e-13 -7.35311e-14)
(-5.32966e-13 6.86553e-14 2.9883e-14)
(-9.68792e-10 -9.14767e-10 1.7541e-11)
(-3.67589e-11 -3.4709e-11 6.65555e-13)
(-7.75144e-13 -7.31925e-13 1.40329e-14)
(-1.22514e-14 -1.1286e-14 3.37252e-16)
(-6.42063e-14 7.55863e-15 5.83516e-15)
(-9.65153e-12 1.15264e-12 5.6709e-13)
(-1.2742e-09 1.52042e-10 7.48863e-11)
(-1.51389e-07 1.80584e-08 8.89884e-09)
(-1.5417e-05 1.83886e-06 9.06267e-07)
(-0.00122115 0.000145652 7.17838e-05)
(-1.14805e-07 -1.08403e-07 2.07865e-09)
(-3.87258e-09 -3.65662e-09 7.01168e-11)
(-7.35006e-11 -6.94018e-11 1.3308e-12)
(-1.03341e-12 -9.75774e-13 1.87042e-14)
(-1.13189e-14 -9.49315e-15 -3.1917e-16)
(-1.8604e-14 1.25302e-13 -3.12723e-14)
(-9.60838e-12 6.98843e-12 -9.69662e-13)
(-1.40461e-09 3.21507e-10 4.21286e-11)
(-1.36676e-07 1.63078e-08 8.03279e-09)
(-9.27644e-06 1.10645e-06 5.45304e-07)
(-9.68794e-10 -9.14768e-10 1.75409e-11)
(-3.67589e-11 -3.4709e-11 6.65555e-13)
(-7.75152e-13 -7.31925e-13 1.40349e-14)
(-1.1988e-14 -1.13194e-14 2.16958e-16)
(-1.38335e-16 -1.2072e-16 -4.36687e-18)
(3.74519e-16 1.38309e-15 -3.97537e-16)
(-3.75487e-14 6.61052e-14 -1.39783e-14)
(-7.27014e-12 2.32911e-12 4.34037e-14)
(-6.73021e-10 8.03356e-11 3.95463e-11)
(-3.99616e-08 4.7664e-09 2.34909e-09)
(-4.61503e-12 -4.32713e-12 8.35594e-14)
(-1.94602e-13 -1.82334e-13 3.52346e-15)
(-4.51538e-15 -4.22775e-15 8.17551e-17)
(-7.62042e-17 -7.12994e-17 1.37904e-18)
(-9.41553e-19 -8.24881e-19 -3.07783e-20)
(3.63406e-18 8.56232e-18 -2.60161e-18)
(-9.4569e-17 3.67184e-16 -8.87697e-17)
(-2.77664e-14 1.09701e-14 -4.02305e-16)
(-2.44177e-12 2.89869e-13 1.43439e-13)
(-1.28821e-10 1.52832e-11 7.57256e-12)
(-1.19887e-12 -1.13201e-12 2.16621e-14)
(-5.05408e-14 -4.77223e-14 9.13018e-16)
(-1.17222e-15 -1.10694e-15 2.11996e-17)
(-1.32839e-17 -1.37597e-17 2.6721e-18)
(-5.37442e-17 2.20091e-16 9.20325e-17)
(-4.2453e-14 9.65586e-15 3.96969e-15)
(-5.73272e-12 7.21651e-13 3.28761e-13)
(-6.03387e-10 7.44025e-11 3.4884e-11)
(-5.3622e-08 6.51103e-09 3.11952e-09)
(-3.63314e-06 4.36379e-07 2.12312e-07)
(-1.26268e-10 -1.19227e-10 2.28197e-12)
(-4.79154e-12 -4.52433e-12 8.65767e-14)
(-1.01053e-13 -9.54175e-14 1.82552e-15)
(-1.56302e-15 -1.47582e-15 2.82272e-17)
(-2.26657e-17 -1.55546e-17 7.74656e-20)
(-5.2342e-16 2.10769e-16 -3.59101e-18)
(-6.51697e-14 1.39154e-14 2.21039e-15)
(-6.54596e-12 9.30706e-13 3.4426e-13)
(-5.27286e-10 6.32016e-11 3.08089e-11)
(-3.12869e-08 3.73894e-09 1.83096e-09)
(-1.19888e-12 -1.13202e-12 2.16621e-14)
(-5.05408e-14 -4.77224e-14 9.13018e-16)
(-1.17242e-15 -1.10704e-15 2.11753e-17)
(-1.9782e-17 -1.86784e-17 3.57097e-19)
(-2.85838e-19 -2.21274e-19 -2.42704e-21)
(-3.20435e-18 2.1621e-18 -2.73544e-19)
(-4.06714e-16 1.18613e-16 5.3552e-18)
(-3.89096e-14 6.16207e-15 1.87571e-15)
(-2.86066e-12 3.41975e-13 1.67236e-13)
(-1.50891e-10 1.80126e-11 8.83028e-12)
(-6.34907e-15 -5.9451e-15 1.15281e-16)
(-2.94461e-16 -2.75679e-16 5.32216e-18)
(-7.45382e-18 -6.97395e-18 1.34622e-19)
(-1.3629e-19 -1.27426e-19 2.45969e-21)
(-2.04782e-21 -1.63847e-21 -2.4081e-23)
(-1.40408e-20 1.37057e-20 -2.37966e-21)
(-1.84441e-18 6.58005e-19 -9.36243e-21)
(-1.68088e-16 2.86081e-17 7.49796e-18)
(-1.13549e-14 1.34753e-15 6.63726e-16)
(-5.38873e-13 6.39272e-14 3.15268e-14)
)
;

boundaryField
{
    inlet
    {
        type            calculated;
        value           nonuniform 0();
    }
    outlet
    {
        type            calculated;
        value           nonuniform 0();
    }
    bottom
    {
        type            calculated;
        value           uniform (0 0 0);
    }
    top
    {
        type            symmetryPlane;
    }
    side1
    {
        type            symmetryPlane;
    }
    side2
    {
        type            symmetryPlane;
    }
    procBoundary27to19
    {
        type            processor;
        value           nonuniform List<vector> 
50
(
(-2.48465e-09 -2.346e-09 4.49852e-11)
(-9.42949e-11 -8.9035e-11 1.70726e-12)
(-1.98783e-12 -1.87719e-12 3.54937e-14)
(5.49861e-14 5.58948e-14 -3.4082e-14)
(7.04457e-12 7.55207e-12 -2.5924e-12)
(5.01605e-10 5.38348e-10 -1.84332e-10)
(2.64978e-08 2.85004e-08 -9.71234e-09)
(7.92319e-07 8.57665e-07 -2.88184e-07)
(5.03451e-07 9.1167e-07 -3.36643e-08)
(1.66015e-08 3.03505e-08 -9.92842e-10)
(-7.5235e-07 -7.10387e-07 1.36219e-08)
(-2.53779e-08 -2.39626e-08 4.59491e-10)
(-4.8166e-10 -4.54799e-10 8.72089e-12)
(-6.77169e-12 -6.39401e-12 1.22446e-13)
(-4.66537e-14 -3.99835e-14 -1.02919e-14)
(2.06369e-12 2.21631e-12 -7.58076e-13)
(9.82185e-11 1.05739e-10 -3.59606e-11)
(2.61472e-09 2.83546e-09 -9.48965e-10)
(1.66701e-09 3.01257e-09 -1.14735e-10)
(1.02849e-11 1.1871e-10 -7.32646e-13)
(-2.45138e-09 -2.34221e-09 4.56508e-11)
(-9.38793e-11 -8.88565e-11 1.70956e-12)
(-1.98272e-12 -1.8737e-12 3.59647e-14)
(-3.02558e-14 -2.90222e-14 7.70231e-16)
(8.23064e-15 -1.21376e-15 4.3532e-15)
(4.57399e-15 5.06091e-15 -1.46132e-15)
(1.42613e-13 2.25443e-13 -7.05469e-14)
(-8.26955e-13 5.96266e-12 -1.42642e-12)
(-4.46807e-10 5.95449e-11 2.61777e-11)
(-2.6709e-08 3.19244e-09 1.56882e-09)
(-4.46879e-12 -4.3444e-12 8.66479e-14)
(-1.92568e-13 -1.83039e-13 3.44588e-15)
(8.97378e-16 -3.99523e-15 -1.23231e-15)
(8.74537e-14 -9.57984e-15 4.46301e-14)
(1.91652e-12 -2.08831e-13 9.8159e-13)
(-7.03896e-16 1.11851e-14 5.35189e-14)
(-1.21112e-11 1.48942e-12 7.05422e-13)
(-1.27741e-09 1.55214e-10 7.4582e-11)
(-1.137e-07 1.36963e-08 6.65964e-09)
(-7.71362e-06 9.23588e-07 4.52801e-07)
(-6.00215e-15 -5.97657e-15 1.22585e-16)
(-2.88425e-16 -2.76315e-16 5.10907e-18)
(8.13535e-17 2.96512e-17 7.6614e-18)
(3.96914e-15 1.98011e-15 9.35939e-16)
(1.51756e-13 8.2119e-14 3.36017e-14)
(3.044e-12 1.92063e-12 6.31918e-13)
(-1.05654e-11 1.10863e-11 -1.07045e-12)
(-7.62845e-10 7.8254e-10 -7.81722e-11)
(-4.03276e-08 4.12317e-08 -4.11169e-09)
(-1.20846e-06 1.22345e-06 -1.21161e-07)
)
;
    }
    procBoundary27to26
    {
        type            processor;
        value           nonuniform List<vector> 
20
(
(-1.73527e-08 -1.63849e-08 3.14185e-10)
(-2.01373e-06 -1.90143e-06 3.64604e-08)
(-1.73527e-08 -1.6385e-08 3.14187e-10)
(-8.39986e-11 -7.87507e-11 1.52086e-12)
(-5.1463e-06 -4.85931e-06 9.31786e-08)
(-0.000677461 -0.000639682 1.22661e-05)
(-5.1463e-06 -4.85931e-06 9.31786e-08)
(-2.22408e-08 -2.08658e-08 4.02689e-10)
(-1.72878e-08 -1.63547e-08 3.14435e-10)
(-2.01034e-06 -1.89823e-06 3.63992e-08)
(-1.73201e-08 -1.63542e-08 3.13596e-10)
(-8.38237e-11 -7.85872e-11 1.5177e-12)
(-3.24804e-11 -3.08106e-11 5.94599e-13)
(-3.38299e-09 -3.19433e-09 6.12522e-11)
(-3.26281e-11 -3.08084e-11 5.9076e-13)
(-1.74928e-13 -1.63883e-13 3.16767e-15)
(-4.50611e-14 -4.29014e-14 8.30213e-16)
(-4.25313e-12 -4.01594e-12 7.68464e-14)
(-4.54304e-14 -4.28891e-14 8.21837e-16)
(-3.19941e-16 2.4008e-16 9.10759e-17)
)
;
    }
    procBoundary27to28
    {
        type            processor;
        value           nonuniform List<vector> 
20
(
(1.09919e-09 1.44326e-09 -4.77578e-10)
(1.396e-07 1.4893e-07 -5.17005e-08)
(-2.6016e-09 1.19067e-09 -5.7579e-10)
(-3.46545e-11 5.08722e-12 -3.50046e-12)
(-2.06935e-07 2.46886e-08 1.21627e-08)
(-1.22958e-09 7.59506e-10 -8.87065e-11)
(-1.89877e-11 5.88405e-12 -1.88017e-12)
(-1.86041e-13 2.64613e-14 -1.41165e-14)
(-0.000143493 1.71151e-05 8.43506e-06)
(-1.0595e-06 1.26358e-07 6.2285e-08)
(-4.47051e-09 5.33052e-10 2.62833e-10)
(-1.41854e-11 1.68197e-12 8.34109e-13)
(-0.0580432 0.00692309 0.003412)
(-0.000367334 4.38137e-05 2.15933e-05)
(-1.35615e-06 1.61754e-07 7.97195e-08)
(-3.82385e-09 4.53929e-10 2.2478e-10)
(-0.0001437 1.71399e-05 8.42289e-06)
(-1.06124e-06 1.2658e-07 6.21786e-08)
(-4.47875e-09 5.34203e-10 2.62303e-10)
(-1.42142e-11 1.68647e-12 8.32124e-13)
)
;
    }
}


// ************************************************************************* //
