/*--------------------------------*- C++ -*----------------------------------*\
| =========                 |                                                 |
| \\      /  F ield         | OpenFOAM: The Open Source CFD Toolbox           |
|  \\    /   O peration     | Version:  2.4.0                                 |
|   \\  /    A nd           | Web:      www.OpenFOAM.org                      |
|    \\/     M anipulation  |                                                 |
\*---------------------------------------------------------------------------*/
FoamFile
{
    version     2.0;
    format      ascii;
    class       volVectorField;
    location    "0.1";
    object      gradp;
}
// * * * * * * * * * * * * * * * * * * * * * * * * * * * * * * * * * * * * * //

dimensions      [1 -2 -2 0 0 0 0];

internalField   nonuniform List<vector> 
200
(
(8.79189e+18 -1.10287e+19 -7.81467e+17)
(-6.08498e+17 -9.05776e+18 -9.07136e+17)
(1.16158e+19 -2.83772e+18 -6.53544e+17)
(1.08638e+19 1.76233e+18 -4.82351e+18)
(4.87157e+18 3.53367e+18 -3.19991e+18)
(-1.62414e+19 -3.85412e+18 -4.01408e+18)
(-2.31015e+19 -2.1628e+18 -1.03947e+17)
(-3.23865e+18 -5.43884e+18 -7.07729e+18)
(-2.33412e+18 -1.45062e+18 -1.08003e+18)
(2.0229e+19 -1.27674e+18 -8.53282e+17)
(1.67578e+19 -1.56847e+19 3.37797e+18)
(2.35925e+19 -1.07122e+19 4.8804e+18)
(2.81198e+19 -7.98775e+18 -6.26423e+17)
(2.17198e+19 -1.11862e+19 -4.37571e+18)
(-1.00234e+19 -1.05321e+19 -7.35042e+18)
(-2.06055e+19 -1.99302e+19 -1.71148e+18)
(-1.21822e+19 -4.75397e+18 -6.60848e+18)
(-9.50682e+18 -5.92994e+18 -1.95332e+18)
(9.74973e+18 -1.82536e+17 1.99485e+17)
(1.93374e+19 3.28566e+18 1.90763e+17)
(7.64782e+18 8.96946e+18 4.67851e+18)
(1.47855e+19 2.41426e+18 8.78163e+17)
(1.06678e+19 -4.51519e+18 1.93418e+18)
(5.77512e+18 -1.31906e+19 -6.01104e+17)
(-1.26164e+19 -1.80158e+19 -1.33579e+18)
(-4.68511e+18 -8.32965e+18 1.74776e+18)
(4.89901e+18 -1.44332e+19 -1.17302e+18)
(5.90421e+18 1.37896e+18 6.60135e+18)
(1.60971e+19 -7.45419e+17 -1.12133e+18)
(1.40227e+19 -1.34629e+18 8.07428e+16)
(4.74507e+18 7.77631e+18 -4.90783e+18)
(-3.37675e+18 6.72248e+18 -5.43595e+17)
(-3.09e+18 -3.18997e+17 -2.95693e+18)
(-5.28141e+18 -8.25991e+17 8.31044e+17)
(-3.0143e+17 -2.97721e+18 -1.81431e+17)
(-1.34403e+19 2.71517e+18 -6.3382e+17)
(7.23503e+18 -4.53686e+17 7.35657e+18)
(1.78687e+19 4.66608e+16 2.69486e+18)
(4.29923e+18 1.75512e+18 6.67154e+18)
(2.35208e+19 -5.29507e+17 4.0366e+17)
(-3.07043e+18 -4.98644e+18 6.7501e+18)
(-1.99143e+17 -1.19881e+18 5.56866e+18)
(-9.16575e+17 -2.58453e+18 4.10552e+18)
(2.71546e+18 -2.89997e+18 -2.01764e+18)
(7.46175e+18 -1.03059e+18 -3.20395e+18)
(-6.3343e+18 -5.08953e+18 -6.27773e+18)
(-3.29038e+19 -1.0875e+19 -4.92511e+17)
(-6.36213e+18 -1.17254e+19 3.77257e+17)
(1.75827e+19 -4.18587e+17 1.77024e+18)
(2.64156e+19 -2.34577e+18 2.70912e+18)
(5.02663e+18 -6.94878e+18 1.60795e+19)
(1.07785e+19 -7.85574e+18 1.14377e+19)
(-1.49979e+18 -3.84739e+18 4.15592e+18)
(2.02998e+17 -4.43037e+18 -1.85809e+18)
(-1.49783e+18 -7.54952e+18 -7.25534e+18)
(-1.82313e+19 -1.07112e+19 -3.20467e+18)
(-1.29561e+19 -6.46449e+18 -3.73423e+18)
(1.22787e+19 1.59559e+19 -1.15501e+18)
(1.66108e+19 -2.48602e+17 1.30569e+18)
(1.80886e+19 4.7801e+18 5.36673e+17)
(1.04832e+19 -4.28782e+18 1.28785e+19)
(6.00364e+18 -6.26413e+18 9.03543e+18)
(5.93417e+18 -8.24399e+18 5.38687e+18)
(-4.6888e+18 -4.85981e+18 1.63332e+18)
(-5.09999e+18 -6.5454e+18 -4.17541e+17)
(-4.16425e+18 -6.60539e+18 1.88141e+18)
(2.04305e+19 7.9109e+18 -1.52613e+18)
(6.06964e+18 8.81605e+18 1.00923e+18)
(-4.76889e+18 9.60986e+18 9.95202e+17)
(1.73526e+19 -1.00565e+18 1.08158e+18)
(4.5887e+18 -5.65644e+17 3.76199e+18)
(2.86614e+18 -2.11727e+18 3.96852e+18)
(1.30884e+18 -3.83532e+18 2.07807e+18)
(3.60018e+18 -5.72156e+18 2.12467e+18)
(-4.98899e+18 -2.27007e+18 3.45918e+17)
(1.06813e+19 -2.00839e+18 -3.72158e+17)
(1.78868e+19 1.92632e+17 4.296e+18)
(1.56766e+19 -3.58429e+18 1.00873e+18)
(-3.03262e+18 -1.15049e+18 2.54374e+18)
(8.80217e+17 1.46126e+18 8.96588e+17)
(-4.3168e+18 2.66648e+18 1.06192e+19)
(-9.07115e+18 -2.28349e+18 1.15077e+19)
(-1.26603e+19 -4.27207e+18 1.08544e+19)
(-1.25265e+19 -4.65201e+18 9.10883e+18)
(-8.76072e+18 -6.07926e+18 5.52581e+18)
(-7.56477e+18 -7.69808e+18 2.54743e+18)
(-1.80553e+18 -9.11529e+18 4.07983e+18)
(4.00215e+18 -9.63835e+18 9.49579e+18)
(5.12784e+18 -3.73157e+18 3.252e+18)
(5.89501e+18 -1.46495e+18 3.54774e+18)
(-1.48985e+19 -5.87933e+18 1.46053e+19)
(-1.4563e+19 -5.16541e+18 1.14627e+19)
(-1.44268e+19 -5.93759e+18 1.09785e+19)
(-1.47963e+19 -5.34469e+18 9.04684e+18)
(-1.43324e+19 -6.07384e+18 6.44899e+18)
(-9.33789e+18 -6.87556e+18 4.24398e+18)
(-5.62326e+18 -6.40776e+18 7.33896e+18)
(6.62091e+18 -4.91877e+18 4.6241e+18)
(1.51631e+19 -1.4226e+18 2.01371e+18)
(1.34419e+19 6.81595e+17 1.10686e+18)
(-9.21265e+18 -1.07386e+19 1.36127e+19)
(-9.18768e+18 -9.53643e+18 1.3799e+19)
(-1.30189e+19 -7.83976e+18 1.02129e+19)
(-1.2799e+19 -6.81821e+18 9.02123e+18)
(-1.18225e+19 -5.85377e+18 7.61614e+18)
(-8.2326e+18 -3.79762e+18 6.03565e+18)
(2.10804e+18 -1.58483e+18 4.76536e+18)
(1.39725e+19 4.84094e+18 -3.50056e+18)
(1.63286e+19 1.23547e+18 3.39174e+18)
(7.37702e+18 -7.70425e+17 5.48943e+17)
(-2.95273e+18 -7.92995e+18 1.46452e+19)
(-8.76528e+18 -7.84273e+18 1.14625e+19)
(-8.99034e+18 -5.98375e+18 1.15926e+19)
(-1.08243e+19 -4.36456e+18 7.98758e+18)
(-8.29127e+18 -3.17022e+18 6.44246e+18)
(-8.00003e+17 -2.10904e+18 5.38418e+18)
(1.16539e+19 7.84662e+17 1.056e+17)
(1.22615e+19 -1.57794e+18 1.85329e+17)
(3.94039e+18 -3.13362e+18 -3.60533e+18)
(1.25118e+19 -2.8377e+18 1.78325e+18)
(5.69837e+18 1.58847e+18 3.56267e+18)
(5.53522e+17 1.5178e+18 4.88892e+18)
(-8.59312e+18 9.34008e+16 5.41606e+18)
(-1.43361e+19 -9.22629e+17 6.26429e+18)
(-1.35347e+19 -1.65668e+18 6.25923e+18)
(-1.09614e+19 -4.53385e+18 5.8865e+18)
(-1.0669e+19 -5.18951e+18 5.73449e+18)
(-9.01119e+18 -6.06447e+18 3.87245e+18)
(-1.45107e+18 -2.95209e+18 1.85603e+18)
(4.65642e+18 -7.12839e+17 4.93901e+17)
(3.0743e+18 -2.15911e+18 2.3128e+18)
(-8.27272e+17 -4.1897e+18 4.20183e+18)
(-9.2304e+18 -4.87375e+18 5.58486e+18)
(-1.42916e+19 -4.57052e+18 6.46555e+18)
(-1.6867e+19 -4.20498e+18 7.36476e+18)
(-1.53833e+19 -5.1301e+18 8.07328e+18)
(-1.17397e+19 -5.36764e+18 7.43144e+18)
(-4.7621e+18 -4.83827e+18 7.29305e+18)
(5.35563e+18 -2.50195e+16 3.08551e+18)
(8.10279e+18 -1.79744e+16 1.26534e+18)
(2.49309e+17 -4.224e+18 5.52884e+18)
(-4.87575e+18 -6.26432e+18 5.74302e+18)
(-9.35475e+18 -7.26149e+18 6.71626e+18)
(-1.29985e+19 -6.55464e+18 7.76206e+18)
(-1.46539e+19 -6.55584e+18 8.37791e+18)
(-1.32868e+19 -4.78107e+18 8.98571e+18)
(-1.00853e+19 -3.66248e+18 8.60433e+18)
(1.67406e+18 1.71402e+18 6.14238e+18)
(8.18952e+18 6.19391e+17 2.46659e+18)
(4.74241e+18 7.65594e+16 4.66046e+15)
(-3.97619e+18 -6.08835e+18 6.70899e+18)
(-6.90225e+18 -6.70595e+18 7.12504e+18)
(-9.81103e+18 -6.86265e+18 7.5362e+18)
(-1.28803e+19 -6.03889e+18 7.87537e+18)
(-1.33198e+19 -4.42109e+18 8.87337e+18)
(-9.59662e+18 -2.18774e+18 8.44417e+18)
(1.25048e+18 6.29122e+17 7.19666e+18)
(3.80164e+18 -1.16441e+18 2.95976e+18)
(2.08072e+18 -1.935e+18 1.87996e+18)
(6.71089e+18 -8.39893e+17 1.61839e+18)
(1.00084e+18 1.09016e+18 4.75036e+17)
(-3.1403e+18 1.04465e+18 -1.43029e+17)
(-8.25915e+18 6.4979e+17 -6.79284e+17)
(-9.82837e+18 -5.93121e+17 -3.86633e+16)
(-9.96965e+18 -1.14413e+18 7.29375e+17)
(-9.24392e+18 -1.33143e+18 1.07542e+18)
(-8.25049e+18 -1.64756e+18 1.2661e+18)
(-8.40892e+18 -1.3034e+18 1.8312e+18)
(-5.68351e+18 -8.7133e+17 1.45431e+18)
(-1.62476e+18 -1.89295e+17 5.08563e+17)
(-1.50779e+18 -2.73345e+18 4.09029e+17)
(-4.09241e+18 -3.79885e+18 -7.03519e+17)
(-7.18289e+18 -3.85727e+18 -6.11325e+17)
(-9.10059e+18 -2.94825e+18 -6.36734e+16)
(-9.18768e+18 -2.68395e+18 1.01085e+18)
(-9.12451e+18 -1.91683e+18 2.33611e+18)
(-8.12e+18 -1.81601e+18 2.96674e+18)
(-7.28609e+18 -1.28689e+18 3.46726e+18)
(-4.12556e+18 -4.45706e+17 2.17799e+18)
(-4.8083e+17 -1.0119e+17 5.04388e+17)
(-3.83329e+18 -3.70471e+18 1.16074e+17)
(-5.38794e+18 -4.8593e+18 1.01257e+17)
(-6.55795e+18 -4.71762e+18 -4.39857e+16)
(-7.48172e+18 -4.5625e+18 9.75259e+17)
(-7.90681e+18 -3.43999e+18 1.68002e+18)
(-7.50806e+18 -3.20421e+18 3.08371e+18)
(-6.99062e+18 -1.96048e+18 3.48587e+18)
(-5.66831e+18 -2.09233e+18 4.05081e+18)
(-3.31211e+18 -6.93403e+17 1.19138e+18)
(-5.30969e+17 -2.05548e+17 4.56554e+17)
(-5.79872e+18 -5.63822e+18 7.33581e+17)
(-6.11822e+18 -5.64349e+18 1.74621e+17)
(-6.58929e+18 -5.50766e+18 9.78589e+17)
(-6.54533e+18 -4.94877e+18 1.18141e+18)
(-6.4711e+18 -4.2295e+18 2.95826e+18)
(-6.16548e+18 -3.05792e+18 3.32165e+18)
(-5.89625e+18 -2.1773e+18 4.03049e+18)
(-4.75193e+18 -1.02109e+18 1.0883e+18)
(-3.52002e+17 -6.35726e+17 1.3575e+18)
(1.31707e+18 -1.59951e+17 3.28071e+17)
)
;

boundaryField
{
    inlet
    {
        type            zeroGradient;
    }
    outlet
    {
        type            zeroGradient;
    }
    bottom
    {
        type            zeroGradient;
    }
    top
    {
        type            symmetryPlane;
    }
    side1
    {
        type            symmetryPlane;
    }
    side2
    {
        type            symmetryPlane;
    }
    procBoundary15to7
    {
        type            processor;
        value           nonuniform List<vector> 
50
(
(2.07806e+18 -1.2015e+18 -3.98449e+17)
(7.21056e+18 -1.38492e+18 -3.14429e+16)
(6.47959e+18 -4.32781e+18 -7.84664e+17)
(8.97701e+18 6.98214e+17 -1.46177e+18)
(1.20951e+18 7.88056e+17 -4.49775e+18)
(-9.21251e+18 4.48931e+18 -9.39349e+17)
(-9.01275e+18 -5.82206e+18 -1.16334e+18)
(-1.09312e+19 -5.26542e+18 1.97577e+18)
(1.42553e+18 -7.2336e+18 -4.45533e+17)
(1.38827e+19 -7.19673e+18 8.58906e+17)
(8.73991e+18 1.10957e+18 7.52005e+18)
(5.97468e+18 -3.49322e+18 7.20379e+18)
(1.90253e+18 -5.49713e+18 5.0524e+18)
(-2.90488e+18 -3.24815e+18 2.15087e+18)
(2.88127e+18 -1.08836e+18 -1.24726e+18)
(1.45761e+18 1.87154e+18 -8.02199e+17)
(3.15618e+17 -8.90865e+18 6.11076e+17)
(-8.6342e+18 -1.57761e+19 1.46969e+18)
(-2.14842e+18 -7.73666e+18 2.73128e+18)
(1.25599e+19 -5.73647e+18 6.54305e+17)
(3.56055e+18 1.31287e+18 1.0496e+19)
(-6.85919e+17 -3.43119e+17 9.76477e+18)
(-9.68976e+18 -1.62916e+18 9.30483e+18)
(-1.11819e+19 -3.08036e+18 7.811e+18)
(-8.24031e+18 -4.32175e+18 6.84029e+18)
(-3.26582e+18 -5.71769e+18 3.89668e+18)
(-1.74271e+18 -6.13613e+18 3.78551e+18)
(-4.14654e+18 -5.03607e+18 1.08604e+18)
(-1.18369e+18 -3.50086e+18 3.59715e+18)
(3.04885e+18 -7.76432e+17 8.62826e+16)
(6.91678e+18 4.37005e+18 3.29799e+18)
(2.16287e+18 5.22698e+18 2.12174e+18)
(-4.34953e+18 4.88628e+18 2.5087e+18)
(-1.07914e+19 3.07413e+18 3.92874e+18)
(-9.64454e+18 1.16275e+18 4.2803e+18)
(-8.3177e+18 4.56908e+17 4.09413e+18)
(-8.67845e+18 -1.22317e+18 2.76411e+18)
(-9.23694e+18 -2.27575e+18 2.08371e+18)
(-5.34763e+18 -3.08098e+18 1.29786e+18)
(7.72932e+17 -7.23522e+17 4.68058e+17)
(-3.15393e+18 4.46516e+18 7.20473e+17)
(-3.21166e+18 5.09683e+18 -4.07796e+17)
(-3.90736e+18 3.82437e+18 -9.59069e+17)
(-5.51276e+18 2.6565e+18 -2.69616e+17)
(-7.71106e+18 1.56685e+18 6.90504e+17)
(-8.11764e+18 6.50563e+17 3.34597e+17)
(-8.17606e+18 7.98133e+16 7.53021e+17)
(-8.83855e+18 -1.75217e+17 4.91594e+17)
(-6.35378e+18 -5.73227e+17 8.77518e+17)
(-2.60208e+18 -2.70596e+17 1.77174e+17)
)
;
    }
    procBoundary15to14
    {
        type            processor;
        value           nonuniform List<vector> 
20
(
(1.36498e+19 -1.63976e+19 2.79984e+18)
(2.38611e+19 -1.01402e+19 8.54639e+18)
(-3.02854e+18 8.42063e+18 -7.90017e+15)
(1.23492e+19 5.99621e+18 -4.94729e+17)
(-1.34075e+19 6.57823e+17 9.66513e+18)
(-1.50093e+19 -1.46326e+19 2.13303e+19)
(1.40116e+19 -6.04516e+18 1.43043e+19)
(6.21737e+18 4.07589e+17 6.37409e+18)
(3.24292e+17 6.94603e+18 8.7675e+18)
(-2.79961e+19 -2.71748e+18 1.20728e+19)
(-2.76768e+18 -1.55093e+19 1.69971e+19)
(-7.56724e+18 -8.56476e+18 1.41391e+19)
(6.89278e+18 3.43904e+18 3.22715e+18)
(3.20031e+18 -1.46518e+18 1.72265e+16)
(1.33474e+18 -2.73907e+18 4.06197e+18)
(1.36544e+18 -4.85558e+18 8.01441e+18)
(5.47281e+18 2.21574e+17 1.32495e+18)
(1.46128e+18 -1.38178e+18 7.28384e+17)
(-2.33753e+18 -2.71383e+18 1.37707e+18)
(-5.86718e+18 -5.07538e+18 7.44162e+17)
)
;
    }
    procBoundary15to23
    {
        type            processor;
        value           nonuniform List<vector> 
50
(
(9.10036e+18 5.18726e+17 -5.35212e+17)
(-1.40513e+18 1.61133e+18 -4.64668e+18)
(-4.42911e+18 2.37616e+18 -2.63521e+17)
(4.58703e+17 2.59881e+18 -3.66083e+18)
(-5.53403e+18 3.59817e+18 -8.9383e+17)
(3.61927e+17 2.24519e+18 -1.20447e+18)
(-4.38008e+17 1.15952e+19 -7.69075e+17)
(1.03218e+19 2.31498e+18 4.33201e+18)
(1.49447e+19 1.99673e+18 -2.93733e+18)
(1.15715e+19 5.54707e+18 1.32497e+18)
(5.4335e+18 1.49703e+18 3.06208e+18)
(-5.35716e+17 4.71416e+17 -6.78311e+16)
(-1.2744e+18 -2.90713e+17 1.8464e+18)
(-1.55828e+18 -1.48522e+18 -5.78287e+17)
(2.32634e+18 -3.09172e+18 -5.38177e+17)
(7.61143e+17 5.46556e+17 -1.13372e+18)
(1.72787e+19 -6.57263e+18 -7.52163e+17)
(3.3834e+18 -1.01623e+19 -6.14072e+15)
(5.32223e+18 -6.10853e+18 -2.06026e+18)
(1.6731e+19 -2.49144e+18 -3.61044e+17)
(-7.7686e+18 -6.79344e+18 1.01611e+19)
(-5.29528e+18 -5.26685e+18 1.09311e+19)
(-6.06257e+18 -4.3535e+18 8.32086e+18)
(-7.17196e+18 -2.50804e+18 8.8229e+18)
(-7.31142e+18 -8.70056e+17 6.27175e+18)
(-3.22827e+17 -1.66464e+17 5.92355e+18)
(3.17025e+18 -2.2509e+18 5.03816e+18)
(6.13591e+18 -5.22361e+18 -1.98813e+18)
(1.3809e+19 -3.39011e+18 2.90141e+18)
(1.93197e+19 -5.42721e+17 -8.89279e+17)
(-3.45144e+18 -7.55934e+18 6.96117e+18)
(-6.42434e+18 -7.54365e+18 7.11754e+18)
(-8.02063e+18 -6.71411e+18 7.01381e+18)
(-8.11541e+18 -5.9927e+18 7.39693e+18)
(-6.95156e+18 -3.34665e+18 7.71586e+18)
(-3.18634e+18 -1.83073e+18 8.39266e+18)
(-8.03868e+18 -1.73735e+18 6.7531e+18)
(-3.45419e+18 -5.00975e+18 6.4904e+18)
(8.83855e+18 -4.17531e+18 4.02777e+18)
(1.02922e+19 -9.42053e+17 1.67826e+18)
(-4.9695e+18 -7.28442e+18 3.97408e+17)
(-5.12682e+18 -6.54698e+18 7.65294e+17)
(-5.16852e+18 -5.79361e+18 8.02884e+17)
(-4.9254e+18 -4.6934e+18 1.65658e+18)
(-4.1251e+18 -4.05399e+18 1.79976e+18)
(-3.40366e+18 -2.67957e+18 2.53985e+18)
(-2.91697e+18 -1.83857e+18 1.73185e+18)
(-2.58516e+18 -8.8233e+17 4.14038e+18)
(-1.58983e+18 3.86391e+16 2.00343e+18)
(1.06039e+18 5.73335e+16 8.81518e+17)
)
;
    }
}


// ************************************************************************* //
