/*--------------------------------*- C++ -*----------------------------------*\
| =========                 |                                                 |
| \\      /  F ield         | OpenFOAM: The Open Source CFD Toolbox           |
|  \\    /   O peration     | Version:  2.4.0                                 |
|   \\  /    A nd           | Web:      www.OpenFOAM.org                      |
|    \\/     M anipulation  |                                                 |
\*---------------------------------------------------------------------------*/
FoamFile
{
    version     2.0;
    format      ascii;
    class       volVectorField;
    location    "0.1";
    object      Ub;
}
// * * * * * * * * * * * * * * * * * * * * * * * * * * * * * * * * * * * * * //

dimensions      [0 1 -1 0 0 0 0];

internalField   nonuniform List<vector> 
200
(
(1.71095e+08 1.67707e+08 4.34866e+07)
(2.02672e+08 -7.48103e+06 7.76615e+07)
(9.19203e+07 1.22235e+07 2.63693e+06)
(2.5349e+08 2.85832e+08 3.58437e+07)
(9.52141e+07 -2.13651e+08 -5.35788e+07)
(2.46849e+08 -3.19136e+07 5.92716e+07)
(2.75752e+08 1.83902e+08 -7.9325e+07)
(2.00831e+08 -3.13764e+06 9.51e+07)
(2.62369e+08 2.63874e+08 -8.06808e+07)
(2.02075e+08 -6.64346e+07 2.2899e+07)
(7.47378e+07 -4.86394e+08 -7.98784e+07)
(2.077e+08 1.32238e+08 5.77419e+07)
(2.91884e+08 1.79924e+08 7.03142e+07)
(1.97267e+08 -1.24955e+08 -2.13481e+07)
(3.45039e+08 2.59111e+08 -2.45497e+07)
(1.14521e+08 -5.17241e+08 -8.09692e+07)
(3.0376e+08 3.85532e+08 -1.50313e+08)
(4.02723e+08 1.59303e+08 -2.28892e+07)
(3.22654e+08 -7.14208e+06 1.13971e+08)
(3.49063e+08 2.76831e+08 8.62153e+07)
(1.70535e+08 1.19671e+08 2.492e+08)
(8.11866e+07 -3.40415e+08 -2.30979e+08)
(2.46541e+08 3.92899e+07 1.06486e+07)
(3.3613e+08 2.71917e+08 3.62145e+07)
(2.65258e+08 -1.83788e+08 -1.74452e+07)
(3.47593e+08 3.75323e+08 -8.29856e+07)
(2.59124e+08 -4.76981e+08 -1.10597e+08)
(4.1175e+08 3.54419e+08 -8.17568e+07)
(4.0478e+08 2.7639e+08 2.4398e+08)
(3.46659e+08 -1.91034e+08 1.32583e+08)
(1.82726e+08 -1.61206e+08 -2.46279e+08)
(1.90198e+08 1.20532e+08 5.09428e+07)
(1.40144e+08 -2.34574e+08 -3.62163e+08)
(3.06741e+08 -4.21719e+07 1.79816e+07)
(3.15422e+08 2.2231e+08 1.0734e+07)
(3.00291e+08 -2.03674e+08 5.87031e+06)
(3.65362e+08 3.01772e+08 -5.15161e+07)
(2.75431e+08 3.09132e+07 3.20965e+07)
(3.89212e+08 -3.95413e+07 8.52548e+07)
(2.7801e+08 1.93481e+08 -1.50378e+08)
(2.96052e+08 -1.27382e+06 5.07429e+07)
(1.95631e+08 -8.96849e+07 -9.17555e+07)
(3.13278e+08 1.10119e+08 -3.82754e+07)
(1.32645e+08 -3.39991e+08 -1.9837e+08)
(3.50574e+08 2.42687e+08 -2.85705e+07)
(2.06202e+08 -3.78116e+08 -5.47217e+07)
(3.22825e+08 2.80247e+08 -9.9962e+06)
(9.61179e+07 -3.79083e+08 -3.97528e+06)
(8.15167e+07 6.37816e+08 -3.52625e+07)
(2.78771e+08 1.01028e+08 -7.03383e+07)
(2.92581e+08 9.14493e+07 -2.45883e+07)
(2.9661e+08 1.32296e+08 -1.90836e+07)
(2.19952e+08 -3.42795e+07 -1.99145e+08)
(3.2211e+08 1.82238e+08 -3.34021e+07)
(1.72357e+08 -3.37015e+08 -2.01923e+08)
(3.42094e+08 3.68177e+08 -7.93776e+07)
(2.03012e+08 -4.55888e+08 -3.35163e+07)
(2.19415e+08 1.1841e+09 -4.83486e+08)
(2.30072e+08 -6.18003e+08 5.55758e+07)
(2.91908e+08 -6.2138e+07 1.04238e+08)
(2.43193e+08 9.94576e+07 -5.41081e+07)
(2.19058e+08 8.95718e+07 -1.75124e+08)
(2.72292e+08 1.87767e+08 -3.58317e+07)
(2.27201e+08 -2.80952e+07 -2.24277e+08)
(3.04161e+08 2.27106e+08 -2.73727e+07)
(1.86192e+08 -3.99203e+08 -1.20266e+08)
(3.28165e+08 6.10901e+08 -1.92085e+08)
(2.6411e+08 -3.31088e+08 3.96581e+07)
(4.434e+08 4.62414e+08 -9.25776e+07)
(3.36043e+08 1.04488e+08 1.54376e+08)
(1.92497e+08 1.3333e+08 -1.21812e+07)
(2.3524e+08 1.39784e+08 -3.53415e+07)
(2.06861e+08 7.75488e+07 -2.38162e+08)
(2.51669e+08 1.93518e+08 -2.79341e+07)
(2.33288e+08 -5.38518e+07 -1.70917e+08)
(2.7871e+08 2.34772e+08 1.07392e+07)
(2.08371e+08 -3.4713e+08 -2.2262e+07)
(3.66756e+08 5.29753e+08 -7.02459e+07)
(3.5534e+08 -2.64099e+08 2.02999e+08)
(3.41129e+08 8.64468e+07 8.11156e+07)
(2.09837e+08 -3.32736e+07 -1.17814e+08)
(2.66845e+08 4.96885e+06 -9.51489e+07)
(1.51953e+08 -4.85879e+07 -3.15421e+08)
(1.88805e+08 6.12801e+07 -4.09153e+07)
(7.47355e+07 -7.59981e+07 -3.49506e+08)
(1.37961e+08 1.03421e+08 -7.22952e+06)
(7.49584e+07 4.46516e+07 -2.28179e+08)
(5.33539e+07 1.33087e+08 -1.63352e+07)
(7.43831e+07 1.28381e+08 -1.69297e+08)
(-404887 -6.42944e+06 4.57064e+07)
(2.82161e+08 3.28741e+07 -9.81684e+07)
(2.01777e+08 5.02441e+07 -2.44569e+08)
(2.16586e+08 8.25052e+07 -5.94901e+07)
(1.28762e+08 3.95126e+07 -3.52194e+08)
(1.55817e+08 1.14689e+08 -2.61379e+07)
(6.3733e+07 -3.18847e+07 -3.04091e+08)
(1.00937e+08 2.22898e+08 -5.27547e+07)
(8.07616e+07 4.26198e+07 -1.59234e+08)
(5.73691e+06 1.78459e+07 4.98324e+07)
(5.36113e+07 1.79861e+08 -1.16992e+08)
(1.87219e+08 1.07339e+08 -2.84389e+08)
(1.83706e+08 9.97995e+07 -6.81233e+07)
(1.32986e+08 1.10069e+08 -3.55332e+08)
(1.43893e+08 1.20968e+08 -3.19539e+07)
(8.13922e+07 4.70088e+07 -3.34242e+08)
(1.22274e+08 1.65085e+08 -2.50042e+07)
(6.6332e+07 -1.13522e+07 -2.62488e+08)
(9.25981e+07 1.38822e+08 2.4955e+07)
(1.12497e+08 1.89601e+08 -7.4672e+07)
(1.27922e+07 1.97614e+07 6.31259e+07)
(1.33603e+08 1.1061e+08 -6.98127e+07)
(1.22517e+08 1.58089e+08 -3.73545e+08)
(1.09552e+08 1.3078e+08 -3.45087e+07)
(7.30571e+07 1.2292e+08 -3.55694e+08)
(8.61527e+07 1.16242e+08 -7.42269e+06)
(6.03373e+07 1.57663e+07 -2.90532e+08)
(1.02499e+08 1.71236e+08 2.4492e+07)
(1.03992e+08 7.08911e+07 -6.56692e+07)
(2.71835e+07 4.28951e+07 4.96852e+07)
(8.41225e+07 3.95671e+08 -5.72861e+07)
(1.75489e+08 -4.59258e+07 -6.27364e+07)
(9.34027e+07 -1.06064e+06 -1.76491e+08)
(5.35955e+06 -3.81501e+06 9.55988e+07)
(-5.30378e+07 3.99436e+07 -1.80964e+08)
(-1.03628e+08 -6.53108e+06 9.86282e+07)
(-1.26573e+08 -4.87295e+07 -1.32775e+08)
(-1.93781e+08 7.52747e+06 1.25384e+08)
(-2.09129e+08 -2.03176e+07 -1.54959e+08)
(-2.70426e+08 1.51415e+07 1.31831e+08)
(-2.47914e+08 6.25304e+07 -1.35765e+08)
(6.39408e+07 6.06542e+07 -1.85606e+08)
(2.66316e+07 5.15092e+07 5.74548e+07)
(-4.4168e+07 8.79245e+07 -2.36369e+08)
(-1.06432e+08 1.84973e+06 8.44546e+07)
(-1.27008e+08 6.94461e+07 -1.99036e+08)
(-2.0079e+08 2.72774e+06 1.17121e+08)
(-2.16238e+08 -175409 -1.70759e+08)
(-2.76466e+08 6.68151e+06 1.18259e+08)
(-2.57311e+08 1.11119e+08 -1.21734e+08)
(-2.44203e+08 1.04369e+07 1.14794e+08)
(-2.11895e+07 9.2751e+07 5.36127e+07)
(-6.25695e+07 1.33536e+08 -2.54822e+08)
(-1.24829e+08 6.00777e+07 8.21682e+07)
(-1.42703e+08 1.13099e+08 -1.88267e+08)
(-2.18232e+08 1.3135e+07 8.33489e+07)
(-2.19745e+08 8.28791e+07 -1.6668e+08)
(-3.01859e+08 7.94336e+06 1.20261e+08)
(-2.9531e+08 5.26717e+07 -1.32185e+08)
(-3.30013e+08 -77051.8 1.33351e+08)
(-2.8919e+08 1.03338e+08 -9.87339e+07)
(-8.08315e+07 1.58202e+08 -2.66856e+08)
(-1.34534e+08 1.08415e+08 6.83169e+07)
(-1.63639e+08 1.32588e+08 -2.06501e+08)
(-2.16706e+08 4.88952e+07 8.50484e+07)
(-2.36226e+08 1.09281e+08 -1.71111e+08)
(-2.71391e+08 4.59639e+07 1.03031e+08)
(-2.7136e+08 6.1045e+07 -1.30712e+08)
(-2.9033e+08 3.74534e+07 1.16482e+08)
(-3.1051e+08 1.15609e+08 -1.35839e+08)
(-3.2333e+08 2.68322e+07 1.28475e+08)
(1.37422e+08 -3.54717e+07 -7.63883e+07)
(4.76867e+07 -1.49496e+07 1.31637e+08)
(-1.91855e+07 1.53872e+07 -2.37222e+08)
(-5.89307e+07 -3.53418e+06 2.00512e+08)
(-7.13463e+07 4.49671e+07 -1.6281e+08)
(-9.14796e+07 6.2273e+06 1.63211e+08)
(-8.28222e+07 -1.46114e+07 -1.62569e+08)
(-1.13255e+08 6.51151e+06 1.69773e+08)
(-1.09022e+08 1.9533e+06 -1.95684e+08)
(-1.32649e+08 2.18052e+07 1.65218e+08)
(-1.00329e+07 4.84936e+07 1.58858e+08)
(-4.32931e+07 6.76642e+07 -2.3402e+08)
(-8.07473e+07 4.56466e+07 2.12774e+08)
(-8.48738e+07 5.94197e+07 -2.1225e+08)
(-1.14649e+08 1.07147e+07 1.83572e+08)
(-1.02099e+08 5.37302e+07 -1.96314e+08)
(-1.38504e+08 1.79773e+07 1.66663e+08)
(-1.40565e+08 1.4121e+07 -1.9082e+08)
(-1.67139e+08 1.89942e+07 1.64693e+08)
(-1.58491e+08 2.86204e+07 -1.99413e+08)
(-1.15314e+08 9.59749e+07 -2.2809e+08)
(-1.56129e+08 8.12531e+07 1.90799e+08)
(-1.59647e+08 7.9704e+07 -2.12738e+08)
(-1.87116e+08 3.39437e+07 1.70174e+08)
(-1.83974e+08 6.14279e+07 -1.98403e+08)
(-2.18916e+08 1.79218e+07 1.60386e+08)
(-2.03145e+08 5.64003e+07 -1.97107e+08)
(-2.36518e+08 2.12861e+07 1.59856e+08)
(-2.29914e+08 4.57888e+07 -1.89571e+08)
(-2.51184e+08 2.67848e+07 1.55909e+08)
(-1.94267e+08 1.11506e+08 1.90377e+08)
(-1.94455e+08 8.94951e+07 -2.12951e+08)
(-2.23285e+08 6.80089e+07 1.65809e+08)
(-2.2764e+08 6.83546e+07 -1.99701e+08)
(-2.55243e+08 3.57726e+07 1.49678e+08)
(-2.54187e+08 5.66397e+07 -2.05345e+08)
(-2.7452e+08 2.28167e+07 1.5502e+08)
(-2.65087e+08 5.13686e+07 -1.89989e+08)
(-2.82434e+08 2.51433e+07 1.667e+08)
(-2.6756e+08 5.48183e+07 -1.88641e+08)
)
;

boundaryField
{
    inlet
    {
        type            fixedValue;
        value           nonuniform 0();
    }
    outlet
    {
        type            zeroGradient;
    }
    bottom
    {
        type            fixedValue;
        value           uniform (0 0 0);
    }
    top
    {
        type            symmetryPlane;
    }
    side1
    {
        type            symmetryPlane;
    }
    side2
    {
        type            symmetryPlane;
    }
    procBoundary15to7
    {
        type            processor;
        value           nonuniform List<vector> 
50
(
(5.37209e+07 3.35956e+07 -8.81743e+06)
(-5.27734e+07 7.71987e+07 -1.16242e+08)
(1.32482e+08 8.27183e+07 3.84103e+07)
(4.35094e+07 5.40167e+07 -8.66676e+07)
(8.62322e+07 -6.59167e+07 1.80748e+07)
(1.81124e+08 2.01293e+08 -1.19186e+08)
(1.67699e+08 -2.2351e+07 2.95239e+07)
(1.83256e+08 3.26621e+08 -1.49555e+08)
(1.35748e+08 -9.30063e+06 3.51958e+07)
(1.91929e+08 -3.89692e+07 -1.35489e+08)
(1.23732e+08 -8.47258e+07 -6.43689e+07)
(2.61056e+08 4.869e+07 -3.22229e+07)
(5.20741e+07 -3.36405e+08 -1.83179e+08)
(3.07763e+08 1.6206e+08 -1.41604e+07)
(1.01143e+08 -3.80725e+08 -5.29061e+07)
(3.07825e+08 3.01567e+08 -6.7528e+06)
(2.02177e+08 -4.75831e+08 5.82122e+07)
(2.7842e+08 3.26217e+06 5.4373e+07)
(2.47288e+08 8.44356e+07 -1.00505e+08)
(1.11032e+08 -8.77914e+07 6.93089e+07)
(2.46486e+08 -4.54181e+07 -1.1182e+08)
(1.32526e+08 -1.41643e+08 -2.68624e+08)
(2.06694e+08 -5.24452e+06 -5.86079e+07)
(5.83926e+07 -1.54279e+08 -3.70202e+08)
(1.36495e+08 4.62203e+07 1.5142e+07)
(6.09686e+07 -5.08875e+07 -2.39746e+08)
(8.01241e+07 2.35883e+07 2.28845e+07)
(6.45056e+07 6.89016e+07 -2.06398e+08)
(-1.65494e+07 -2.91898e+06 4.778e+07)
(1.67771e+07 8.22877e+07 -1.36659e+08)
(1.2414e+08 -5.71006e+07 -1.3383e+08)
(1.41442e+08 -8.54153e+07 -3.60586e+07)
(4.6237e+07 -6.7393e+07 -2.52704e+08)
(-9.7808e+06 -5.74122e+07 1.47031e+08)
(-6.47229e+07 3.20235e+07 -1.67069e+08)
(-7.48868e+07 -4.78082e+07 1.32863e+08)
(-9.30175e+07 -9.13496e+07 -1.29039e+08)
(-1.49465e+08 -1.26319e+07 1.34883e+08)
(-1.56379e+08 -2.83872e+07 -1.56536e+08)
(-1.76634e+08 1.90603e+07 1.52755e+08)
(1.93744e+08 -9.75593e+07 -1.80757e+06)
(1.48257e+08 -7.73605e+07 -1.11825e+08)
(1.13017e+08 -1.01304e+08 1.0478e+08)
(5.32115e+07 -4.87876e+07 -2.54111e+08)
(2.11239e+07 -4.64671e+07 2.15223e+08)
(-1.16128e+07 1.6012e+07 -1.95635e+08)
(-7.17833e+06 -2.62559e+07 2.04301e+08)
(-4.11842e+06 -1.75877e+07 -1.86022e+08)
(-3.0493e+07 -3.03712e+06 1.95501e+08)
(-1.05333e+07 9.84038e+06 -2.10916e+08)
)
;
    }
    procBoundary15to14
    {
        type            processor;
        value           nonuniform List<vector> 
20
(
(9.57882e+07 -9.83032e+07 7.36865e+07)
(1.38343e+08 -6.34132e+07 7.78495e+08)
(2.13401e+08 -2.38047e+08 -2.84501e+08)
(2.23259e+08 2.29963e+07 2.84509e+08)
(2.51128e+08 5.14481e+07 4.26794e+07)
(2.6022e+08 -1.09705e+08 3.69126e+07)
(1.69318e+08 1.19263e+08 3.47912e+08)
(1.50231e+08 -3.18404e+07 -2.87225e+08)
(2.75858e+08 -4.29256e+07 -5.80833e+07)
(2.72158e+08 2.84956e+07 -1.27333e+08)
(2.00633e+08 5.61792e+07 -1.17196e+08)
(1.48704e+08 1.66053e+08 -2.44134e+08)
(1.56629e+08 -2.35069e+07 -8.80348e+07)
(1.46976e+08 -2.79858e+07 272343)
(3.79817e+07 1.03187e+08 -2.26481e+08)
(-4.00443e+07 1.26203e+08 5.65243e+07)
(1.33799e+08 -6.04552e+07 -3.63609e+06)
(3.76638e+07 5.33137e+07 -1.60104e+08)
(-9.26058e+07 9.47833e+07 1.77769e+08)
(-1.46389e+08 1.17965e+08 -2.3325e+08)
)
;
    }
    procBoundary15to23
    {
        type            processor;
        value           nonuniform List<vector> 
50
(
(1.85916e+08 5.63368e+07 9.51462e+07)
(1.86154e+08 -1.03493e+08 -2.44253e+08)
(2.61759e+08 1.79085e+07 4.75623e+07)
(2.02373e+08 1.77485e+07 -1.8516e+08)
(2.68256e+08 -7.37576e+07 1.06553e+08)
(3.01237e+08 1.14167e+08 -7.72756e+07)
(2.42318e+08 -9.45759e+07 8.99343e+07)
(3.43317e+08 1.03856e+08 7.03287e+07)
(2.56883e+08 1.99303e+08 -1.14317e+08)
(2.1827e+08 1.46714e+08 3.38564e+07)
(1.63102e+08 7.19798e+07 -6.83311e+07)
(1.83536e+08 1.55808e+08 -2.76498e+08)
(2.10726e+08 1.26207e+08 -5.37116e+07)
(2.2132e+08 4.89844e+07 -1.88733e+08)
(2.57376e+08 1.74937e+08 -8.30152e+06)
(2.40261e+08 -8.1973e+07 -7.99496e+07)
(2.91173e+08 2.32945e+08 5.20438e+07)
(2.85275e+08 -4.06978e+08 8.88267e+07)
(2.94431e+08 1.61218e+08 7.25712e+07)
(1.37917e+08 4.06405e+08 -1.33985e+08)
(1.0936e+08 1.99529e+08 -3.84058e+08)
(7.10084e+07 1.50591e+08 -1.8621e+07)
(4.97449e+07 1.70471e+08 -3.66904e+08)
(4.41954e+07 1.2276e+08 -1.81061e+07)
(1.67671e+07 9.28546e+07 -3.08614e+08)
(2.0699e+07 1.04231e+08 1.55414e+07)
(5.26778e+07 3.45361e+07 -1.73152e+08)
(1.12587e+07 6.45487e+07 4.80301e+07)
(4.72811e+07 4.15908e+08 -9.23497e+07)
(482708 3.1334e+07 2.02937e+07)
(-1.43299e+08 1.51126e+08 7.23976e+07)
(-1.68407e+08 1.61191e+08 -2.05903e+08)
(-2.14867e+08 1.03143e+08 6.01755e+07)
(-2.50563e+08 1.22714e+08 -1.73923e+08)
(-3.02731e+08 4.38861e+07 8.95986e+07)
(-3.08917e+08 7.93429e+07 -1.45466e+08)
(-3.42462e+08 5.62748e+07 1.26986e+08)
(-3.72514e+08 6.10187e+07 -1.08689e+08)
(-3.67952e+08 8.39786e+07 1.16758e+08)
(-3.38584e+08 2.06848e+08 -1.26957e+08)
(-2.14932e+08 1.09803e+08 -2.13272e+08)
(-2.51535e+08 9.09181e+07 1.61357e+08)
(-2.45609e+08 8.82849e+07 -1.8466e+08)
(-2.75943e+08 7.30092e+07 1.34092e+08)
(-2.7959e+08 6.52586e+07 -1.91167e+08)
(-3.0464e+08 3.6551e+07 1.43387e+08)
(-2.99206e+08 5.25097e+07 -1.82712e+08)
(-3.15485e+08 3.03924e+07 1.50233e+08)
(-3.13285e+08 4.95662e+07 -1.83534e+08)
(-3.24066e+08 4.1477e+07 1.46457e+08)
)
;
    }
}


// ************************************************************************* //
