/*--------------------------------*- C++ -*----------------------------------*\
| =========                 |                                                 |
| \\      /  F ield         | OpenFOAM: The Open Source CFD Toolbox           |
|  \\    /   O peration     | Version:  2.4.0                                 |
|   \\  /    A nd           | Web:      www.OpenFOAM.org                      |
|    \\/     M anipulation  |                                                 |
\*---------------------------------------------------------------------------*/
FoamFile
{
    version     2.0;
    format      ascii;
    class       volVectorField;
    location    "0.04";
    object      A_Source;
}
// * * * * * * * * * * * * * * * * * * * * * * * * * * * * * * * * * * * * * //

dimensions      [1 -2 -2 0 0 0 0];

internalField   nonuniform List<vector> 
200
(
(-1.77684e-09 -1.60639e-09 2.16298e-10)
(-7.35429e-11 -6.64882e-11 8.9499e-12)
(-1.69901e-12 -1.53423e-12 1.85336e-13)
(-2.87082e-14 -2.58556e-14 2.31921e-15)
(-4.87855e-16 -4.191e-16 2.97993e-18)
(-1.60382e-15 -1.07709e-15 -2.06129e-16)
(1.41514e-14 1.67706e-14 -1.71099e-15)
(1.91733e-12 2.26612e-12 -2.28867e-13)
(2.42936e-10 2.87128e-10 -2.89978e-11)
(2.8545e-08 3.37374e-08 -3.40707e-09)
(-1.88247e-11 -1.70179e-11 2.27923e-12)
(-9.24812e-13 -8.00248e-13 -3.15223e-13)
(-1.39979e-12 -5.56509e-13 -8.28904e-12)
(-7.10109e-14 -2.81619e-14 -4.19335e-13)
(-3.58491e-14 -2.45463e-14 -1.53152e-14)
(-6.7126e-13 -4.70678e-13 -7.68156e-14)
(-3.3838e-14 -2.36787e-14 -3.88855e-15)
(1.18217e-14 1.44177e-14 -1.62756e-15)
(1.50455e-12 1.77826e-12 -1.79601e-13)
(1.64098e-10 1.93947e-10 -1.95861e-11)
(-6.77127e-13 -3.2027e-13 -3.40041e-12)
(-2.20278e-11 -8.58631e-12 -1.32484e-10)
(-4.75011e-10 -1.85097e-10 -2.8576e-09)
(-2.2292e-11 -8.77107e-12 -1.32513e-10)
(-1.12806e-11 -7.73684e-12 -4.56778e-12)
(-2.31338e-10 -1.62212e-10 -2.64572e-11)
(-1.07242e-11 -7.51986e-12 -1.22467e-12)
(-2.70605e-13 -1.89724e-13 -3.09079e-14)
(1.86123e-15 4.56386e-15 -1.37066e-15)
(6.86486e-13 8.11397e-13 -8.19568e-14)
(-1.34303e-10 -5.23336e-11 -8.07952e-10)
(-5.6935e-09 -2.21857e-09 -3.42515e-08)
(-1.35062e-07 -5.26293e-08 -8.12514e-07)
(-5.75751e-09 -2.26356e-09 -3.42585e-08)
(-2.90466e-09 -1.99565e-09 -1.11028e-09)
(-6.57767e-08 -4.61222e-08 -7.51878e-09)
(-2.77261e-09 -1.94417e-09 -3.1657e-10)
(-6.42616e-11 -4.50611e-11 -7.33558e-12)
(-1.08152e-12 -7.58373e-13 -1.23457e-13)
(-1.24383e-14 -7.60227e-15 -1.96378e-15)
(-1.90725e-06 -1.72429e-06 2.32125e-07)
(-7.11945e-08 -6.4365e-08 8.66265e-09)
(-1.49458e-09 -1.35049e-09 1.73179e-10)
(-2.31032e-11 -2.08502e-11 2.37268e-12)
(-3.27557e-13 -2.88098e-13 1.97172e-14)
(-6.89424e-13 -4.84061e-13 -7.81425e-14)
(-3.46386e-14 -2.4254e-14 -3.9687e-15)
(9.83416e-15 1.20916e-14 -1.38492e-15)
(1.28014e-12 1.51448e-12 -1.51827e-13)
(1.40475e-10 1.66191e-10 -1.66735e-11)
(-1.81833e-08 -1.64386e-08 2.20812e-09)
(-7.80655e-10 -6.91293e-10 -7.77518e-11)
(-6.24442e-10 -2.5225e-10 -3.65008e-09)
(-2.87788e-11 -1.14723e-11 -1.69302e-10)
(-1.44194e-11 -9.89047e-12 -5.83723e-12)
(-2.95664e-10 -2.07317e-10 -3.3814e-11)
(-1.37045e-11 -9.60966e-12 -1.56499e-12)
(-3.45861e-13 -2.42486e-13 -3.95022e-14)
(2.30037e-15 5.75773e-15 -1.73422e-15)
(8.8015e-13 1.04233e-12 -1.04145e-13)
(-3.25134e-10 -1.76234e-10 -1.3649e-09)
(-9.70654e-09 -3.78457e-09 -5.83667e-08)
(-2.30188e-07 -8.9697e-08 -1.38478e-06)
(-9.81124e-09 -3.85728e-09 -5.83792e-08)
(-4.94974e-09 -3.40073e-09 -1.89184e-09)
(-1.12104e-07 -7.86067e-08 -1.28144e-08)
(-4.72475e-09 -3.31302e-09 -5.3946e-10)
(-1.09492e-10 -7.67777e-11 -1.24988e-11)
(-1.84201e-12 -1.29164e-12 -2.10269e-13)
(-2.11544e-14 -1.29044e-14 -3.33806e-15)
(-5.90908e-08 -2.30259e-08 -3.55483e-07)
(-2.75957e-06 -1.07531e-06 -1.66013e-05)
(-7.27349e-05 -2.83425e-05 -0.000437564)
(-2.78784e-06 -1.09516e-06 -1.66045e-05)
(-1.40209e-06 -9.65024e-07 -5.03427e-07)
(-3.54225e-05 -2.48381e-05 -4.04732e-06)
(-1.34389e-06 -9.42339e-07 -1.53419e-07)
(-2.8338e-08 -1.98709e-08 -3.23451e-09)
(-4.37969e-10 -3.0711e-10 -4.99876e-11)
(-5.53469e-12 -3.88103e-12 -6.31704e-13)
(-0.00172893 -0.00156308 0.00021035)
(-5.7492e-05 -5.19771e-05 6.99277e-06)
(-1.08635e-06 -9.81982e-07 1.30191e-07)
(-1.52492e-08 -1.3779e-08 1.76531e-09)
(-1.83866e-10 -1.64618e-10 1.84591e-11)
(-1.53166e-10 -1.07761e-10 -1.7096e-11)
(-7.03318e-12 -4.93498e-12 -7.99273e-13)
(-1.78832e-13 -1.23096e-13 -1.71135e-14)
(-1.47329e-13 1.60589e-13 2.9585e-13)
(-1.32393e-11 2.08156e-11 2.70903e-11)
(-1.46517e-05 -1.32462e-05 1.7812e-06)
(-5.53141e-07 -4.96886e-07 2.91508e-08)
(-1.58792e-07 -6.7777e-08 -8.84867e-07)
(-6.45624e-09 -2.62866e-09 -3.73414e-08)
(-3.17008e-09 -2.1785e-09 -1.21051e-09)
(-7.17469e-08 -5.03085e-08 -8.20121e-09)
(-3.02389e-09 -2.12036e-09 -3.45256e-10)
(-7.0077e-11 -4.91388e-11 -7.99927e-12)
(-1.17987e-12 -8.24762e-13 -1.32704e-13)
(-1.16222e-13 2.4184e-13 1.99162e-13)
(-1.20268e-07 -8.27925e-08 -2.94852e-07)
(-2.35773e-06 -9.20214e-07 -1.41661e-05)
(-6.20672e-05 -2.41856e-05 -0.000373388)
(-2.37896e-06 -9.34537e-07 -1.41691e-05)
(-1.19645e-06 -8.23486e-07 -4.29591e-07)
(-3.02272e-05 -2.11952e-05 -3.45371e-06)
(-1.14678e-06 -8.04129e-07 -1.30917e-07)
(-2.41816e-08 -1.69564e-08 -2.76011e-09)
(-3.73729e-10 -2.62065e-10 -4.2656e-11)
(-4.72351e-12 -3.30998e-12 -5.37822e-13)
(-1.43233e-05 -5.58144e-06 -8.61662e-05)
(-0.000744215 -0.000289995 -0.00447712)
(-0.0220643 -0.00859773 -0.132736)
(-0.00075109 -0.000294817 -0.00447789)
(-0.000376555 -0.000259641 -0.000126328)
(-0.0107454 -0.00753468 -0.00122731)
(-0.000362433 -0.000254139 -4.13702e-05)
(-6.87854e-06 -4.82326e-06 -7.85046e-07)
(-9.67088e-08 -6.78128e-08 -1.10369e-08)
(-1.12175e-09 -7.86585e-10 -1.28019e-10)
(-1.19436 -1.07979 0.145211)
(-0.0348279 -0.031487 0.00423268)
(-0.00058527 -0.000529128 7.10995e-05)
(-7.39222e-06 -6.68312e-06 8.97649e-07)
(-7.78727e-08 -7.04027e-08 9.45231e-09)
(-7.229e-10 -6.53416e-10 8.7549e-11)
(-6.12745e-12 -5.52987e-12 7.39222e-13)
(-2.74655e-13 3.47281e-14 4.65135e-13)
(-2.07608e-11 7.2124e-12 4.22063e-11)
(-1.65699e-09 5.75736e-10 3.36884e-09)
(-0.00885671 -0.00800712 0.00107636)
(-0.000294529 -0.000266276 3.57795e-05)
(-5.56466e-06 -5.03055e-06 6.71999e-07)
(-7.80841e-08 -7.05793e-08 9.30532e-09)
(-9.1884e-10 -8.27392e-10 1.03896e-10)
(-3.04809e-10 -2.15579e-10 -3.27038e-11)
(-1.37769e-11 -9.67723e-12 -1.55358e-12)
(-3.46993e-13 -2.42618e-13 -3.77304e-14)
(-7.5215e-14 1.95419e-14 1.39423e-13)
(-5.19092e-12 1.80454e-12 1.05536e-11)
(-3.7531e-05 -3.39307e-05 4.55787e-06)
(-1.41079e-06 -1.27047e-06 1.11768e-07)
(-2.59571e-07 -1.16264e-07 -1.38121e-06)
(-1.0268e-08 -4.26625e-09 -5.83254e-08)
(-5.02021e-09 -3.38777e-09 -1.88685e-09)
(-1.12105e-07 -7.86045e-08 -1.28141e-08)
(-4.72489e-09 -3.31304e-09 -5.39469e-10)
(-1.09517e-10 -7.6793e-11 -1.25013e-11)
(-1.8454e-12 -1.2938e-12 -2.10209e-13)
(-3.93787e-14 -1.27853e-14 2.58479e-14)
(-1.78369e-07 -1.30864e-07 -3.40997e-07)
(-2.76446e-06 -1.07976e-06 -1.66007e-05)
(-7.27351e-05 -2.83426e-05 -0.000437564)
(-2.78916e-06 -1.09481e-06 -1.66044e-05)
(-1.43003e-06 -9.57239e-07 -5.01449e-07)
(-3.54239e-05 -2.48378e-05 -4.04723e-06)
(-1.34393e-06 -9.42335e-07 -1.53417e-07)
(-2.83385e-08 -1.98706e-08 -3.23439e-09)
(-4.38255e-10 -3.073e-10 -5.00167e-11)
(-5.54552e-12 -3.88844e-12 -6.32805e-13)
(-482.391 -436.117 58.5282)
(-12.0668 -10.9093 1.46286)
(-0.177588 -0.160553 0.0215114)
(-0.00199492 -0.00180355 0.000241448)
(-1.89218e-05 -1.71067e-05 2.28825e-06)
(-1.59588e-07 -1.4428e-07 1.92835e-08)
(-1.23408e-09 -1.1157e-09 1.48994e-10)
(-8.93937e-12 -8.06646e-12 1.08189e-12)
(-1.33678e-12 1.07355e-13 4.61489e-13)
(-9.43331e-11 1.20378e-11 3.36676e-11)
(-3.06192 -2.76821 0.371194)
(-0.0893038 -0.0807372 0.0108174)
(-0.00150101 -0.00135703 0.000181669)
(-1.89621e-05 -1.71432e-05 2.29313e-06)
(-1.99822e-07 -1.80621e-07 2.41435e-08)
(-1.85538e-09 -1.6756e-09 2.23777e-10)
(-1.57045e-11 -1.41459e-11 1.88462e-12)
(-1.24172e-13 -1.11145e-13 1.47255e-14)
(-4.63799e-15 -3.36766e-16 1.55877e-15)
(-2.61006e-13 3.45271e-14 1.02355e-13)
(-0.0113552 -0.010266 0.00137545)
(-0.000377693 -0.000341462 4.57123e-05)
(-7.13707e-06 -6.45217e-06 8.60189e-07)
(-1.00824e-07 -9.03544e-08 1.20143e-08)
(-1.55181e-08 2.93189e-09 1.14116e-09)
(-9.08435e-10 1.2104e-11 2.16429e-11)
(-2.76204e-11 -2.94563e-12 -3.14174e-14)
(-5.7701e-13 -1.05952e-13 -9.35153e-15)
(-9.42857e-15 -2.22916e-15 -2.44499e-16)
(-7.76352e-16 5.59309e-17 2.76085e-16)
(-3.20859e-05 -2.9008e-05 3.88249e-06)
(-1.20386e-06 -1.08532e-06 1.10741e-07)
(-1.66848e-07 -7.35043e-08 -8.0678e-07)
(-2.9285e-07 7.70346e-08 -1.40116e-08)
(-6.80087e-06 1.88732e-06 4.75792e-07)
(-3.52469e-07 3.35243e-08 1.25985e-08)
(-9.42058e-09 -9.80825e-11 1.50031e-10)
(-1.76287e-10 -1.40182e-11 5.1939e-13)
(-2.61559e-12 -3.36314e-13 -1.63907e-14)
(-3.28817e-14 -5.43896e-15 -4.32709e-16)
)
;

boundaryField
{
    inlet
    {
        type            zeroGradient;
    }
    outlet
    {
        type            zeroGradient;
    }
    bottom
    {
        type            zeroGradient;
    }
    top
    {
        type            symmetryPlane;
    }
    side1
    {
        type            symmetryPlane;
    }
    side2
    {
        type            symmetryPlane;
    }
    procBoundary16to8
    {
        type            processor;
        value           nonuniform List<vector> 
50
(
(-1.69468e-11 -1.53041e-11 2.06011e-12)
(-7.77669e-13 -7.02164e-13 9.45041e-14)
(-1.96772e-14 -1.77592e-14 2.34157e-15)
(-3.59217e-16 -3.23892e-16 4.07515e-17)
(3.76893e-17 4.61399e-17 -4.62965e-18)
(6.82276e-15 8.06524e-15 -8.15085e-16)
(1.03994e-12 1.22903e-12 -1.24096e-13)
(1.51647e-10 1.79223e-10 -1.8096e-11)
(2.09621e-08 2.47739e-08 -2.50139e-09)
(2.70943e-06 3.20213e-06 -3.23313e-07)
(-1.61482e-08 -1.45992e-08 1.96489e-09)
(-6.76555e-10 -6.11659e-10 8.23076e-11)
(-1.57462e-11 -1.42344e-11 1.89713e-12)
(-2.66515e-13 -2.40872e-13 3.14187e-14)
(-3.73898e-15 -3.36183e-15 4.06956e-16)
(-1.44914e-15 -1.00457e-15 -1.65421e-16)
(5.8931e-15 7.0155e-15 -7.06071e-16)
(8.0924e-13 9.5761e-13 -9.50867e-14)
(1.03315e-10 1.22205e-10 -1.22029e-11)
(1.22473e-08 1.4482e-08 -1.45225e-09)
(-1.28074e-05 -1.15789e-05 1.55772e-06)
(-4.85603e-07 -4.39022e-07 5.90471e-08)
(-1.03131e-08 -9.32355e-09 1.25005e-09)
(-1.60599e-10 -1.4518e-10 1.9333e-11)
(-2.05849e-12 -1.85764e-12 2.41587e-13)
(-3.1531e-13 -2.25631e-13 -3.07232e-14)
(-1.76246e-14 -9.5992e-15 3.75877e-15)
(-2.69611e-13 9.67875e-14 5.51603e-13)
(-2.45471e-11 8.95019e-12 5.04237e-11)
(-1.93541e-09 7.18765e-10 3.99173e-09)
(-0.00758277 -0.00685538 0.000921474)
(-0.000257381 -0.000232691 3.12651e-05)
(-4.93972e-06 -4.46588e-06 5.99815e-07)
(-7.01686e-08 -6.3438e-08 8.51708e-09)
(-8.21183e-10 -7.42417e-10 9.9637e-11)
(-8.38198e-12 -7.57285e-12 1.02374e-12)
(-5.40849e-13 9.13424e-14 9.51701e-13)
(-5.08435e-11 1.76599e-11 1.03328e-10)
(-5.03206e-09 1.74797e-09 1.02268e-08)
(-4.34175e-07 1.50822e-07 8.82374e-07)
(-2.54819 -2.30375 0.308863)
(-0.0764334 -0.0691014 0.00925714)
(-0.00131159 -0.00118578 0.000158725)
(-1.68343e-05 -1.52195e-05 2.0356e-06)
(-1.79612e-07 -1.62383e-07 2.1701e-08)
(-1.68309e-09 -1.52164e-09 2.03188e-10)
(-1.43563e-11 -1.29379e-11 1.73972e-12)
(-4.21429e-12 4.01382e-13 1.32565e-12)
(-3.75998e-10 4.61579e-11 1.20363e-10)
(-2.97928e-08 3.65749e-09 9.54311e-09)
)
;
    }
    procBoundary16to17
    {
        type            processor;
        value           nonuniform List<vector> 
20
(
(3.04443e-06 3.59805e-06 -3.63286e-07)
(1.60395e-08 1.89565e-08 -1.91408e-09)
(6.18172e-11 7.30597e-11 -7.37724e-12)
(1.9461e-13 2.30086e-13 -2.32648e-14)
(1.39026e-08 1.64492e-08 -1.64992e-09)
(8.03543e-11 9.52002e-11 -9.48823e-12)
(3.36769e-13 3.99841e-13 -3.9546e-14)
(-5.79603e-14 -4.0085e-14 -6.8821e-15)
(-1.2172e-09 2.6392e-09 2.4654e-09)
(-1.09533e-11 3.15151e-11 2.17323e-11)
(-1.19839e-13 1.77684e-13 1.30236e-13)
(-1.12187e-11 -7.86591e-12 -1.28007e-12)
(-1.08558e-07 3.77232e-08 2.20637e-07)
(-3.14613e-10 1.09444e-10 6.3948e-10)
(-7.95297e-13 2.77076e-13 1.61595e-12)
(-6.16692e-14 -4.1337e-14 -3.14605e-15)
(-5.70919e-09 7.28585e-10 2.03844e-09)
(-1.47386e-11 1.94965e-12 5.7775e-12)
(-3.38801e-14 5.13414e-15 1.5208e-14)
(-4.17792e-16 -5.21642e-17 3.83293e-17)
)
;
    }
    procBoundary16to24
    {
        type            processor;
        value           nonuniform List<vector> 
50
(
(-2.31176e-08 -9.00814e-09 -1.39073e-07)
(-1.07946e-06 -4.20628e-07 -6.49388e-06)
(-2.84476e-05 -1.10851e-05 -0.000171137)
(-1.09054e-06 -4.28399e-07 -6.49513e-06)
(-5.48456e-07 -3.77488e-07 -1.9694e-07)
(-1.38542e-05 -9.71452e-06 -1.58296e-06)
(-5.25696e-07 -3.68619e-07 -6.00125e-08)
(-1.10867e-08 -7.77406e-09 -1.26538e-09)
(-1.71484e-10 -1.20245e-10 -1.95708e-11)
(-2.16976e-12 -1.52145e-12 -2.47623e-13)
(-1.119e-05 -4.36036e-06 -6.73178e-05)
(-0.000581422 -0.000226561 -0.00349777)
(-0.0172378 -0.00671701 -0.1037)
(-0.000586793 -0.000230328 -0.00349837)
(-0.000294186 -0.000202846 -9.86943e-05)
(-0.00839492 -0.0058865 -0.000958844)
(-0.000283153 -0.000198547 -3.23206e-05)
(-5.37398e-06 -3.76825e-06 -6.13322e-07)
(-7.55567e-08 -5.29807e-08 -8.62266e-09)
(-8.76429e-10 -6.14556e-10 -1.00017e-10)
(-0.00301376 -0.00117436 -0.0181304)
(-0.176403 -0.0687384 -1.06122)
(-5.97639 -2.3288 -35.9532)
(-0.177852 -0.0697544 -1.06138)
(-0.088884 -0.0613986 -0.0277067)
(-2.91052 -2.04086 -0.332337)
(-0.0859083 -0.0602391 -0.00980517)
(-0.00144936 -0.0010163 -0.000165405)
(-1.83403e-05 -1.28603e-05 -2.09296e-06)
(-1.93405e-07 -1.35616e-07 -2.20705e-08)
(-1.11903e-05 -4.36065e-06 -6.73178e-05)
(-0.000581422 -0.000226561 -0.00349777)
(-0.0172378 -0.00671701 -0.1037)
(-0.00058724 -0.000230204 -0.00349834)
(-0.000304791 -0.000199902 -9.79472e-05)
(-0.00839536 -0.00588638 -0.000958812)
(-0.000283163 -0.000198544 -3.23199e-05)
(-5.37415e-06 -3.7682e-06 -6.1331e-07)
(-7.55594e-08 -5.29802e-08 -8.62249e-09)
(-8.76468e-10 -6.14555e-10 -1.00015e-10)
(-1.0007e-07 -7.80421e-08 -1.2937e-07)
(-1.11813e-06 -4.13645e-07 -6.47321e-06)
(-3.07417e-05 -1.04486e-05 -0.000170553)
(-0.000109809 2.97554e-05 1.14964e-06)
(-0.00286415 0.00079507 0.00020086)
(-0.000122573 2.04693e-05 6.04791e-06)
(-2.81977e-06 2.67954e-07 1.00957e-07)
(-4.65891e-08 2.07214e-09 1.22498e-09)
(-6.20933e-10 4.33914e-12 1.19472e-11)
(-7.09999e-12 -1.56017e-13 9.79299e-14)
)
;
    }
}


// ************************************************************************* //
