/*--------------------------------*- C++ -*----------------------------------*\
| =========                 |                                                 |
| \\      /  F ield         | OpenFOAM: The Open Source CFD Toolbox           |
|  \\    /   O peration     | Version:  2.4.0                                 |
|   \\  /    A nd           | Web:      www.OpenFOAM.org                      |
|    \\/     M anipulation  |                                                 |
\*---------------------------------------------------------------------------*/
FoamFile
{
    version     2.0;
    format      ascii;
    class       volSymmTensorField;
    location    "0.04";
    object      B;
}
// * * * * * * * * * * * * * * * * * * * * * * * * * * * * * * * * * * * * * //

dimensions      [0 2 -2 0 0 0 0];

internalField   nonuniform List<symmTensor> 
200
(
(1.22618 -0.194888 -0.668779 1.24773 -0.0939535 1.16684)
(0.745665 -0.0474946 -0.736522 0.885482 -0.168953 0.677353)
(4.79844 0.728685 -1.46112 4.82593 -0.109653 4.38078)
(3.16507 -1.72243 -0.88133 2.90476 0.139098 2.47597)
(7.91653 -2.17939 2.25858 10.731 -1.6632 8.87942)
(7.02443 2.31709 -0.483082 5.4502 -0.502747 8.0021)
(22.0424 1.22797 -1.55298 19.9865 0.310451 22.8681)
(5.28769 0.626022 -1.43868 3.53885 1.4159 4.95745)
(1.2541 0.168108 -0.479519 2.11602 0.499134 1.31288)
(4.41962 1.07596 -1.52581 6.43839 1.0398 3.62747)
(1.20161 -0.12422 -0.51723 1.0598 -0.0622718 1.07648)
(1.31457 0.386245 -0.937201 1.22081 -0.110121 1.03521)
(1.8489 -0.358405 -1.24824 2.05117 0.0839087 1.20585)
(0.682489 0.402132 -0.939591 0.0376101 0.247201 0.35424)
(8.00063 -1.4535 -1.02595 11.4573 0.421772 8.68826)
(1.79465 -3.92792 1.0714 5.76761 -1.81104 5.43235)
(5.96051 2.6935 -1.19275 8.58996 -0.924511 9.01233)
(27.8141 2.34428 -2.20949 21.8984 0.796918 27.0163)
(13.6254 1.20047 -1.02652 10.9945 0.92217 11.8094)
(1.90522 -0.408795 -1.16733 2.80635 0.927126 1.55779)
(1.16555 -0.186979 -0.468103 1.03793 -0.0728142 1.06739)
(1.4833 0.26964 -0.614988 1.21693 -0.0797047 1.163)
(0.536324 0.128633 -0.333813 0.470141 0.0130062 0.409764)
(3.51036 -0.240652 -1.19553 4.35663 0.0565549 2.47532)
(-0.289336 -0.555895 -0.289761 -1.74452 0.00932983 0.192844)
(13.456 2.05943 -0.958762 15.8621 0.197019 14.0867)
(1.65884 -6.16514 1.05374 11.2007 0.0722318 6.1402)
(5.53489 -1.07226 -2.35837 9.60649 -1.7228 9.3876)
(46.036 4.01559 -2.60369 41.5571 0.623169 43.3966)
(10.4934 1.17844 -0.627342 7.47024 0.729531 8.40097)
(1.39274 -0.263914 -0.646873 1.37087 -0.0818708 1.25387)
(1.46642 0.186083 -0.509463 1.25066 -0.0726263 1.13598)
(1.66273 0.278563 -0.441231 1.52852 -0.0719506 1.40495)
(2.58232 -0.528577 -0.865805 1.95516 -0.0646505 1.37487)
(1.2339 -0.369203 -0.26323 0.719589 -0.312102 -0.0104939)
(1.80948 1.94355 -0.418416 1.20391 1.12937 2.9732)
(3.11438 1.36716 -1.20442 3.21447 0.894769 4.50821)
(17.4854 0.827518 -0.750376 29.3326 -0.542521 20.7705)
(1.55707 -0.482289 -2.23568 5.1034 0.0541207 3.60137)
(18.328 1.71133 -1.62472 15.736 0.285004 15.8882)
(0.688139 -0.19087 -0.0458346 0.638431 -0.00805612 0.655477)
(-0.00139419 0.0348009 -0.0437787 0.0925438 -0.00501149 0.051994)
(0.965659 0.16987 0.0165505 1.10043 0.075505 1.26913)
(1.8157 0.0549757 0.504284 1.5503 -1.57209 -0.569566)
(0.609346 -0.311311 0.186133 0.938457 0.496715 0.497953)
(12.0716 -1.33997 4.9214 13.0375 0.0523996 11.4546)
(5.45334 1.45999 0.452548 5.08665 -0.0195361 5.63645)
(20.943 0.475039 -0.803512 21.0031 0.157904 21.2552)
(3.81843 -0.181728 -1.35393 4.95405 0.170956 4.55871)
(0.246362 -0.0499974 -0.431967 0.399074 0.0421114 0.419751)
(0.319452 -0.0942024 -0.0335064 0.313717 -0.00928618 0.316043)
(0.151038 0.0217841 -0.0192108 0.205093 -0.00602424 0.161794)
(0.0723064 0.143602 0.00253734 0.0773481 -0.119237 0.110108)
(0.234111 0.0694989 0.171811 0.248039 0.110662 0.299737)
(1.58037 0.250614 0.484577 1.39027 -0.748075 0.440825)
(0.581293 -0.380319 0.23983 2.28526 0.776884 2.06628)
(9.35764 0.231189 1.32766 11.4296 -1.49625 10.4501)
(6.76664 1.03002 -0.0160352 5.58728 -0.0153442 6.72501)
(8.08667 0.359139 -0.923867 8.06889 -0.0231812 8.3573)
(0.664897 -0.0285779 -0.323089 1.03318 0.0122645 0.975248)
(0.31703 -0.101545 -0.0381481 0.339046 -0.0123416 0.308569)
(0.104057 0.0315215 -0.0810781 0.190532 -0.0211636 0.136901)
(0.0303865 0.0564408 -0.0741433 0.102836 -0.0098701 0.0806425)
(0.7543 0.0876683 0.124679 0.660512 -0.136631 0.697498)
(0.840558 0.164256 0.466902 -0.0784478 -0.0828988 0.23188)
(0.903302 0.142632 -0.221622 0.799927 -0.0198224 0.16258)
(1.61546 0.504329 -0.397982 3.5745 0.0978391 3.33898)
(0.30955 0.2952 0.313603 1.11133 0.0507715 0.769501)
(2.74219 0.605151 -0.102725 2.02408 0.0604362 2.57634)
(0.728383 0.18419 -0.301033 0.504237 -0.127293 0.886393)
(0.235323 -0.0900735 -0.113282 0.220167 -0.00610371 0.199338)
(0.0151129 0.0357987 -0.0175224 0.0551986 -0.0339345 0.0255295)
(0.635746 0.00164126 -0.464494 0.882915 0.0128774 0.71802)
(0.42555 -0.304741 -0.442805 0.46397 -0.18642 0.328505)
(3.43883 0.338425 0.662944 3.34018 -0.671992 3.12304)
(7.58585 0.717778 1.3215 6.04852 -1.05802 6.7705)
(4.47277 0.193127 -0.402479 4.34914 0.599536 4.8265)
(6.77448 0.515742 -1.13292 7.93454 0.4505 8.95248)
(-0.171354 -0.059445 0.0449777 -0.0877222 0.118909 -0.0606)
(1.18662 0.274669 -0.0243953 0.697949 -0.020275 1.20097)
(0.1479 -0.077087 -0.0519815 0.159274 0.0131889 0.18339)
(1.32686 0.163336 0.289521 1.23123 -0.0503294 1.17294)
(14.1261 -1.13674 -1.29192 14.3983 -0.0754395 14.4282)
(3.5884 -0.236189 -0.671474 4.55199 0.186051 4.1274)
(17.6486 1.52174 2.03458 17.1388 -0.592396 17.6872)
(4.52132 0.974808 0.758675 4.79421 0.215245 3.41333)
(2.59184 0.935449 -0.81497 3.05252 -0.923843 3.35567)
(6.68543 0.657259 -0.359515 7.23648 0.318453 8.22611)
(2.62359 0.711206 -0.571612 2.99093 0.387298 3.24304)
(-2.17971 0.0149473 -1.04888 1.80593 0.0560953 0.93832)
(0.362533 -0.170273 -0.0684518 0.259246 -0.00929601 0.302579)
(0.0567075 0.0395936 -0.080908 -0.00427647 -0.0170646 0.0657439)
(0.998644 0.405434 0.0496281 0.662204 -0.479967 0.72561)
(15.0793 -1.40549 -1.69715 19.1245 1.4469 16.2681)
(1.61529 0.254674 0.322199 3.1019 0.178792 2.26868)
(14.3731 2.4432 4.26328 13.4717 -1.2016 14.3464)
(5.34856 0.580504 0.849913 3.68226 0.73855 3.44053)
(10.9367 1.26816 -1.35599 11.3182 -0.534819 11.9942)
(20.7741 0.405286 -0.521262 21.5421 -0.0047369 23.5464)
(2.73548 0.260029 -0.412631 1.6623 0.427684 3.21054)
(0.609691 -0.260872 -0.132262 0.586616 -0.00843887 0.550438)
(-0.0206656 0.149803 -0.0190417 0.0751311 -0.0289535 0.0449641)
(0.273747 -0.137183 0.00231608 0.697151 0.0378776 0.509194)
(1.32793 0.608142 -0.268365 0.153767 -0.330638 0.882351)
(5.51359 -0.465928 -1.58837 3.70092 0.0933314 4.00269)
(1.81458 -0.239169 0.880996 2.42235 0.0778494 2.35704)
(9.16167 1.87057 2.63476 12.2112 -0.16509 11.8756)
(1.48464 0.111318 -0.391329 1.05977 0.331219 1.35081)
(9.1833 0.192254 -0.512635 9.13903 -0.481197 10.2298)
(3.58078 0.252036 0.441486 3.20592 -0.18376 4.71457)
(0.291097 -0.132137 -0.110053 0.333622 -0.0242255 0.326152)
(0.0981646 0.159804 0.0239968 0.127642 -0.0790603 0.16953)
(0.116122 -0.322239 -0.357746 0.372384 -0.0167412 0.266251)
(4.05142 -1.48064 -0.514541 5.35551 0.109715 5.3864)
(3.01587 0.965484 0.556175 2.17193 0.485695 3.40574)
(7.89408 0.601587 0.560399 6.86626 -0.185732 7.35877)
(3.66062 -0.485739 1.87257 4.3923 -0.235488 3.85488)
(1.23719 -0.013026 -0.355922 1.35538 0.0965305 1.73209)
(7.74863 0.152517 -1.4494 6.97097 0.624051 7.81917)
(0.304876 -0.114091 -0.0230923 0.0706052 -0.219435 0.18536)
(1.06059 -0.151917 -0.0638205 1.08175 -0.0144404 1.08334)
(0.726748 -0.166004 -0.0578373 0.755316 -0.0684914 0.727131)
(0.278826 0.441867 0.178737 0.403681 -0.21801 0.271025)
(7.17277 0.348333 0.506845 8.75544 0.815447 11.0327)
(5.03561 1.20442 -2.40714 6.90525 -0.280231 5.46367)
(49.316 -7.08839 5.11211 61.0926 -0.497574 53.7818)
(44.0171 1.69498 6.268 46.0377 -1.34188 43.7708)
(130.729 8.83932 -3.29215 121.966 3.3912 127.078)
(35.0548 1.14299 -3.80917 35.7128 3.43546 35.4049)
(5.6373 0.044364 -0.424431 6.61802 0.644912 5.75563)
(0.197068 -0.0905845 -0.0268303 0.141947 -0.0210928 0.199343)
(1.49589 -0.291021 -0.184477 1.99178 0.0512821 1.65919)
(-0.0353058 -0.148022 -0.0545102 0.337917 -0.0301265 0.2266)
(3.55127 1.47451 0.603033 2.89346 -0.368341 3.43942)
(3.92901 1.92213 1.69994 2.50543 1.19753 6.38277)
(2.88486 1.86303 -2.21151 4.48197 1.84694 3.38062)
(56.1593 -4.47891 7.31932 84.6808 -2.88493 62.3191)
(83.6374 -0.104021 8.08476 81.401 -1.55487 81.388)
(57.5615 3.67548 -1.12151 51.1462 1.27274 54.6346)
(31.2193 0.545427 -3.50409 30.7396 0.923919 31.8803)
(0.377156 -0.1681 -0.106012 0.3551 -0.00182066 0.389094)
(-0.0739353 0.0238302 -0.0277451 0.143777 -0.00489366 0.0893911)
(0.456176 -0.120701 -0.350282 1.30741 -0.112164 0.700208)
(0.52175 -1.07822 0.243494 2.6019 0.175521 1.62914)
(3.21796 0.607087 0.466526 2.43401 -0.0207577 3.32799)
(12.0256 4.85484 1.34777 6.67702 1.38566 11.8828)
(-0.225224 0.234701 -0.503762 -1.50065e-05 0.904184 0.124624)
(30.8186 -4.23261 4.87287 38.3966 -2.03678 31.7448)
(36.5476 -0.736365 1.6123 33.667 -1.85752 35.1556)
(25.5291 2.44583 -1.46503 21.4764 -0.517418 23.3547)
(0.165573 -0.117751 -0.0592447 0.143942 -0.0223745 0.197695)
(-0.0346452 0.0158389 -0.0499031 0.0531767 -0.00819073 0.0690401)
(-0.0528493 0.282778 0.2145 0.538041 0.0313289 0.233878)
(0.00274184 -0.301932 0.220959 0.764497 -0.0374734 0.308712)
(1.28144 -1.01466 1.45144 7.42115 1.53838 5.85474)
(2.46574 1.0832 0.449017 1.67979 0.225947 2.61286)
(8.1676 0.412398 0.305116 4.93625 0.0460006 5.75101)
(2.85838 -2.07627 -0.241488 2.04139 0.660371 1.80686)
(14.7837 -0.562562 -0.489832 15.2815 -0.898106 14.0605)
(11.9478 -0.956218 2.22339 8.73466 -0.810763 10.9207)
(0.612775 -0.243171 0.0253297 0.716072 0.0325464 0.622954)
(-0.0394012 -0.137625 -0.0376971 0.227706 -0.0512828 0.334559)
(1.56025 0.450348 0.314949 1.64606 -0.184897 1.50026)
(4.71028 -1.81429 -0.918215 7.77204 0.313117 5.40765)
(4.69646 1.47263 -1.31353 8.20296 -0.164627 7.31932)
(25.9367 5.81368 1.00364 27.6328 -0.0826818 29.9103)
(104.315 4.98033 3.96301 98.5011 2.49475 94.1265)
(30.9895 1.63354 0.438506 31.7684 2.41865 21.0246)
(1.65101 -0.956369 -2.1931 7.41254 0.109836 6.32843)
(43.268 7.46052 -0.0517623 37.4747 1.29712 36.6724)
(0.483381 -0.117928 -0.0200175 0.49989 -0.00715343 0.504644)
(0.0985579 -0.0205276 -0.0276099 0.261487 -0.0166148 0.192726)
(0.656399 0.385913 0.214966 0.391277 0.0256778 0.890189)
(0.511473 0.54147 0.363961 0.543526 -0.0595381 0.606371)
(12.1536 1.1333 -0.326842 18.3665 0.748506 13.6258)
(1.45608 2.16198 -0.967294 2.71261 0.903488 2.00899)
(23.2869 2.62175 0.60055 20.0462 0.120834 22.1912)
(23.8092 0.774992 1.67788 12.751 1.01861 14.0032)
(25.8159 0.664591 0.110164 18.7892 1.08974 14.2413)
(4.54679 -0.147374 0.834886 2.08522 -0.515428 1.4743)
(0.194097 -0.189793 -0.0400405 0.266457 -0.00454055 0.280724)
(0.115482 -0.198181 -0.105785 0.38456 0.000579462 0.398435)
(0.435384 0.263925 -0.0623272 1.46859 -0.122527 1.12962)
(3.25245 0.545906 0.25889 2.0517 -0.203512 3.1145)
(4.65527 1.02293 0.591048 3.85302 0.441561 3.7157)
(-0.0622343 0.645803 0.233619 1.55624 0.454513 -0.267617)
(3.07501 0.783639 -0.513847 0.793249 0.538992 0.451007)
(15.8674 1.06164 0.827311 8.19097 0.0119489 11.1345)
(10.9585 -0.160425 -0.212367 8.75963 0.36081 8.49932)
(6.78696 -0.657691 0.363387 3.83352 0.117709 4.58868)
(0.254137 -0.125731 -0.0245282 0.217317 -0.00733114 0.280758)
(1.25446 0.258152 -0.0175397 0.866194 -0.0271369 1.00402)
(2.92316 -1.82258 -0.8157 5.33937 0.31667 4.56891)
(1.17977 0.407462 0.0861041 3.14006 -0.517712 2.87088)
(17.1838 1.77864 0.92321 15.8207 0.0245518 16.087)
(2.42556 0.116372 0.112251 2.12022 0.0773221 2.06822)
(4.07745 -0.170302 1.11208 1.67905 0.432338 0.240049)
(6.80033 -0.488731 -1.35962 3.93139 -0.487564 2.91758)
(3.69183 -0.493108 0.0803114 2.21723 0.253762 3.09154)
(2.23367 -1.3633 -0.220788 0.756475 0.223047 1.47372)
)
;

boundaryField
{
    inlet
    {
        type            calculated;
        value           nonuniform List<symmTensor> 
20
(
(0.000560206 -0.0332585 -0.0542877 0.00425796 -0.00736107 -0.00207918)
(0.00902631 -0.0276614 -0.0573402 -0.00543407 -0.00641469 -0.00371528)
(-0.0024916 -0.056841 -0.0534221 -0.00651772 -0.00801714 -0.00327434)
(-0.00900517 -0.0532218 -0.0541481 0.00364121 -0.00686583 -0.00617124)
(0.00752281 -0.0477555 -0.00381096 -0.00380769 -0.00168623 -0.000239765)
(0.00650247 -0.0559465 -0.0106673 -0.00137145 -0.00283649 -0.000660994)
(0.00965566 -0.0537254 -0.0116549 0.00516197 -0.00323969 -0.00283842)
(0.00181711 -0.0361529 -0.0304122 0.000308352 -0.00103361 -0.00321876)
(-0.00219563 -0.0351413 -0.0135222 -0.00256697 0.00331427 0.0034932)
(0.0132169 -0.0491569 -0.0169134 -0.00726515 -0.00141327 -0.00067727)
(0.0128426 -0.0665484 -0.0270099 0.00286507 -0.00102585 -0.00153279)
(-0.00346426 -0.0395703 -0.02942 0.00228204 -0.00428507 0.000960862)
(-0.0535142 0.0133146 0.018632 0.00163742 -0.00485127 0.00217086)
(0.013256 -0.045281 -0.0158177 -0.0145909 -0.00597 0.00165396)
(0.00601781 -0.0475382 -0.0226833 -0.00206559 -0.000280759 0.00317655)
(0.00303117 -0.0564681 -0.0238207 -0.00624289 -0.00407329 0.00354289)
(-0.00273893 -0.0559948 0.00473898 0.0116037 0.00522487 -0.00334512)
(-0.00348073 -0.0613832 -0.0072456 0.00198573 -0.00212761 0.00339958)
(-0.00301842 -0.0531432 -0.00689086 0.00259835 -0.000595334 0.004469)
(0.0133923 -0.053276 -0.00638812 -0.00937732 -0.00164829 0.00488625)
)
;
    }
    outlet
    {
        type            calculated;
        value           nonuniform 0();
    }
    bottom
    {
        type            calculated;
        value           nonuniform List<symmTensor> 
40
(
(0.00256971 -0.0152691 -0.0976257 0.00425796 -0.0115788 -0.00600214)
(0.00917464 -0.012796 -0.0974767 -0.00543407 -0.00847188 -0.00809176)
(0.0075342 -0.0205872 -0.0972092 -0.00651772 -0.0169007 -0.00543869)
(0.00547456 -0.0221323 -0.100374 0.00364121 -0.0166465 -0.00554207)
(-0.00408779 -0.0031861 -0.0940064 0.00529164 -0.0095609 -0.0132809)
(0.00716595 0.0214356 -0.0935748 0.00196228 -0.00683803 -0.0141259)
(0.0178673 0.021457 -0.0896414 -0.00332895 -0.00746458 -0.0116111)
(0.0201102 0.0178337 -0.0905822 -0.000567748 -0.013687 -0.0168758)
(0.0146844 0.0447452 -0.13474 0.0163723 -0.0176744 -0.0198145)
(0.0123922 -0.0140435 -0.089071 0.0203179 0.0169255 -0.0278383)
(0.00042771 0.0178016 -0.0818885 -0.00873148 0.010912 -0.0172876)
(0.0174631 0.0306919 -0.0844056 0.00267609 -0.00342588 -0.0190691)
(0.00420556 -0.0987556 -0.0862917 -0.0107197 0.0431918 -0.118962)
(0.00538089 0.0199142 -0.0816951 -0.0265546 -0.0112119 -0.0265261)
(0.0203135 -0.00853076 -0.0810852 0.0503125 0.0118474 -0.0182767)
(0.0383883 -0.0320325 -0.0854209 0.000381442 0.0224173 -0.0307943)
(-0.030921 -0.0763543 0.0331986 0.0676816 -0.167154 -0.0372844)
(-0.0342698 -0.0621183 -0.0815185 0.113458 0.0497522 -0.0372484)
(-0.0155561 -0.0209081 -0.0387786 -0.0702882 -0.00528845 -0.00841444)
(0.0306341 -0.0201471 -0.0311595 0.00256854 -0.0396399 -0.046979)
(-0.00830075 0.144802 -0.0799701 -0.106679 -0.0662365 0.188632)
(-0.0927736 -0.114476 -0.0233341 0.023015 -0.148161 -0.0284526)
(-0.00520538 0.0913588 -0.0926904 0.101534 -0.0150106 0.0510927)
(-0.00203331 0.0533734 -0.0324704 -0.0186634 0.026429 0.0284207)
(0.0520565 0.106972 -0.185007 -0.127045 0.0768215 0.0093638)
(-0.0637619 0.102094 -0.117124 0.0359041 -0.103975 0.152791)
(-0.106747 -0.12409 -0.0129643 0.0853083 0.0601028 -0.00424782)
(-0.0312289 0.0697677 -0.087732 -0.0261212 0.0406981 0.00962148)
(0.0357606 0.0285972 -0.0915829 -0.0441273 0.110693 -0.0363189)
(0.124659 0.152778 -0.221729 -0.260869 0.0402309 0.0255669)
(-0.0979546 -0.0407284 -0.178947 0.0567006 -0.238042 0.193131)
(-0.125699 0.0255021 -0.0556437 0.239404 0.0154877 -0.0506184)
(-0.0266591 0.0135788 -0.0635863 0.0429617 0.089181 -0.0543582)
(0.118473 0.087229 -0.0949958 -0.0726932 0.138295 -0.0535295)
(0.156486 0.259209 -0.238631 -0.132631 0.0276627 -0.0489303)
(-0.0795575 -0.018628 -0.158098 0.0574164 -0.0349612 0.0570837)
(0.00255205 0.0340743 -0.0796511 0.0664838 0.0817728 -0.0135935)
(-0.0114562 -0.0198317 -0.0759114 0.0322603 0.12007 -0.059874)
(0.124138 0.0879762 -0.068056 -0.10156 0.128277 -0.0759421)
(0.129001 0.118632 -0.179051 -0.0506822 0.0106428 -0.109167)
)
;
    }
    top
    {
        type            symmetryPlane;
    }
    side1
    {
        type            symmetryPlane;
    }
    side2
    {
        type            symmetryPlane;
    }
    procBoundary16to8
    {
        type            processor;
        value           nonuniform List<symmTensor> 
50
(
(0.00900554 -0.183118 -0.440208 -0.00404364 -0.0618436 -0.00553075)
(0.0736795 0.0583966 -0.482662 0.0390773 -0.106294 -0.0772212)
(0.000783918 -0.0594265 -0.358804 -0.0147373 -0.0562127 -0.109491)
(-0.120575 -0.339697 -0.081472 0.392183 -0.340328 -0.072222)
(0.114393 0.273561 -0.376432 -0.502738 -0.274386 0.330893)
(0.0635183 1.15978 -1.18367 -0.312047 0.561299 0.612848)
(-0.392693 0.378625 -0.746876 0.134186 0.217952 0.244472)
(-0.404026 0.593637 -0.886573 0.46925 0.380872 -0.132334)
(-0.737334 0.575444 -1.28834 0.99588 0.811823 -0.286101)
(-0.522663 0.187394 -2.59455 0.596684 1.34667 -0.21529)
(0.0012182 -0.0855764 -0.0210327 -0.000676882 0.00523734 -0.000539611)
(-0.00951789 -0.00107155 -0.0417522 -0.032995 -0.0114576 -0.00302077)
(0.0120171 0.0519618 -0.00665689 0.0280201 -0.0391602 0.0111388)
(0.0441286 0.010496 0.411572 0.235228 -0.147802 -0.31316)
(-0.156357 -0.0513415 0.538836 0.0569078 0.130199 -0.0471551)
(-1.06619 0.598126 0.421702 2.50775 -0.433507 0.21899)
(-0.169762 0.55506 -0.488454 -0.457756 0.467307 0.117869)
(-0.0635397 1.1311 -0.979647 0.906736 0.555963 -0.0774877)
(-0.117015 0.231214 -0.243313 -0.0397589 0.0551621 -0.0446812)
(-1.16047 0.0796716 -0.652748 1.98984 -0.453053 -0.0362821)
(-0.0068283 -0.118108 -0.0484656 -0.00210882 -0.0198548 0.00528572)
(-0.116352 -0.00775935 -0.0204069 0.00928906 -0.0490984 0.0543967)
(0.361676 -0.194103 -0.585353 0.571491 0.191609 0.154512)
(0.113804 -0.354651 0.194864 -1.42139 -1.16937 0.118491)
(-0.7608 0.0972406 0.661697 2.7085 -0.00855515 -0.385924)
(-1.07028 0.300987 -0.362984 0.424001 -0.666617 0.518298)
(-0.660952 1.14993 -0.540579 0.1759 0.125302 0.570926)
(-0.389786 1.16405 -0.53656 0.208232 0.251249 0.0321878)
(-1.29879 -0.161117 0.0494183 1.50716 -0.108312 -0.144091)
(-0.492929 -0.455906 -0.245606 0.540627 -0.056498 -0.200163)
(-0.0281567 -0.128924 0.0161838 0.0546235 -0.0139574 -0.0396927)
(0.0869927 -0.190882 0.00373796 -0.265134 -0.232257 0.242914)
(-0.418166 -0.271058 0.0582779 -0.220582 -0.0209799 0.21053)
(-1.04788 0.544291 -0.825284 1.28428 0.239163 0.176802)
(-3.30344 -3.07928 1.51111 3.12962 -1.12321 -0.705644)
(-0.477875 0.139132 1.45505 1.00154 -0.543007 -0.0309349)
(2.20217 4.18722 -2.44146 -5.43554 2.42906 0.317463)
(-0.45462 1.64772 -3.32027 2.359 1.53054 0.0538299)
(-0.803324 0.3747 -0.810949 0.578071 0.597266 -0.0301272)
(0.0247761 1.01188 -0.361638 1.80932 0.244791 -0.385027)
(-0.0733051 -0.27844 -0.0117395 -0.0454681 -0.0146904 0.0788108)
(-0.117044 -0.09015 0.419818 0.294382 0.0052605 -0.182911)
(-1.23516 -0.926465 -0.67571 0.499505 -0.0872052 -0.163759)
(-2.1521 -0.08601 -1.53393 1.95733 -0.0371428 0.0900549)
(-0.199329 1.96939 0.523704 -1.2525 -0.748848 0.842289)
(0.0155341 1.24345 2.33169 3.0099 0.768483 -1.78221)
(-3.10412 -0.977876 -0.570299 5.40032 0.198885 -2.00202)
(-5.3305 3.37416 -2.86949 -1.63583 1.34021 0.228883)
(1.18228 3.68144 -1.13866 1.72654 0.777801 0.573295)
(27.9767 37.4283 -4.62291 -65.1014 4.71531 4.63614)
)
;
    }
    procBoundary16to17
    {
        type            processor;
        value           nonuniform List<symmTensor> 
20
(
(-0.948212 -0.465909 -3.33501 0.824814 1.34376 -1.20172)
(0.164158 -0.00970082 -0.947991 0.508046 0.941583 -0.704467)
(0.585869 -0.27307 -0.950924 0.287565 1.29174 -0.707725)
(1.49168 1.1411 -0.0871347 -0.832701 0.522921 -0.493883)
(-0.606654 0.523388 -0.830167 0.786163 -0.0209142 -0.0963925)
(-0.105383 -0.0260208 -0.485188 0.0942498 0.107236 0.14731)
(-0.133069 0.0194375 -0.0933906 -0.0163261 -0.0825154 0.144737)
(-0.154102 0.21018 -0.125271 -0.338343 -0.292646 0.13776)
(0.390623 0.252245 -0.555249 0.926313 0.279049 0.227017)
(-1.6736 -1.05105 -3.24616 -0.945691 1.73554 1.18797)
(0.126706 -0.0279708 0.253635 -0.578017 -0.07605 0.251729)
(0.266299 -0.760131 1.88017 -1.73676 -1.69638 2.50505)
(1.73984 1.00217 0.537668 0.0268388 1.72905 0.56994)
(1.28508 -0.75505 0.0235493 -1.00254 0.14429 0.134182)
(1.52654 -0.885372 1.15631 -2.84779 1.17393 0.264278)
(0.738283 -1.01093 0.615544 -1.49542 -0.971238 -0.842711)
(34.184 31.7162 1.72337 -50.994 4.73117 1.60178)
(7.03341 1.35814 3.86285 -4.89956 0.954596 0.0413013)
(0.745864 0.344249 0.3209 -0.229439 -0.267804 -0.456276)
(1.64694 -0.878542 0.877212 -1.22591 0.494031 -0.710973)
)
;
    }
    procBoundary16to24
    {
        type            processor;
        value           nonuniform List<symmTensor> 
50
(
(0.109073 -0.195383 -0.683607 0.0516102 -0.0832728 -0.0717903)
(0.0115149 0.103513 -0.354939 0.0424402 -0.0391764 -0.101736)
(0.214721 0.124071 -0.427846 0.0587642 0.011864 -0.209011)
(0.484378 -0.0175083 -0.105685 -0.180533 -0.00522162 -0.325362)
(0.369079 -1.935 1.51828 0.298188 1.15981 -1.49183)
(2.40833 1.58254 0.578559 0.0381874 -0.936711 -1.59957)
(0.734003 1.52181 -1.52837 -4.12515 1.81233 1.99795)
(-1.43761 0.665067 -2.5322 0.507766 0.868448 0.858766)
(-0.843951 0.479686 -0.606156 1.07085 0.449776 -0.501604)
(-0.591199 0.347592 -1.24228 1.73437 0.753028 -0.877312)
(-0.00348645 -0.135373 -0.168689 0.0362753 -0.0153616 -0.0361532)
(0.0415019 0.147904 -0.15707 0.0383118 -0.00251574 -0.0811499)
(0.180059 0.142548 0.167939 -0.241139 -0.615161 0.22052)
(-0.563246 0.193376 -0.952638 0.281253 0.167598 0.225149)
(-1.08654 -0.67225 -3.30977 0.963124 0.408031 0.510992)
(1.65988 -0.658954 3.51168 -0.601198 -0.636524 -1.73857)
(1.4865 1.16856 4.84506 0.812967 -1.80963 -0.866784)
(-0.673774 0.702326 -1.6644 -0.422114 0.484545 0.72506)
(-0.548888 0.432142 -1.41168 -0.232826 0.335474 1.14703)
(0.019859 -0.0360571 -0.25524 -0.175986 0.00190998 0.0541526)
(-0.0716216 -0.171691 -0.206443 0.0324204 -0.0174619 -0.0156751)
(0.0166338 0.264383 0.04597 0.251598 0.122011 0.0677546)
(0.169135 0.202121 0.257442 -0.931054 -1.54454 0.151551)
(-0.0929847 -0.0555974 0.446551 0.435649 0.105894 0.144657)
(-4.44065 -2.55193 -1.97426 2.94782 0.682357 1.42288)
(-1.50696 1.22547 -0.895042 -0.280539 0.750388 3.23241)
(1.99318 1.6504 2.45132 -1.68332 -1.06656 -1.04483)
(0.949997 -1.23465 3.70635 0.619242 -1.42665 -0.697601)
(0.186125 0.0217013 -1.32006 -0.29742 -0.00179256 0.111666)
(0.0582379 -0.0939282 -3.04267 -0.098676 0.927829 0.953536)
(-0.0509913 -0.234769 -0.202352 0.0656327 -0.0197465 0.0294476)
(-0.322318 0.24011 0.0191981 0.0616558 -0.0443558 0.12048)
(-0.207832 0.215454 0.280305 0.261101 0.000448623 0.0477889)
(0.186488 -0.128981 0.516825 -1.02098 -0.354962 0.183188)
(-0.515133 -0.15377 0.846025 1.44621 0.2242 -0.937945)
(-2.01041 -0.409442 0.85181 0.974016 0.894377 1.11468)
(-0.953476 0.777849 0.389491 -0.287001 0.110961 0.606843)
(1.9668 -1.39679 -0.513208 -0.893351 -0.338169 -2.00474)
(0.52692 -1.09959 0.0568978 0.288365 -0.0402235 -0.7906)
(0.0665212 -0.169854 -0.878844 0.30529 -0.905618 -0.616892)
(-0.449502 -0.617832 -0.18276 0.099884 -0.0257726 0.148833)
(0.0132988 0.396285 0.0439913 0.283917 -0.0987265 0.153728)
(0.366435 0.262298 0.146991 -0.878559 -0.21424 0.0442763)
(-1.10037 0.140627 -0.0774852 1.75689 1.30302 -0.343629)
(-0.644242 0.00391621 -0.0442847 0.268798 0.124019 -0.0288847)
(1.26595 0.488666 1.10109 -0.384301 0.29455 -0.598831)
(1.74631 -0.00537922 -1.0313 0.0824111 -0.533132 -1.7026)
(0.386337 -0.554881 -0.0377719 -0.58472 -0.122843 -0.0495452)
(0.175381 -0.551656 -0.165603 -0.30888 0.0382054 -0.177159)
(0.161061 -0.852709 0.320992 -0.60561 0.370564 0.347697)
)
;
    }
}


// ************************************************************************* //
