/*--------------------------------*- C++ -*----------------------------------*\
| =========                 |                                                 |
| \\      /  F ield         | OpenFOAM: The Open Source CFD Toolbox           |
|  \\    /   O peration     | Version:  2.4.0                                 |
|   \\  /    A nd           | Web:      www.OpenFOAM.org                      |
|    \\/     M anipulation  |                                                 |
\*---------------------------------------------------------------------------*/
FoamFile
{
    version     2.0;
    format      ascii;
    class       surfaceScalarField;
    location    "0.01";
    object      phia;
}
// * * * * * * * * * * * * * * * * * * * * * * * * * * * * * * * * * * * * * //

dimensions      [0 3 -1 0 0 0 0];

internalField   nonuniform List<scalar> 
490
(
4.54123e-06
7.00064e-07
6.90616e-09
4.54698e-06
7.01784e-07
6.61637e-09
4.55141e-06
7.03053e-07
6.39665e-09
4.55492e-06
7.0401e-07
6.22538e-09
4.55776e-06
7.04744e-07
6.0885e-09
4.5601e-06
7.05315e-07
5.97672e-09
4.56207e-06
7.05763e-07
5.8837e-09
4.56374e-06
7.06118e-07
5.80507e-09
4.56519e-06
7.06399e-07
5.73767e-09
7.06622e-07
5.67925e-09
4.53788e-06
6.99222e-07
7.06025e-09
4.54404e-06
7.01078e-07
6.75118e-09
4.54883e-06
7.0247e-07
6.51424e-09
4.55264e-06
7.03534e-07
6.32833e-09
4.55573e-06
7.0436e-07
6.17938e-09
4.55827e-06
7.05008e-07
6.05776e-09
4.56041e-06
7.05523e-07
5.95672e-09
4.56223e-06
7.05935e-07
5.8715e-09
4.56379e-06
7.06266e-07
5.79867e-09
7.06534e-07
5.73568e-09
4.53456e-06
6.98365e-07
7.21285e-09
4.54107e-06
7.0034e-07
6.88688e-09
4.54618e-06
7.01841e-07
6.63453e-09
4.55028e-06
7.03005e-07
6.43477e-09
4.55362e-06
7.03918e-07
6.27381e-09
4.55639e-06
7.04643e-07
6.142e-09
4.5587e-06
7.05225e-07
6.03244e-09
4.56067e-06
7.05694e-07
5.94011e-09
4.56236e-06
7.06076e-07
5.86132e-09
7.06387e-07
5.79332e-09
4.53127e-06
7.36362e-09
4.5381e-06
7.02201e-09
4.54351e-06
6.756e-09
4.54788e-06
6.54362e-09
4.55146e-06
6.37122e-09
4.55443e-06
6.22933e-09
4.55693e-06
6.11106e-09
4.55906e-06
6.01128e-09
4.56088e-06
5.92615e-09
5.85277e-09
4.53804e-06
6.98963e-07
7.05391e-09
4.54418e-06
7.00807e-07
6.744e-09
4.54892e-06
7.02173e-07
6.50888e-09
4.55268e-06
7.03206e-07
6.32552e-09
4.55572e-06
7.04001e-07
6.17894e-09
4.55823e-06
7.04623e-07
6.05919e-09
4.56034e-06
7.05114e-07
5.95952e-09
4.56213e-06
7.05504e-07
5.87524e-09
4.56369e-06
7.05817e-07
5.803e-09
7.06067e-07
5.74035e-09
4.53471e-06
6.98139e-07
7.20767e-09
4.54125e-06
7.00118e-07
6.87879e-09
4.54635e-06
7.01606e-07
6.62645e-09
4.55041e-06
7.02746e-07
6.42838e-09
4.5537e-06
7.03634e-07
6.26966e-09
4.55641e-06
7.04333e-07
6.14001e-09
4.55869e-06
7.04891e-07
6.03228e-09
4.56063e-06
7.05339e-07
5.9414e-09
4.5623e-06
7.05701e-07
5.8637e-09
7.05995e-07
5.7965e-09
4.53141e-06
6.973e-07
7.35984e-09
4.53829e-06
6.99395e-07
7.01443e-09
4.54371e-06
7.00991e-07
6.74683e-09
4.54806e-06
7.0223e-07
6.5349e-09
4.5516e-06
7.03205e-07
6.36409e-09
4.55453e-06
7.03982e-07
6.22418e-09
4.55699e-06
7.04606e-07
6.10787e-09
4.55908e-06
7.05112e-07
6.00983e-09
4.56087e-06
7.05524e-07
5.92616e-09
7.05863e-07
5.85393e-09
4.52814e-06
7.51007e-09
4.53534e-06
7.14944e-09
4.54104e-06
6.86838e-09
4.54565e-06
6.64389e-09
4.54944e-06
6.46161e-09
4.55258e-06
6.31157e-09
4.55522e-06
6.18648e-09
4.55747e-06
6.08094e-09
4.5594e-06
5.99089e-09
5.91324e-09
4.53487e-06
6.97865e-07
7.20119e-09
4.5414e-06
6.99833e-07
6.87134e-09
4.54645e-06
7.01294e-07
6.62091e-09
4.55044e-06
7.02403e-07
6.42553e-09
4.55368e-06
7.03259e-07
6.26929e-09
4.55636e-06
7.03931e-07
6.14162e-09
4.55861e-06
7.04464e-07
6.03532e-09
4.56053e-06
7.04891e-07
5.94542e-09
4.56218e-06
7.05234e-07
5.86834e-09
7.05511e-07
5.80149e-09
4.53156e-06
6.97061e-07
7.35466e-09
4.53848e-06
6.99161e-07
7.0061e-09
4.54388e-06
7.00744e-07
6.73848e-09
4.54818e-06
7.0196e-07
6.52832e-09
4.55167e-06
7.02908e-07
6.35986e-09
4.55455e-06
7.03658e-07
6.22222e-09
4.55697e-06
7.04258e-07
6.10783e-09
4.55903e-06
7.04742e-07
6.0113e-09
4.5608e-06
7.05135e-07
5.92876e-09
7.05456e-07
5.85736e-09
4.52827e-06
6.96239e-07
7.5064e-09
4.53553e-06
6.98453e-07
7.14171e-09
4.54125e-06
7.00142e-07
6.85894e-09
4.54584e-06
7.01457e-07
6.63491e-09
4.54958e-06
7.02493e-07
6.4543e-09
4.55268e-06
7.0332e-07
6.30634e-09
4.55528e-06
7.03987e-07
6.1833e-09
4.55749e-06
7.04529e-07
6.07958e-09
4.55938e-06
7.04972e-07
5.99102e-09
7.05338e-07
5.91458e-09
4.52503e-06
7.65612e-09
4.53259e-06
7.27661e-09
4.53859e-06
6.98059e-09
4.54344e-06
6.74405e-09
4.54742e-06
6.55195e-09
4.55073e-06
6.39378e-09
4.55352e-06
6.26191e-09
4.55589e-06
6.15063e-09
4.55792e-06
6.05566e-09
5.97376e-09
4.53172e-06
6.96775e-07
7.33364e-09
4.53864e-06
6.98864e-07
6.98413e-09
4.54398e-06
7.0042e-07
6.71851e-09
4.54822e-06
7.01603e-07
6.51111e-09
4.55165e-06
7.0252e-07
6.34511e-09
4.55449e-06
7.03241e-07
6.20935e-09
4.55688e-06
7.03816e-07
6.09623e-09
4.55892e-06
7.04278e-07
6.00047e-09
4.56068e-06
7.04652e-07
5.91829e-09
7.04956e-07
5.84696e-09
4.52843e-06
6.9599e-07
7.48589e-09
4.53573e-06
6.98209e-07
7.11801e-09
4.54143e-06
6.99885e-07
6.83526e-09
4.54597e-06
7.01176e-07
6.61305e-09
4.54965e-06
7.02185e-07
6.43479e-09
4.5527e-06
7.02985e-07
6.28904e-09
4.55526e-06
7.03627e-07
6.1678e-09
4.55743e-06
7.04146e-07
6.06542e-09
4.55931e-06
7.0457e-07
5.97779e-09
7.04918e-07
5.90192e-09
4.52516e-06
6.95184e-07
7.63629e-09
4.53279e-06
6.97515e-07
7.2527e-09
4.5388e-06
6.99297e-07
6.95498e-09
4.54363e-06
7.00686e-07
6.71892e-09
4.54757e-06
7.01783e-07
6.52848e-09
4.55083e-06
7.0266e-07
6.37236e-09
4.55357e-06
7.03369e-07
6.24245e-09
4.5559e-06
7.03947e-07
6.13285e-09
4.5579e-06
7.04421e-07
6.0392e-09
7.04813e-07
5.95828e-09
4.52194e-06
7.78454e-09
4.52986e-06
7.38659e-09
4.53614e-06
7.07587e-09
4.54123e-06
6.8274e-09
4.54542e-06
6.62547e-09
4.54889e-06
6.45912e-09
4.55182e-06
6.32034e-09
4.55431e-06
6.20315e-09
4.55644e-06
6.10306e-09
6.01667e-09
4.5286e-06
6.95689e-07
4.53589e-06
6.97898e-07
4.54153e-06
6.99547e-07
4.546e-06
7.00804e-07
4.54963e-06
7.01781e-07
4.55264e-06
7.02552e-07
4.55516e-06
7.03168e-07
4.55732e-06
7.03666e-07
4.55918e-06
7.0407e-07
7.04401e-07
4.52532e-06
6.94923e-07
4.53299e-06
6.9726e-07
4.53898e-06
6.99029e-07
4.54376e-06
7.00394e-07
4.54764e-06
7.01463e-07
4.55085e-06
7.02312e-07
4.55355e-06
7.02996e-07
4.55584e-06
7.03551e-07
4.55782e-06
7.04005e-07
7.04379e-07
4.52207e-06
6.94134e-07
4.53006e-06
6.9658e-07
4.53636e-06
6.98454e-07
4.54143e-06
6.99916e-07
4.54557e-06
7.01074e-07
4.54899e-06
7.02001e-07
4.55187e-06
7.02752e-07
4.55431e-06
7.03365e-07
4.55642e-06
7.0387e-07
7.04288e-07
4.51887e-06
4.52714e-06
4.53371e-06
4.53904e-06
4.54341e-06
4.54705e-06
4.55012e-06
4.55273e-06
4.55497e-06
)
;

boundaryField
{
    inlet
    {
        type            calculated;
        value           nonuniform 0();
    }
    outlet
    {
        type            calculated;
        value           nonuniform 0();
    }
    bottom
    {
        type            calculated;
        value           uniform 0;
    }
    top
    {
        type            symmetryPlane;
        value           uniform 0;
    }
    side1
    {
        type            symmetryPlane;
        value           nonuniform 0();
    }
    side2
    {
        type            symmetryPlane;
        value           nonuniform 0();
    }
    procBoundary20to12
    {
        type            processor;
        value           nonuniform List<scalar> 
50
(
-7.00819e-07
-7.02379e-07
-7.03518e-07
-7.0437e-07
-7.05019e-07
-7.05519e-07
-7.05907e-07
-7.0621e-07
-7.06445e-07
-7.06626e-07
-6.99692e-07
-7.01378e-07
-7.02614e-07
-7.03542e-07
-7.04253e-07
-7.04804e-07
-7.05235e-07
-7.05574e-07
-7.05841e-07
-7.06049e-07
-6.98571e-07
-7.00381e-07
-7.01712e-07
-7.02716e-07
-7.03487e-07
-7.04089e-07
-7.04563e-07
-7.04938e-07
-7.05236e-07
-7.05472e-07
-6.97455e-07
-6.99388e-07
-7.00814e-07
-7.01892e-07
-7.02724e-07
-7.03376e-07
-7.03892e-07
-7.04304e-07
-7.04633e-07
-7.04896e-07
-6.96345e-07
-6.98399e-07
-6.99918e-07
-7.0107e-07
-7.01962e-07
-7.02664e-07
-7.03222e-07
-7.03669e-07
-7.04029e-07
-7.04319e-07
)
;
    }
    procBoundary20to19
    {
        type            processor;
        value           nonuniform List<scalar> 
20
(
-4.53352e-06
-4.52974e-06
-4.52601e-06
-4.52232e-06
-4.52982e-06
-4.52607e-06
-4.52237e-06
-4.51872e-06
-4.52615e-06
-4.52244e-06
-4.51877e-06
-4.51515e-06
-4.52251e-06
-4.51883e-06
-4.5152e-06
-4.51162e-06
-4.5189e-06
-4.51525e-06
-4.51165e-06
-4.5081e-06
)
;
    }
    procBoundary20to21
    {
        type            processor;
        value           nonuniform List<scalar> 
20
(
4.56647e-06
4.56517e-06
4.56386e-06
4.56251e-06
4.56506e-06
4.56377e-06
4.56246e-06
4.56112e-06
4.56365e-06
4.56236e-06
4.56107e-06
4.55973e-06
4.56224e-06
4.56096e-06
4.55968e-06
4.55835e-06
4.56083e-06
4.55957e-06
4.55828e-06
4.55696e-06
)
;
    }
    procBoundary20to28
    {
        type            processor;
        value           nonuniform List<scalar> 
50
(
6.97575e-07
6.99701e-07
7.01315e-07
7.02562e-07
7.03543e-07
7.04324e-07
7.04954e-07
7.05467e-07
7.05888e-07
7.06235e-07
6.96527e-07
6.98773e-07
7.0048e-07
7.01804e-07
7.02845e-07
7.03677e-07
7.0435e-07
7.04898e-07
7.0535e-07
7.05724e-07
6.95483e-07
6.97847e-07
6.99648e-07
7.01046e-07
7.02148e-07
7.0303e-07
7.03744e-07
7.04329e-07
7.04811e-07
7.05211e-07
6.94445e-07
6.96926e-07
6.98819e-07
7.0029e-07
7.01453e-07
7.02385e-07
7.0314e-07
7.0376e-07
7.04273e-07
7.047e-07
6.93411e-07
6.96007e-07
6.97992e-07
6.99536e-07
7.00759e-07
7.0174e-07
7.02537e-07
7.03192e-07
7.03735e-07
7.04188e-07
)
;
    }
}


// ************************************************************************* //
