/*--------------------------------*- C++ -*----------------------------------*\
| =========                 |                                                 |
| \\      /  F ield         | OpenFOAM: The Open Source CFD Toolbox           |
|  \\    /   O peration     | Version:  2.4.0                                 |
|   \\  /    A nd           | Web:      www.OpenFOAM.org                      |
|    \\/     M anipulation  |                                                 |
\*---------------------------------------------------------------------------*/
FoamFile
{
    version     2.0;
    format      ascii;
    class       surfaceScalarField;
    location    "0.01";
    object      phib;
}
// * * * * * * * * * * * * * * * * * * * * * * * * * * * * * * * * * * * * * //

dimensions      [0 3 -1 0 0 0 0];

internalField   nonuniform List<scalar> 
490
(
1.53009e-05
-7.32259e-07
1.30874e-06
1.50848e-05
-8.05593e-07
3.14689e-07
2.23398e-05
-9.6917e-06
1.59606e-07
2.00474e-05
5.04778e-07
4.73382e-07
1.83295e-05
1.57233e-06
3.21325e-08
1.6091e-05
2.25048e-06
7.82332e-07
1.47577e-05
2.58937e-06
-1.14998e-06
1.56077e-05
-5.74267e-07
-2.82984e-07
1.57699e-05
1.16546e-07
1.7141e-07
2.54955e-07
4.17921e-07
1.23517e-05
1.11979e-06
5.14239e-07
8.90751e-06
2.79625e-06
-1.57686e-07
1.08245e-05
-5.42557e-06
-6.18311e-06
2.11626e-05
-6.3705e-06
-3.46279e-06
2.66757e-05
-4.01552e-06
7.47013e-08
2.57753e-05
3.57667e-06
-4.2578e-07
2.03894e-05
3.08886e-06
4.88637e-06
1.5194e-05
3.22136e-06
1.3998e-06
1.4735e-05
-7.11371e-08
6.46655e-07
-3.38301e-07
4.39046e-07
1.58526e-05
1.05393e-06
1.19409e-06
1.79e-05
2.13421e-07
5.35404e-07
1.22299e-05
2.07077e-07
3.74382e-08
9.14264e-06
-4.88018e-06
1.59694e-06
1.44515e-05
-2.42367e-06
-6.90072e-06
1.84968e-05
2.86969e-06
-3.3383e-06
2.31703e-05
1.41309e-06
-2.99771e-06
1.63525e-05
1.48469e-06
8.55449e-06
1.52767e-05
-5.8592e-08
1.06317e-06
-2.97533e-07
2.8566e-07
1.72028e-05
8.32783e-07
1.72412e-05
4.377e-07
1.71496e-05
1.15678e-07
1.37986e-05
-1.40394e-06
1.27767e-05
-1.71817e-06
1.65341e-05
-1.61788e-06
1.6465e-05
8.98637e-07
1.68543e-05
2.11601e-07
1.6034e-05
4.95316e-08
2.93885e-07
1.64904e-05
3.5413e-07
1.81957e-06
1.60105e-05
-1.43657e-07
8.73983e-07
1.55568e-05
4.13664e-07
-1.56182e-08
1.7166e-05
-5.95282e-07
7.27595e-07
1.66731e-05
1.83108e-06
5.35504e-07
1.61051e-05
3.448e-06
1.04463e-06
1.70096e-05
1.42988e-06
8.95165e-07
1.66423e-05
8.12191e-07
4.90677e-07
1.66104e-05
5.77054e-07
2.74598e-07
-2.20702e-08
2.1536e-06
1.77268e-05
7.6109e-07
1.96463e-06
1.84784e-05
-6.66236e-07
-3.86685e-07
1.41889e-05
-1.72747e-06
2.47512e-07
1.68991e-05
-2.75846e-06
-4.00983e-06
1.78672e-05
1.22985e-06
-2.92222e-07
1.95787e-05
1.25969e-06
5.10853e-08
1.47988e-05
1.06032e-05
4.92914e-07
1.28463e-05
4.29638e-06
-1.31888e-07
1.43733e-05
-1.39165e-06
1.08842e-06
-8.55038e-07
1.62882e-07
1.90215e-05
3.1636e-06
2.81823e-06
1.74062e-05
5.9649e-07
8.87971e-07
1.66399e-05
-1.19882e-06
2.75049e-07
1.91358e-05
-1.19873e-06
-2.45873e-06
1.60146e-05
-5.53305e-07
-1.99631e-06
1.18577e-05
5.32716e-06
-3.24887e-06
1.21784e-05
1.0225e-05
-2.94023e-06
1.45396e-05
4.31175e-06
6.17797e-06
1.52335e-05
-1.8124e-06
7.89955e-07
-9.2787e-07
6.35039e-07
1.74106e-05
2.55902e-06
1.58536e-05
1.52749e-06
1.49971e-05
-3.48892e-07
1.34956e-05
-3.6646e-07
1.7647e-05
-8.34239e-06
2.00788e-05
-2.16773e-06
1.56089e-05
8.22067e-07
1.87367e-05
8.54054e-07
1.7269e-05
2.41759e-07
2.84067e-07
1.4958e-05
8.59006e-07
5.73308e-07
1.61233e-05
7.14219e-07
1.84672e-07
1.5881e-05
4.71642e-07
9.44251e-07
1.55665e-05
7.41031e-07
1.11282e-06
1.86399e-05
-1.54818e-06
2.71501e-07
2.00687e-05
-5.68859e-07
8.20152e-08
1.0944e-05
-8.19098e-07
-5.10048e-08
1.23635e-05
-2.32727e-07
1.46696e-07
1.22581e-05
-7.94128e-07
1.62029e-06
-1.0952e-06
2.5393e-06
1.64377e-05
-1.16884e-06
5.1643e-07
1.50869e-05
7.06105e-07
9.72151e-07
1.47573e-05
6.78845e-07
3.69928e-07
1.28174e-05
-1.31095e-06
-1.79685e-08
1.2905e-05
-2.04055e-06
1.12605e-07
1.58258e-05
-3.68161e-06
2.43025e-07
1.52575e-05
2.07149e-07
3.49994e-08
1.52875e-05
-6.59478e-07
2.64792e-07
1.55354e-05
-1.00116e-06
1.04757e-06
-1.86455e-06
8.77269e-07
1.45676e-05
-2.90331e-06
9.05971e-07
1.57963e-05
1.97033e-07
1.6843e-07
1.57995e-05
-7.48606e-08
1.02552e-06
1.58908e-05
-2.09022e-06
-1.77077e-06
1.66956e-05
-4.27418e-06
-5.67472e-07
1.66806e-05
-4.60848e-06
-2.30702e-06
1.16537e-05
5.04949e-07
1.78888e-06
1.65754e-05
1.69218e-07
4.2756e-07
1.61756e-05
-2.83659e-08
2.17006e-07
-1.5203e-06
6.7596e-07
1.44696e-05
-4.43056e-08
1.60267e-05
8.53784e-07
1.72203e-05
-1.12607e-06
1.48932e-05
-7.12685e-07
1.82177e-05
-8.95682e-06
1.34339e-05
-3.48679e-07
1.43663e-05
4.21272e-07
1.47796e-05
7.09936e-07
1.49627e-05
2.04994e-07
1.5785e-08
1.66558e-05
7.2733e-07
-1.33823e-07
1.49783e-05
2.97627e-06
-5.08238e-07
1.45414e-05
7.83105e-06
5.44839e-08
1.51752e-05
2.92669e-06
4.76805e-07
1.51066e-05
1.06033e-07
-4.21754e-07
1.52225e-05
-9.6425e-08
-4.35705e-07
1.59986e-05
-2.73176e-07
-1.02246e-07
1.62582e-05
-5.82126e-07
-3.2626e-08
1.73121e-05
-3.2227e-06
1.53348e-06
-3.75217e-06
-8.94723e-07
1.13657e-05
2.97495e-06
-3.81983e-08
8.69149e-06
5.97733e-06
6.45304e-07
1.48429e-05
1.9458e-06
1.0374e-07
1.7236e-05
7.25682e-07
-2.10067e-07
1.58139e-05
1.83715e-06
-1.96409e-07
1.47865e-05
1.23481e-06
-6.07873e-08
1.44377e-05
3.58381e-08
7.48085e-08
1.41493e-05
-5.59989e-07
5.31048e-07
1.32428e-05
-5.62844e-07
-7.05755e-07
-1.19849e-06
2.28331e-06
1.01354e-05
1.97567e-06
-2.78727e-08
1.40446e-05
1.73547e-06
5.01102e-07
1.40593e-05
2.02794e-06
9.28661e-07
1.38231e-05
-7.47237e-07
-6.16243e-08
1.39223e-05
2.13998e-06
-9.69539e-07
1.23904e-05
6.8849e-07
-2.2878e-07
1.40903e-05
2.47189e-08
1.00083e-07
1.3016e-05
6.6211e-07
2.79749e-07
1.29991e-05
6.41312e-08
-3.93e-07
-2.01157e-09
-8.01563e-07
1.6118e-05
8.93633e-08
1.92999e-05
-7.64423e-07
1.83643e-05
1.67682e-07
1.77923e-05
-6.32423e-07
1.25219e-05
-4.16784e-07
1.42492e-05
-1.568e-06
1.50655e-05
3.65017e-08
1.49479e-05
1.21982e-06
1.2626e-05
2.97592e-06
-5.29222e-07
1.24782e-05
2.83324e-06
1.35597e-05
1.86373e-06
1.48436e-05
6.72357e-07
1.52929e-05
1.49824e-06
1.49696e-05
1.39744e-06
1.50757e-05
2.2292e-06
1.7141e-05
1.75653e-06
1.83898e-05
2.09078e-07
2.1027e-05
-7.34876e-08
-2.85236e-06
1.3972e-05
2.64253e-06
1.45164e-05
1.96525e-06
1.48798e-05
4.13461e-07
1.49048e-05
1.26419e-06
1.42395e-05
1.86741e-06
1.51766e-05
1.23255e-06
1.64084e-05
6.00621e-07
1.85144e-05
-1.36532e-06
1.95801e-05
-1.84449e-06
-3.20481e-06
1.59132e-05
1.55818e-06
1.56271e-05
2.75355e-06
1.34179e-05
3.55195e-06
1.3861e-05
7.60642e-07
1.44365e-05
3.24516e-07
1.39955e-05
1.44576e-06
1.43443e-05
3.52656e-07
1.22416e-05
1.01789e-06
1.76887e-05
-7.68391e-06
-1.90686e-06
1.57873e-05
1.46767e-05
1.55056e-05
1.55978e-05
1.63413e-05
1.50736e-05
1.49401e-05
1.56842e-05
1.84754e-05
)
;

boundaryField
{
    inlet
    {
        type            fixedValue;
        value           nonuniform 0();
    }
    outlet
    {
        type            calculated;
        value           nonuniform 0();
    }
    bottom
    {
        type            fixedValue;
        value           uniform 0;
    }
    top
    {
        type            symmetryPlane;
        value           nonuniform List<scalar> 
40
(
-1.63468e-09
-9.17824e-10
-1.05031e-09
-6.02203e-10
-1.16635e-09
-6.56971e-10
-1.15217e-09
-1.03898e-09
-6.995e-10
-6.87003e-10
-6.63527e-10
-9.74356e-10
-6.62608e-10
-1.01806e-09
-1.11753e-09
-5.62575e-10
-7.02988e-10
-1.0791e-09
-2.1957e-09
-9.94449e-10
-6.85832e-10
-1.3059e-09
-9.59004e-10
-9.41135e-10
-5.67281e-10
-1.04237e-09
-7.98653e-10
-5.2256e-10
-4.80091e-10
-4.93899e-10
-7.69865e-10
-9.6949e-10
-3.26457e-10
-4.82379e-10
-6.68757e-10
-2.80262e-09
-3.12823e-10
-8.41108e-10
-7.7793e-10
-1.08883e-09
)
;
    }
    side1
    {
        type            symmetryPlane;
        value           nonuniform 0();
    }
    side2
    {
        type            symmetryPlane;
        value           nonuniform 0();
    }
    procBoundary20to12
    {
        type            processor;
        value           nonuniform List<scalar> 
50
(
-2.62086e-07
7.07012e-07
2.27708e-06
1.31426e-06
1.13439e-07
-7.94352e-07
-1.06042e-07
7.22978e-09
-4.50171e-07
1.46837e-07
-3.80226e-07
6.43204e-08
2.15188e-07
-1.26815e-06
-1.84152e-06
-3.14226e-06
-4.37955e-06
-1.21857e-06
-6.48301e-07
1.68909e-08
4.84895e-07
-1.19022e-06
-1.18927e-06
-8.11737e-07
-1.26117e-06
1.02657e-07
1.089e-05
-8.42846e-07
-4.46185e-07
6.18098e-07
-1.74365e-06
-6.05907e-07
-6.50432e-06
-2.92453e-06
6.55843e-07
4.98278e-07
-4.51729e-07
5.01905e-07
2.25554e-06
6.03722e-06
-6.68545e-06
-3.45233e-06
-1.90107e-06
-1.47012e-06
-1.49519e-06
-2.7703e-06
-3.92348e-06
-1.49005e-06
-1.0299e-06
1.4226e-06
)
;
    }
    procBoundary20to19
    {
        type            processor;
        value           nonuniform List<scalar> 
20
(
-1.56153e-05
-1.4718e-05
-1.69808e-05
-1.68262e-05
-1.69751e-05
-1.95841e-05
-2.30481e-05
-1.7095e-05
-1.50556e-05
-1.29616e-05
-1.09209e-05
-1.15516e-05
-1.49323e-05
-1.30587e-05
-8.20229e-06
-1.43348e-05
-8.75814e-06
-1.38186e-05
-1.48556e-05
-1.49964e-05
)
;
    }
    procBoundary20to21
    {
        type            processor;
        value           nonuniform List<scalar> 
20
(
1.49502e-05
1.48893e-05
1.49503e-05
1.51664e-05
1.48799e-05
1.54824e-05
1.4957e-05
1.66467e-05
1.23495e-05
1.55904e-05
1.57904e-05
1.38667e-05
1.84611e-05
9.28305e-06
1.32801e-05
1.30985e-05
2.15624e-05
2.22167e-05
1.559e-05
1.61451e-05
)
;
    }
    procBoundary20to28
    {
        type            processor;
        value           nonuniform List<scalar> 
50
(
-1.55496e-07
-2.62628e-07
1.82939e-07
-1.25209e-07
3.16373e-07
7.30187e-07
5.83591e-07
8.83723e-07
7.12184e-07
2.76221e-07
1.12175e-06
1.06371e-06
1.22246e-07
-7.34751e-07
1.91956e-06
3.44521e-06
1.47714e-05
5.41552e-07
-5.36964e-07
-2.95733e-07
-3.21793e-06
-6.8637e-07
-4.91346e-07
5.83132e-07
-6.98426e-06
-1.6437e-06
-2.67277e-08
-9.9955e-08
-1.74678e-07
-1.5597e-07
5.87443e-08
1.71813e-07
1.66973e-06
-2.55454e-07
-1.12964e-06
1.80439e-07
-4.06762e-07
2.69837e-07
-3.84905e-07
7.04595e-08
8.57325e-07
3.10072e-06
2.89175e-06
3.65954e-08
-8.34828e-07
1.14646e-06
5.2315e-07
1.49456e-06
-7.49635e-06
-1.04727e-07
)
;
    }
}


// ************************************************************************* //
