/*--------------------------------*- C++ -*----------------------------------*\
| =========                 |                                                 |
| \\      /  F ield         | OpenFOAM: The Open Source CFD Toolbox           |
|  \\    /   O peration     | Version:  2.4.0                                 |
|   \\  /    A nd           | Web:      www.OpenFOAM.org                      |
|    \\/     M anipulation  |                                                 |
\*---------------------------------------------------------------------------*/
FoamFile
{
    version     2.0;
    format      ascii;
    class       volVectorField;
    location    "0.01";
    object      U;
}
// * * * * * * * * * * * * * * * * * * * * * * * * * * * * * * * * * * * * * //

dimensions      [0 1 -1 0 0 0 0];

internalField   nonuniform List<vector> 
60
(
(1.01477e+11 8.0692e+10 3.66407e+10)
(7.47647e+10 6.22884e+10 3.10401e+10)
(4.19641e+10 5.41821e+10 1.79447e+10)
(3.74585e+10 4.89412e+10 1.33815e+10)
(2.72985e+10 4.5298e+10 8.4491e+09)
(1.29123e+11 1.00846e+11 3.39799e+10)
(9.86439e+10 6.9905e+10 2.86728e+10)
(7.85824e+10 5.51665e+10 2.11819e+10)
(6.65806e+10 4.81714e+10 1.24546e+10)
(4.96524e+10 5.38919e+10 7.33778e+09)
(1.19205e+11 9.99333e+10 3.50361e+10)
(8.79188e+10 6.50828e+10 2.1532e+10)
(7.81014e+10 4.54477e+10 1.73827e+10)
(7.41381e+10 3.3707e+10 8.78602e+09)
(7.45262e+10 5.70027e+10 1.35006e+10)
(2.50163e+11 1.23354e+11 4.00012e+10)
(2.04739e+11 8.84551e+10 3.71045e+10)
(1.47107e+11 7.26153e+10 3.69958e+10)
(1.11142e+11 4.64511e+10 2.09293e+10)
(8.44827e+10 5.5461e+10 1.45411e+10)
(2.29572e+11 1.36514e+11 1.80976e+11)
(1.6986e+11 1.28927e+11 1.395e+11)
(1.30505e+11 1.12682e+11 6.85772e+10)
(9.49254e+10 8.41444e+10 4.53856e+10)
(7.45868e+10 7.152e+10 4.64833e+10)
(2.38416e+11 1.4237e+11 2.24551e+11)
(1.88302e+11 1.35621e+11 1.79849e+11)
(1.56648e+11 1.21428e+11 1.23172e+11)
(1.16496e+11 1.06794e+11 9.77725e+10)
(7.3669e+10 7.08014e+10 7.28369e+10)
(2.38317e+11 1.29343e+11 1.70616e+11)
(2.08335e+11 1.26265e+11 1.64738e+11)
(1.71604e+11 1.02104e+11 1.11604e+11)
(1.41449e+11 1.05984e+11 8.29663e+10)
(1.17545e+11 7.42507e+10 6.17824e+10)
(2.30486e+11 9.56574e+10 1.53458e+11)
(2.01787e+11 1.02073e+11 1.67092e+11)
(1.64293e+11 9.5621e+10 1.39671e+11)
(1.20932e+11 1.05521e+11 9.20164e+10)
(9.19641e+10 6.31629e+10 5.24996e+10)
(3.81036e+10 3.45803e+10 2.78911e+11)
(1.7893e+10 4.81553e+10 2.4175e+11)
(1.4241e+10 3.83806e+10 9.39843e+10)
(1.10469e+10 3.20925e+10 5.62755e+10)
(1.0667e+10 2.54094e+10 4.90271e+10)
(2.23214e+10 3.36323e+10 2.87771e+11)
(-2.50126e+08 4.0284e+10 3.57189e+11)
(-2.38238e+10 3.48959e+10 2.66586e+11)
(-1.11282e+10 2.42179e+10 1.79712e+11)
(-5.86577e+09 1.87893e+10 1.51295e+11)
(-6.94064e+09 -2.78831e+10 3.31281e+11)
(-3.01666e+10 -3.40835e+10 2.79049e+11)
(-3.78484e+10 -1.21535e+10 2.60622e+11)
(-1.23099e+10 1.10284e+10 1.23709e+11)
(-9.37961e+09 1.18737e+10 8.18206e+10)
(3.80109e+10 2.48589e+10 1.69423e+11)
(3.32095e+10 2.96787e+10 1.98305e+11)
(-2.07685e+09 2.31583e+09 3.26662e+11)
(-1.5189e+09 7.03771e+09 1.66831e+11)
(-8.63577e+09 1.88348e+10 8.92426e+10)
)
;

boundaryField
{
    inlet
    {
        type            calculated;
        value           nonuniform 0();
    }
    outlet
    {
        type            calculated;
        value           nonuniform 0();
    }
    bottom
    {
        type            calculated;
        value           uniform (0 0 0);
    }
    top
    {
        type            symmetryPlane;
    }
    side1
    {
        type            symmetryPlane;
    }
    side2
    {
        type            symmetryPlane;
    }
    procBoundary20to4
    {
        type            processor;
        value           nonuniform List<vector> 
15
(
(7.89263e+10 5.62087e+10 2.81453e+10)
(6.18845e+10 5.77738e+10 2.70588e+10)
(5.24741e+10 7.37032e+10 3.17877e+10)
(4.83017e+10 6.27813e+10 2.47705e+10)
(5.07308e+10 5.6981e+10 2.55341e+10)
(1.79871e+11 1.08126e+11 1.15241e+11)
(1.3176e+11 8.72547e+10 1.01648e+11)
(9.03124e+10 7.44828e+10 1.12314e+11)
(7.6964e+10 7.11491e+10 7.51457e+10)
(6.75506e+10 7.48848e+10 6.35074e+10)
(9.83316e+09 3.54934e+10 1.87574e+11)
(3.74154e+09 3.77615e+10 1.58442e+11)
(-1.38968e+10 4.00222e+10 1.75481e+11)
(6.60436e+08 4.39524e+10 1.25254e+11)
(7.5295e+09 3.69267e+10 8.2677e+10)
)
;
    }
    procBoundary20to19
    {
        type            processor;
        value           nonuniform List<vector> 
12
(
(1.74923e+11 8.9582e+10 5.17862e+10)
(1.64275e+11 8.8315e+10 3.32736e+10)
(1.56287e+11 7.91175e+10 3.12963e+10)
(3.0269e+11 9.57895e+10 3.51404e+10)
(2.89652e+11 1.58147e+11 2.20738e+11)
(2.89226e+11 1.62191e+11 2.10693e+11)
(2.93083e+11 1.78089e+11 1.88508e+11)
(2.73996e+11 1.42935e+11 1.46969e+11)
(4.75044e+10 2.04869e+10 2.32863e+11)
(2.89716e+10 1.96133e+10 2.26693e+11)
(3.42363e+10 -3.3247e+10 3.53219e+11)
(4.02792e+10 1.34714e+10 1.76511e+11)
)
;
    }
    procBoundary20to21
    {
        type            processor;
        value           nonuniform List<vector> 
12
(
(2.18606e+10 3.83981e+10 6.72497e+09)
(4.08098e+10 3.40992e+10 7.61372e+09)
(6.4706e+10 3.1554e+10 1.1039e+10)
(6.54444e+10 4.08016e+10 1.14207e+10)
(6.79442e+10 6.07811e+10 4.68026e+10)
(6.60557e+10 4.61053e+10 5.15029e+10)
(1.00092e+11 4.94978e+10 5.33852e+10)
(8.63468e+10 5.23177e+10 5.20983e+10)
(9.76005e+09 3.11778e+10 6.9091e+10)
(-1.34957e+09 2.26295e+10 9.39715e+10)
(-2.46537e+10 1.15187e+10 7.34739e+10)
(-1.19647e+10 2.16359e+10 5.52913e+10)
)
;
    }
    procBoundary20to36
    {
        type            processor;
        value           nonuniform List<vector> 
15
(
(2.82818e+11 1.29897e+11 5.12321e+10)
(2.66941e+11 1.06728e+11 4.28169e+10)
(2.34195e+11 1.16629e+11 5.30692e+10)
(1.90547e+11 9.64526e+10 3.60578e+10)
(1.40654e+11 8.81739e+10 1.73295e+10)
(1.40601e+11 1.0453e+11 9.28071e+10)
(1.36269e+11 9.10955e+10 1.06129e+11)
(1.24144e+11 8.22056e+10 1.49363e+11)
(1.07719e+11 9.9419e+10 1.30759e+11)
(9.49748e+10 5.83492e+10 7.20712e+10)
(1.6243e+10 2.46997e+10 9.8357e+10)
(1.75415e+10 3.68855e+10 1.1189e+11)
(7.40006e+08 3.00946e+10 1.85485e+11)
(-8.38069e+09 8.9315e+09 1.86335e+11)
(-8.75537e+09 1.8661e+10 1.47977e+11)
)
;
    }
    procBoundary20to84
    {
        type            processor;
        value           nonuniform List<vector> 
20
(
(-1.54647e+11 -8.28499e+10 2.16829e+11)
(-1.10344e+11 -2.61252e+10 1.34446e+11)
(-6.82424e+10 -6.76997e+09 8.05079e+10)
(-6.76711e+10 -1.14657e+10 5.06899e+10)
(-7.64761e+10 -1.8218e+10 4.46023e+10)
(-4.74617e+11 -3.07325e+11 4.23604e+11)
(-4.11799e+11 -2.04215e+11 4.38206e+11)
(-1.67603e+11 -4.01652e+10 1.33638e+11)
(-1.87941e+11 -1.46473e+10 9.07464e+10)
(-1.53091e+11 1.57671e+09 1.00719e+11)
(-1.39233e+11 -1.0492e+11 2.14727e+11)
(-1.53019e+11 -1.24285e+11 1.62758e+11)
(-1.00276e+11 -7.03445e+10 1.31943e+11)
(-6.17562e+10 -3.07846e+10 8.95044e+10)
(-4.97759e+10 -5.65021e+09 5.31923e+10)
(-1.35794e+11 -1.05918e+11 1.30339e+11)
(-1.3184e+11 -9.43695e+10 1.3445e+11)
(-1.06066e+11 -8.19992e+10 1.98186e+11)
(-6.1528e+10 -3.51869e+10 1.11162e+11)
(-4.5938e+10 -1.13985e+10 5.4349e+10)
)
;
    }
}


// ************************************************************************* //
