/*--------------------------------*- C++ -*----------------------------------*\
| =========                 |                                                 |
| \\      /  F ield         | OpenFOAM: The Open Source CFD Toolbox           |
|  \\    /   O peration     | Version:  2.4.0                                 |
|   \\  /    A nd           | Web:      www.OpenFOAM.org                      |
|    \\/     M anipulation  |                                                 |
\*---------------------------------------------------------------------------*/
FoamFile
{
    version     2.0;
    format      ascii;
    class       volVectorField;
    location    "0.01";
    object      Uc;
}
// * * * * * * * * * * * * * * * * * * * * * * * * * * * * * * * * * * * * * //

dimensions      [0 1 -1 0 0 0 0];

internalField   nonuniform List<vector> 
200
(
(1.34228e-23 5.41776e-24 -6.29708e-25)
(2.82383e-25 1.14005e-25 -1.32692e-26)
(4.76818e-27 1.92532e-27 -2.24271e-28)
(6.84806e-29 2.7654e-29 -3.22296e-30)
(8.67801e-31 3.50459e-31 -4.08593e-32)
(9.94808e-33 4.01767e-33 -4.68534e-34)
(1.0502e-34 4.24149e-35 -4.94732e-36)
(1.03462e-36 4.17865e-37 -4.87474e-38)
(9.60926e-39 3.88106e-39 -4.52809e-40)
(8.48133e-41 3.42552e-41 -3.99696e-42)
(2.6397e-26 1.06536e-26 -1.23771e-27)
(5.89034e-28 2.37796e-28 -2.76684e-29)
(1.0548e-29 4.25897e-30 -4.95988e-31)
(1.60367e-31 6.47583e-32 -7.54595e-33)
(2.14611e-33 8.66687e-34 -1.01031e-34)
(2.59152e-35 1.04661e-35 -1.22041e-36)
(2.87479e-37 1.16105e-37 -1.35415e-38)
(2.96917e-39 1.1992e-39 -1.39887e-40)
(2.88495e-41 1.1652e-41 -1.35939e-42)
(2.65862e-43 1.0738e-43 -1.25288e-44)
(4.92682e-29 1.98826e-29 -2.30883e-30)
(1.16039e-30 4.68428e-31 -5.44847e-32)
(2.19289e-32 8.85392e-33 -1.03084e-33)
(3.51461e-34 1.4192e-34 -1.6534e-35)
(4.94968e-36 1.99884e-36 -2.32973e-37)
(6.27742e-38 2.53517e-38 -2.95579e-39)
(7.29877e-40 2.94776e-40 -3.43766e-41)
(7.88565e-42 3.18487e-42 -3.71487e-43)
(7.99991e-44 3.23108e-44 -3.76932e-45)
(7.68397e-46 3.10352e-46 -3.62093e-47)
(8.80129e-32 3.55152e-32 -4.12217e-33)
(2.17975e-33 8.7987e-34 -1.02305e-34)
(4.32955e-35 1.748e-35 -2.03461e-36)
(7.28788e-37 2.94276e-37 -3.42766e-38)
(1.07661e-38 4.34761e-39 -5.06646e-40)
(1.43004e-40 5.77519e-41 -6.73247e-42)
(1.73851e-42 7.02126e-43 -8.18726e-44)
(1.96063e-44 7.91857e-45 -9.23549e-46)
(2.07283e-46 8.37191e-47 -9.76581e-48)
(2.07161e-48 8.36713e-49 -9.76148e-50)
(8.26759e-26 3.33664e-26 -3.87622e-27)
(1.85492e-27 7.48816e-28 -8.71212e-29)
(3.32774e-29 1.3436e-29 -1.56458e-30)
(5.06008e-31 2.04325e-31 -2.38067e-32)
(6.76772e-33 2.73297e-33 -3.18555e-34)
(8.16535e-35 3.29752e-35 -3.84468e-36)
(9.04948e-37 3.65468e-37 -4.26202e-38)
(9.33807e-39 3.77131e-39 -4.39875e-40)
(9.06541e-41 3.66125e-41 -4.27091e-42)
(8.3475e-43 3.37134e-43 -3.93311e-44)
(1.73376e-28 6.99658e-29 -8.12435e-30)
(4.10869e-30 1.65856e-30 -1.92905e-31)
(7.78947e-32 3.14495e-32 -3.66136e-33)
(1.25001e-33 5.04739e-34 -5.87988e-35)
(1.76074e-35 7.11021e-36 -8.28654e-37)
(2.23226e-37 9.01478e-38 -1.05095e-38)
(2.59386e-39 1.04754e-39 -1.22152e-40)
(2.80038e-41 1.13098e-41 -1.31906e-42)
(2.83879e-43 1.14651e-43 -1.33737e-44)
(2.7246e-45 1.10041e-45 -1.28373e-46)
(3.43761e-31 1.38713e-31 -1.60997e-32)
(8.56656e-33 3.45788e-33 -4.02046e-34)
(1.70847e-34 6.89757e-35 -8.02818e-36)
(2.8821e-36 1.16373e-36 -1.35541e-37)
(4.2616e-38 1.72088e-38 -2.00529e-39)
(5.66172e-40 2.2864e-40 -2.6652e-41)
(6.88145e-42 2.77909e-42 -3.24036e-43)
(7.75712e-44 3.13283e-44 -3.65354e-45)
(8.19631e-46 3.31028e-46 -3.86109e-47)
(8.18627e-48 3.30628e-48 -3.85692e-49)
(6.50145e-34 2.62321e-34 -3.04318e-35)
(1.69807e-35 6.85383e-36 -7.96609e-37)
(3.54915e-37 1.43283e-37 -1.66724e-38)
(6.27214e-39 2.53247e-39 -2.94899e-40)
(9.70612e-41 3.91935e-41 -4.56635e-42)
(1.34776e-42 5.44263e-43 -6.34349e-44)
(1.70958e-44 6.90411e-45 -8.04917e-46)
(2.00814e-46 8.11011e-47 -9.45729e-48)
(2.20772e-48 8.91639e-49 -1.03993e-49)
(2.29098e-50 9.25283e-51 -1.07932e-51)
(2.72174e-28 1.09832e-28 -1.27529e-29)
(6.48751e-30 2.61874e-30 -3.04558e-31)
(1.23238e-31 4.97548e-32 -5.79195e-33)
(1.9781e-33 7.98703e-34 -9.30344e-35)
(2.78491e-35 1.12455e-35 -1.31046e-36)
(3.52796e-37 1.42467e-37 -1.6607e-38)
(4.09597e-39 1.6541e-39 -1.9286e-40)
(4.41848e-41 1.78438e-41 -2.08087e-42)
(4.47569e-43 1.80752e-43 -2.10815e-44)
(4.29267e-45 1.73363e-45 -2.02218e-46)
(6.0634e-31 2.44662e-31 -2.83956e-32)
(1.5209e-32 6.13895e-33 -7.13735e-34)
(3.04355e-34 1.22873e-34 -1.43004e-35)
(5.14141e-36 2.07592e-36 -2.41766e-37)
(7.60452e-38 3.07068e-38 -3.57786e-39)
(1.01003e-39 4.07869e-40 -4.75397e-41)
(1.22698e-41 4.95499e-42 -5.77684e-43)
(1.38224e-43 5.58216e-44 -6.50931e-45)
(1.45954e-45 5.89444e-46 -6.87453e-47)
(1.4568e-47 5.88347e-48 -6.86258e-49)
(1.27287e-33 5.1357e-34 -5.95776e-35)
(3.34631e-35 1.35062e-35 -1.56976e-36)
(7.02418e-37 2.83566e-37 -3.29944e-38)
(1.24422e-38 5.02358e-39 -5.84947e-40)
(1.92746e-40 7.7829e-41 -9.06706e-42)
(2.67722e-42 1.0811e-42 -1.25995e-43)
(3.39555e-44 1.37124e-44 -1.59853e-45)
(3.98714e-46 1.6102e-46 -1.87751e-47)
(4.38136e-48 1.76945e-48 -2.06355e-49)
(4.54421e-50 1.83525e-50 -2.14058e-51)
(2.5411e-36 1.02518e-36 -1.18871e-37)
(6.981e-38 2.81748e-38 -3.27345e-39)
(1.53173e-39 6.18332e-40 -7.19269e-41)
(2.83574e-41 1.14491e-41 -1.33286e-42)
(4.58795e-43 1.85253e-43 -2.15785e-44)
(6.64796e-45 2.68451e-45 -3.12822e-46)
(8.78439e-47 3.54741e-47 -4.13499e-48)
(1.07315e-48 4.33387e-49 -5.05291e-50)
(1.22519e-50 4.94804e-51 -5.77007e-52)
(1.31848e-52 5.32491e-53 -6.21048e-54)
(6.35102e-31 2.5626e-31 -2.97399e-32)
(1.60269e-32 6.46885e-33 -7.52032e-34)
(3.21377e-34 1.2974e-34 -1.50982e-35)
(5.43014e-36 2.1924e-36 -2.55305e-37)
(8.02731e-38 3.24126e-38 -3.77618e-39)
(1.06533e-39 4.30181e-40 -5.01345e-41)
(1.29305e-41 5.22157e-42 -6.08688e-43)
(1.45547e-43 5.87761e-44 -6.85297e-45)
(1.5357e-45 6.20171e-46 -7.23195e-47)
(1.53176e-47 6.18588e-48 -7.21436e-49)
(1.4979e-33 6.04347e-34 -7.01055e-35)
(3.96463e-35 1.60014e-35 -1.85966e-36)
(8.35125e-37 3.37129e-37 -3.9224e-38)
(1.48137e-38 5.98089e-39 -6.96359e-40)
(2.29551e-40 9.2687e-41 -1.0797e-41)
(3.18758e-42 1.28714e-42 -1.49993e-43)
(4.0407e-44 1.63171e-44 -1.90198e-45)
(4.7417e-46 1.91485e-46 -2.23249e-47)
(5.20712e-48 2.10285e-48 -2.45209e-49)
(5.39716e-50 2.17963e-50 -2.54197e-51)
(3.3191e-36 1.33903e-36 -1.55258e-37)
(9.18003e-38 3.70491e-38 -4.30436e-39)
(2.02311e-39 8.16674e-40 -9.49943e-41)
(3.75437e-41 1.51575e-41 -1.76448e-42)
(6.08074e-43 2.45521e-43 -2.85965e-44)
(8.81378e-45 3.55898e-45 -4.14688e-46)
(1.16449e-46 4.7024e-47 -5.48083e-48)
(1.42211e-48 5.74294e-49 -6.69516e-50)
(1.62285e-50 6.55378e-51 -7.64185e-52)
(1.74552e-52 7.0493e-53 -8.22085e-54)
(6.97498e-39 2.81369e-39 -3.2609e-40)
(2.0106e-40 8.11398e-41 -9.42352e-42)
(4.6207e-42 1.86517e-42 -2.16897e-43)
(8.94321e-44 3.61054e-44 -4.20216e-45)
(1.50991e-45 6.09642e-46 -7.09955e-47)
(2.27916e-47 9.20307e-48 -1.0722e-48)
(3.13225e-49 1.26485e-49 -1.47408e-50)
(3.97388e-51 1.60477e-51 -1.87071e-52)
(4.7051e-53 1.90012e-53 -2.21544e-54)
(5.24429e-55 2.11792e-55 -2.46978e-56)
(1.17912e-33 4.75717e-34 -5.50084e-35)
(3.14067e-35 1.26754e-35 -1.46815e-36)
(6.62988e-37 2.67629e-37 -3.10272e-38)
(1.17636e-38 4.74921e-39 -5.50892e-40)
(1.82198e-40 7.35635e-41 -8.53593e-42)
(2.52812e-42 1.02081e-42 -1.18472e-43)
(3.20218e-44 1.29303e-44 -1.50082e-45)
(3.75483e-46 1.51624e-46 -1.75997e-47)
(4.12052e-48 1.66394e-48 -1.93142e-49)
(4.26826e-50 1.72363e-50 -2.00063e-51)
(2.93538e-36 1.1842e-36 -1.36849e-37)
(8.17619e-38 3.29968e-38 -3.82012e-39)
(1.80847e-39 7.30006e-40 -8.46001e-41)
(3.36109e-41 1.35692e-41 -1.57348e-42)
(5.44572e-43 2.19873e-43 -2.55057e-44)
(7.8917e-45 3.18651e-45 -3.69726e-46)
(1.04218e-46 4.2083e-47 -4.88345e-48)
(1.27201e-48 5.13657e-49 -5.96103e-50)
(1.45072e-50 5.85834e-51 -6.79875e-52)
(1.55947e-52 6.29765e-53 -7.30843e-54)
(6.84709e-39 2.76204e-39 -3.18989e-40)
(1.9876e-40 8.02098e-41 -9.28151e-42)
(4.58877e-42 1.85224e-42 -2.14568e-43)
(8.90354e-44 3.59442e-44 -4.16663e-45)
(1.50496e-45 6.07624e-46 -7.04644e-47)
(2.27257e-47 9.17613e-48 -1.0644e-48)
(3.12305e-49 1.26108e-49 -1.46305e-50)
(3.96111e-51 1.59956e-51 -1.85588e-52)
(4.68816e-53 1.89321e-53 -2.19665e-54)
(5.22311e-55 2.10928e-55 -2.44734e-56)
(1.511e-41 6.09473e-42 -7.03436e-43)
(4.56036e-43 1.84023e-43 -2.12833e-44)
(1.09556e-44 4.422e-45 -5.12038e-46)
(2.21275e-46 8.93277e-47 -1.03511e-47)
(3.892e-48 1.57136e-48 -1.82168e-49)
(6.11072e-50 2.46734e-50 -2.86123e-51)
(8.72215e-52 3.52197e-52 -4.08495e-53)
(1.14771e-53 4.63462e-54 -5.376e-55)
(1.4076e-55 5.68427e-56 -6.59387e-57)
(1.62318e-57 6.55504e-58 -7.60403e-59)
)
;

boundaryField
{
    inlet
    {
        type            calculated;
        value           nonuniform 0();
    }
    outlet
    {
        type            calculated;
        value           nonuniform 0();
    }
    bottom
    {
        type            calculated;
        value           uniform (0 0 0);
    }
    top
    {
        type            symmetryPlane;
    }
    side1
    {
        type            symmetryPlane;
    }
    side2
    {
        type            symmetryPlane;
    }
    procBoundary20to12
    {
        type            processor;
        value           nonuniform List<vector> 
50
(
(6.47488e-21 2.61359e-21 -3.03899e-22)
(1.27049e-22 5.12952e-23 -5.9719e-24)
(2.00622e-24 8.10103e-25 -9.43833e-26)
(2.70536e-26 1.0925e-26 -1.27346e-27)
(3.2315e-28 1.30504e-28 -1.5217e-29)
(3.50409e-30 1.41517e-30 -1.6505e-31)
(3.51004e-32 1.41761e-32 -1.65363e-33)
(3.29024e-34 1.32885e-34 -1.55029e-35)
(2.91483e-36 1.17724e-36 -1.37355e-37)
(2.45945e-38 9.93328e-39 -1.15905e-39)
(3.72967e-23 1.50532e-23 -1.74943e-24)
(7.83669e-25 3.16373e-25 -3.68182e-26)
(1.31943e-26 5.32742e-27 -6.20482e-28)
(1.88979e-28 7.63101e-29 -8.89245e-30)
(2.38937e-30 9.64889e-31 -1.12479e-31)
(2.73409e-32 1.10414e-32 -1.28746e-33)
(2.88212e-34 1.16395e-34 -1.35746e-35)
(2.836e-36 1.14534e-36 -1.33595e-37)
(2.63141e-38 1.06273e-38 -1.23973e-39)
(2.32068e-40 9.37241e-41 -1.09343e-41)
(1.15298e-25 4.65299e-26 -5.40478e-27)
(2.58304e-27 1.0427e-27 -1.21297e-28)
(4.61949e-29 1.86505e-29 -2.1715e-30)
(7.00411e-31 2.82809e-31 -3.29465e-32)
(9.34609e-33 3.77397e-33 -4.39831e-34)
(1.12557e-34 4.54529e-35 -5.29874e-36)
(1.24568e-36 5.03045e-37 -5.86557e-38)
(1.28397e-38 5.18517e-39 -6.04694e-40)
(1.24536e-40 5.02932e-41 -5.86591e-42)
(1.14594e-42 4.62784e-43 -5.39815e-44)
(2.53578e-28 1.02323e-28 -1.18794e-29)
(6.03366e-30 2.43541e-30 -2.83196e-31)
(1.14225e-31 4.61132e-32 -5.36724e-33)
(1.82778e-33 7.37964e-34 -8.59466e-35)
(2.56696e-35 1.03648e-35 -1.20765e-36)
(3.24566e-37 1.31059e-37 -1.5275e-38)
(3.76269e-39 1.51942e-39 -1.7713e-40)
(4.0543e-41 1.63721e-41 -1.90895e-42)
(4.10307e-43 1.65693e-43 -1.93221e-44)
(3.93255e-45 1.58808e-45 -1.85212e-46)
(4.45159e-31 1.7961e-31 -2.07797e-32)
(1.1212e-32 4.52516e-33 -5.24343e-34)
(2.24015e-34 9.04292e-35 -1.04872e-35)
(3.77295e-36 1.52323e-36 -1.76739e-37)
(5.5635e-38 2.24628e-38 -2.60712e-39)
(7.36936e-40 2.97557e-40 -3.45414e-41)
(8.93164e-42 3.60652e-42 -4.18693e-43)
(1.00424e-43 4.05514e-44 -4.70788e-45)
(1.05869e-45 4.27509e-46 -4.96315e-47)
(1.05531e-47 4.26148e-48 -4.94712e-49)
)
;
    }
    procBoundary20to19
    {
        type            processor;
        value           nonuniform List<vector> 
20
(
(4.66838e-22 1.88327e-22 -2.18283e-23)
(8.6368e-25 3.48375e-25 -4.03519e-26)
(1.52181e-27 6.13761e-28 -7.10437e-29)
(2.57422e-30 1.03808e-30 -1.20078e-31)
(2.69094e-24 1.08539e-24 -1.25711e-25)
(5.33292e-27 2.15077e-27 -2.48941e-28)
(1.0021e-29 4.041e-30 -4.67414e-31)
(1.80069e-32 7.26043e-33 -8.39237e-34)
(8.3245e-27 3.35718e-27 -3.88548e-28)
(1.75962e-29 7.09551e-30 -8.20673e-31)
(3.5129e-32 1.41638e-32 -1.63711e-33)
(6.68327e-35 2.69432e-35 -3.11215e-36)
(1.8321e-29 7.38755e-30 -8.54384e-31)
(4.11457e-32 1.65892e-32 -1.91733e-33)
(8.69725e-35 3.50616e-35 -4.04967e-36)
(1.74652e-37 7.03997e-38 -8.12591e-39)
(3.21854e-32 1.29761e-32 -1.49517e-33)
(7.65393e-35 3.08547e-35 -3.55236e-36)
(1.70786e-37 6.88396e-38 -7.91918e-39)
(3.61033e-40 1.45507e-40 -1.67251e-41)
)
;
    }
    procBoundary20to21
    {
        type            processor;
        value           nonuniform List<vector> 
20
(
(6.96798e-43 2.81433e-43 -3.2841e-44)
(2.29015e-45 9.2499e-46 -1.07936e-46)
(6.92214e-48 2.79586e-48 -3.26231e-49)
(1.94612e-50 7.86041e-51 -9.17135e-52)
(7.13828e-45 2.88301e-45 -3.36373e-46)
(2.43941e-47 9.8524e-48 -1.1495e-48)
(7.65471e-50 3.09164e-50 -3.60694e-51)
(2.23108e-52 9.01107e-53 -1.05125e-53)
(3.8154e-47 1.5409e-47 -1.79757e-48)
(1.35388e-49 5.46792e-50 -6.37859e-51)
(4.40511e-52 1.77911e-52 -2.07535e-53)
(1.32956e-54 5.36976e-55 -6.2636e-56)
(1.41307e-49 5.70668e-50 -6.65626e-51)
(5.19966e-52 2.09991e-52 -2.44929e-53)
(1.75205e-54 7.07582e-55 -8.25285e-56)
(5.46968e-57 2.20899e-57 -2.57634e-58)
(4.08174e-52 1.64834e-52 -1.91318e-53)
(1.55565e-54 6.28234e-55 -7.29043e-56)
(5.42255e-57 2.18987e-57 -2.54079e-58)
(1.74922e-59 7.06419e-60 -8.19454e-61)
)
;
    }
    procBoundary20to28
    {
        type            processor;
        value           nonuniform List<vector> 
50
(
(1.41213e-34 5.69789e-35 -6.6111e-36)
(3.74396e-36 1.51122e-36 -1.75674e-37)
(7.9143e-38 3.1952e-38 -3.71845e-39)
(1.40854e-39 5.68741e-40 -6.62358e-41)
(2.1893e-41 8.84075e-42 -1.03012e-42)
(3.04864e-43 1.23117e-43 -1.43509e-44)
(3.87465e-45 1.56482e-45 -1.82452e-46)
(4.55782e-47 1.8408e-47 -2.14676e-48)
(5.01638e-49 2.02605e-49 -2.36322e-50)
(5.21013e-51 2.10435e-51 -2.45489e-52)
(1.09819e-36 4.43074e-37 -5.13834e-38)
(3.06436e-38 1.23681e-38 -1.43721e-39)
(6.80264e-40 2.74622e-40 -3.19497e-41)
(1.26855e-41 5.12187e-42 -5.96342e-43)
(2.06156e-43 8.32449e-44 -9.6975e-45)
(2.99572e-45 1.20974e-45 -1.40983e-46)
(3.96603e-47 1.60166e-47 -1.86713e-48)
(4.85175e-49 1.95943e-49 -2.28474e-50)
(5.54487e-51 2.23942e-51 -2.6117e-52)
(5.97176e-53 2.41188e-53 -2.81325e-54)
(4.50796e-39 1.81858e-39 -2.10798e-40)
(1.32066e-40 5.3299e-41 -6.19119e-42)
(3.07206e-42 1.24011e-42 -1.44231e-43)
(5.99063e-44 2.41862e-44 -2.8153e-45)
(1.01609e-45 4.10272e-46 -4.77833e-47)
(1.53827e-47 6.21161e-48 -7.23756e-49)
(2.11821e-49 8.55394e-50 -9.96994e-51)
(2.69114e-51 1.0868e-51 -1.26703e-52)
(3.18968e-53 1.28818e-53 -1.50209e-54)
(3.55803e-55 1.43697e-55 -1.67587e-56)
(1.29658e-41 5.2301e-42 -6.0594e-43)
(3.97898e-43 1.6057e-43 -1.86448e-44)
(9.67841e-45 3.90666e-45 -4.54228e-46)
(1.96984e-46 7.95247e-47 -9.25435e-48)
(3.481e-48 1.40548e-48 -1.63656e-49)
(5.48161e-50 2.21341e-50 -2.57847e-51)
(7.83955e-52 3.1657e-52 -3.68908e-53)
(1.03298e-53 4.1715e-54 -4.86244e-55)
(1.26817e-55 5.1214e-56 -5.97095e-57)
(1.46347e-57 5.91029e-58 -6.89188e-59)
(2.93729e-44 1.18471e-44 -1.36671e-45)
(9.42332e-46 3.80246e-46 -4.39624e-47)
(2.39238e-47 9.65614e-48 -1.11777e-48)
(5.07354e-49 2.04813e-49 -2.37264e-50)
(9.3268e-51 3.76556e-51 -4.36426e-52)
(1.52555e-52 6.15972e-53 -7.14125e-54)
(2.26304e-54 9.13803e-55 -1.05962e-55)
(3.08896e-56 1.24736e-56 -1.44657e-57)
(3.92361e-58 1.58446e-58 -1.83761e-59)
(4.67944e-60 1.88975e-60 -2.19171e-61)
)
;
    }
}


// ************************************************************************* //
