/*--------------------------------*- C++ -*----------------------------------*\
| =========                 |                                                 |
| \\      /  F ield         | OpenFOAM: The Open Source CFD Toolbox           |
|  \\    /   O peration     | Version:  2.4.0                                 |
|   \\  /    A nd           | Web:      www.OpenFOAM.org                      |
|    \\/     M anipulation  |                                                 |
\*---------------------------------------------------------------------------*/
FoamFile
{
    version     2.0;
    format      ascii;
    class       volVectorField;
    location    "0.11";
    object      A_Source;
}
// * * * * * * * * * * * * * * * * * * * * * * * * * * * * * * * * * * * * * //

dimensions      [1 -2 -2 0 0 0 0];

internalField   nonuniform List<vector> 
200
(
(6.86015e-05 4.74039e-05 -9.42907e-05)
(4.21466e-07 2.90621e-07 -5.79293e-07)
(2.522e-09 1.73537e-09 -3.46641e-09)
(1.47502e-11 1.01281e-11 -2.02737e-11)
(8.45582e-14 5.7939e-14 -1.16223e-13)
(4.76247e-16 3.25636e-16 -6.54588e-16)
(2.64043e-18 1.8016e-18 -3.6292e-18)
(1.44343e-20 9.82798e-21 -1.98396e-20)
(7.7912e-23 5.29365e-23 -1.07088e-22)
(4.15728e-25 2.81867e-25 -5.71406e-25)
(1.1493e-06 8.06845e-07 -1.57968e-06)
(7.49806e-09 5.25831e-09 -1.03059e-08)
(4.74802e-11 3.32622e-11 -6.52601e-11)
(2.92958e-13 2.05015e-13 -4.02662e-13)
(1.76685e-15 1.23516e-15 -2.42848e-15)
(1.0443e-17 7.29276e-18 -1.43537e-17)
(6.06227e-20 4.22904e-20 -8.33241e-20)
(3.46278e-22 2.41309e-22 -4.75948e-22)
(1.9493e-24 1.35696e-24 -2.67925e-24)
(1.08287e-26 7.53021e-27 -1.48837e-26)
(1.02832e-08 7.25732e-09 -1.4134e-08)
(7.10191e-11 5.0086e-11 -9.76136e-11)
(4.74602e-13 3.34477e-13 -6.52327e-13)
(3.08185e-15 2.17041e-15 -4.23591e-15)
(1.95123e-17 1.3732e-17 -2.6819e-17)
(1.20796e-19 8.49519e-20 -1.66031e-19)
(7.32961e-22 5.15105e-22 -1.00743e-21)
(4.36787e-24 3.06746e-24 -6.00351e-24)
(2.56076e-26 1.7971e-26 -3.51968e-26)
(1.47916e-28 1.03732e-28 -2.03306e-28)
(6.50323e-11 4.60174e-11 -8.9385e-11)
(4.74027e-13 3.35248e-13 -6.51536e-13)
(3.33413e-15 2.35677e-15 -4.58266e-15)
(2.27302e-17 1.60586e-17 -3.1242e-17)
(1.50749e-19 1.06446e-19 -2.072e-19)
(9.75566e-22 6.885e-22 -1.34089e-21)
(6.1762e-24 4.35652e-24 -8.489e-24)
(3.83347e-26 2.7026e-26 -5.26899e-26)
(2.33711e-28 1.64679e-28 -3.21228e-28)
(1.40174e-30 9.87189e-31 -1.92666e-30)
(4.51422e-07 3.11279e-07 -6.20466e-07)
(2.94603e-09 2.02716e-09 -4.04923e-09)
(1.86612e-11 1.28137e-11 -2.56493e-11)
(1.15179e-13 7.89212e-14 -1.58311e-13)
(6.94881e-16 4.75131e-16 -9.55093e-16)
(4.10846e-18 2.80328e-18 -5.64696e-18)
(2.38577e-20 1.62443e-20 -3.27917e-20)
(1.3632e-22 9.26222e-23 -1.87368e-22)
(7.67636e-25 5.20469e-25 -1.05509e-24)
(4.26573e-27 2.88614e-27 -5.86313e-27)
(8.02961e-09 5.6311e-09 -1.10365e-08)
(5.54534e-11 3.8848e-11 -7.6219e-11)
(3.7057e-13 2.5933e-13 -5.09338e-13)
(2.40625e-15 1.68215e-15 -3.30732e-15)
(1.52344e-17 1.06388e-17 -2.09392e-17)
(9.43101e-20 6.5791e-20 -1.29626e-19)
(5.72235e-22 3.98773e-22 -7.86521e-22)
(3.40998e-24 2.3738e-24 -4.68691e-24)
(1.99912e-26 1.39019e-26 -2.74773e-26)
(1.15471e-28 8.0214e-29 -1.58712e-28)
(7.60408e-11 5.36277e-11 -1.04516e-10)
(5.54203e-13 3.90577e-13 -7.61736e-13)
(3.89761e-15 2.74492e-15 -5.35715e-15)
(2.65686e-17 1.8698e-17 -3.65178e-17)
(1.76185e-19 1.23906e-19 -2.42162e-19)
(1.14005e-21 8.01196e-22 -1.56696e-21)
(7.21668e-24 5.06814e-24 -9.91911e-24)
(4.47877e-26 3.14314e-26 -6.15594e-26)
(2.73021e-28 1.91468e-28 -3.75259e-28)
(1.63733e-30 1.14744e-30 -2.25046e-30)
(5.07458e-13 3.58893e-13 -6.97486e-13)
(3.89265e-15 2.75157e-15 -5.35033e-15)
(2.87417e-17 2.03057e-17 -3.95046e-17)
(2.05228e-19 1.44915e-19 -2.82079e-19)
(1.42263e-21 1.00402e-21 -1.95537e-21)
(9.60464e-24 6.77487e-24 -1.32013e-23)
(6.33254e-26 4.46445e-26 -8.70388e-26)
(4.08682e-28 2.8797e-28 -5.61722e-28)
(2.58683e-30 1.8218e-30 -3.55552e-30)
(1.60863e-32 1.1323e-32 -2.21101e-32)
(1.58135e-09 1.08813e-09 -2.17352e-09)
(1.0926e-11 7.50234e-12 -1.50175e-11)
(7.30473e-14 5.00523e-14 -1.00401e-13)
(4.74542e-16 3.24473e-16 -6.52243e-16)
(3.0058e-18 2.05092e-18 -4.13138e-18)
(1.86163e-20 1.26755e-20 -2.55876e-20)
(1.13009e-22 7.67837e-23 -1.55327e-22)
(6.73738e-25 4.56806e-25 -9.26033e-25)
(3.95166e-27 2.67365e-27 -5.43145e-27)
(2.28358e-29 1.54179e-29 -3.13871e-29)
(2.97649e-11 2.08519e-11 -4.0911e-11)
(2.16957e-13 1.5183e-13 -2.98201e-13)
(1.52599e-15 1.06678e-15 -2.09742e-15)
(1.04033e-17 7.26502e-18 -1.4299e-17)
(6.89951e-20 4.81313e-20 -9.48318e-20)
(4.46497e-22 3.1115e-22 -6.13697e-22)
(2.82671e-24 1.96777e-24 -3.88524e-24)
(1.75449e-26 1.22008e-26 -2.4115e-26)
(1.06964e-28 7.43043e-29 -1.47019e-28)
(6.41543e-31 4.4519e-31 -8.81782e-31)
(2.97462e-13 2.09637e-13 -4.08852e-13)
(2.28184e-15 1.60701e-15 -3.13632e-15)
(1.68485e-17 1.18574e-17 -2.31578e-17)
(1.20308e-19 8.4609e-20 -1.6536e-19)
(8.33992e-22 5.86109e-22 -1.1463e-21)
(5.63066e-24 3.95431e-24 -7.73918e-24)
(3.7125e-26 2.60539e-26 -5.10272e-26)
(2.39599e-28 1.68029e-28 -3.29322e-28)
(1.51662e-30 1.06285e-30 -2.08455e-30)
(9.43138e-33 6.60488e-33 -1.29631e-32)
(2.08926e-15 1.47682e-15 -2.87163e-15)
(1.6826e-17 1.18875e-17 -2.31269e-17)
(1.3014e-19 9.18941e-20 -1.78873e-19)
(9.71399e-22 6.85562e-22 -1.33516e-21)
(7.02586e-24 4.95586e-24 -9.65683e-24)
(4.94058e-26 3.48312e-26 -6.79068e-26)
(3.38743e-28 2.38689e-28 -4.65593e-28)
(2.27004e-30 1.5987e-30 -3.1201e-30)
(1.48995e-32 1.04876e-32 -2.0479e-32)
(9.59545e-35 6.75057e-35 -1.31887e-34)
(3.9123e-12 2.68638e-12 -5.37734e-12)
(2.85309e-14 1.95495e-14 -3.92149e-14)
(2.00774e-16 1.37282e-16 -2.75958e-16)
(1.36944e-18 9.34395e-19 -1.88225e-18)
(9.08672e-21 6.187e-21 -1.24894e-20)
(5.88334e-23 3.99743e-23 -8.08648e-23)
(3.72652e-25 2.52665e-25 -5.122e-25)
(2.31414e-27 1.56573e-27 -3.18072e-27)
(1.41154e-29 9.5302e-30 -1.94012e-29)
(8.4703e-32 5.7068e-32 -1.16422e-31)
(7.76864e-14 5.43661e-14 -1.06778e-13)
(5.96021e-16 4.16664e-16 -8.19213e-16)
(4.40149e-18 3.07374e-18 -6.04972e-18)
(3.14337e-20 2.19283e-20 -4.32047e-20)
(2.17935e-22 1.51872e-22 -2.99545e-22)
(1.47159e-24 1.02443e-24 -2.02266e-24)
(9.70414e-27 6.74827e-27 -1.33381e-26)
(6.26381e-29 4.35128e-29 -8.60943e-29)
(3.96546e-31 2.75178e-31 -5.45041e-31)
(2.46636e-33 1.70969e-33 -3.38994e-33)
(8.17064e-16 5.75425e-16 -1.12303e-15)
(6.58067e-18 4.63124e-18 -9.04493e-18)
(5.09005e-20 3.57967e-20 -6.99612e-20)
(3.79957e-22 2.67025e-22 -5.2224e-22)
(2.74828e-24 1.93007e-24 -3.77743e-24)
(1.9327e-26 1.35635e-26 -2.65644e-26)
(1.3252e-28 9.29358e-29 -1.82145e-28)
(8.88116e-31 6.22394e-31 -1.22069e-30)
(5.82955e-33 4.08249e-33 -8.01254e-33)
(3.75451e-35 2.62747e-35 -5.16046e-35)
(6.02495e-18 4.25658e-18 -8.28112e-18)
(5.08296e-20 3.58917e-20 -6.98638e-20)
(4.10981e-22 2.90048e-22 -5.64881e-22)
(3.20086e-24 2.25781e-24 -4.39949e-24)
(2.41142e-26 1.70006e-26 -3.31443e-26)
(1.76344e-28 1.24258e-28 -2.4238e-28)
(1.25552e-30 8.84211e-31 -1.72567e-30)
(8.72485e-33 6.14133e-33 -1.1992e-32)
(5.93085e-35 4.17246e-35 -8.15178e-35)
(3.95105e-37 2.77817e-37 -5.4306e-37)
(7.67689e-15 5.26021e-15 -1.05169e-14)
(5.89329e-17 4.02958e-17 -8.07214e-17)
(4.35465e-19 2.97125e-19 -5.96365e-19)
(3.11177e-21 2.11874e-21 -4.26083e-21)
(2.15871e-23 1.46673e-23 -2.95536e-23)
(1.45853e-25 9.88903e-26 -1.99645e-25)
(9.62372e-28 6.51128e-28 -1.31709e-27)
(6.2156e-30 4.19654e-30 -8.5052e-30)
(3.93729e-32 2.65271e-32 -5.38675e-32)
(2.4503e-34 1.64739e-34 -3.35179e-34)
(1.60388e-16 1.12123e-16 -2.19686e-16)
(1.29208e-18 9.02309e-19 -1.76949e-18)
(9.99643e-21 6.97354e-21 -1.36878e-20)
(7.46385e-23 5.20132e-23 -1.02183e-22)
(5.4e-25 3.75912e-25 -7.39161e-25)
(3.79841e-27 2.64142e-27 -5.19848e-27)
(2.60511e-29 1.80968e-29 -3.56474e-29)
(1.7463e-31 1.21182e-31 -2.38918e-31)
(1.14654e-33 7.94785e-34 -1.56837e-33)
(7.38605e-36 5.11464e-36 -1.01018e-35)
(1.77101e-18 1.24637e-18 -2.42539e-18)
(1.49435e-20 1.05093e-20 -2.04616e-20)
(1.20843e-22 8.49254e-23 -1.65439e-22)
(9.41313e-25 6.61066e-25 -1.28849e-24)
(7.09262e-27 4.97751e-27 -9.7069e-27)
(5.18755e-29 3.638e-29 -7.09847e-29)
(3.69394e-31 2.58872e-31 -5.05384e-31)
(2.56739e-33 1.79797e-33 -3.51198e-33)
(1.74549e-35 1.22153e-35 -2.3873e-35)
(1.163e-37 8.13316e-38 -1.59037e-37)
(1.36808e-20 9.66025e-21 -1.87327e-20)
(1.20668e-22 8.51607e-23 -1.65199e-22)
(1.01811e-24 7.18146e-25 -1.3936e-24)
(8.26006e-27 5.82337e-27 -1.13047e-26)
(6.47202e-29 4.56038e-29 -8.8561e-29)
(4.91516e-31 3.46155e-31 -6.72463e-31)
(3.62921e-33 2.55456e-33 -4.96446e-33)
(2.61221e-35 1.83773e-35 -3.57269e-35)
(1.83701e-37 1.29168e-37 -2.51204e-37)
(1.26464e-39 8.88758e-40 -1.72907e-39)
)
;

boundaryField
{
    inlet
    {
        type            zeroGradient;
    }
    outlet
    {
        type            zeroGradient;
    }
    bottom
    {
        type            zeroGradient;
    }
    top
    {
        type            symmetryPlane;
    }
    side1
    {
        type            symmetryPlane;
    }
    side2
    {
        type            symmetryPlane;
    }
    procBoundary1to0
    {
        type            processor;
        value           nonuniform List<vector> 
20
(
(0.0108283 0.00749818 -0.0148832)
(0.000170169 0.000119589 -0.000233892)
(1.43331e-06 1.01226e-06 -1.97005e-06)
(8.56204e-09 6.06177e-09 -1.17683e-08)
(6.68174e-05 4.61713e-05 -9.18385e-05)
(1.11923e-06 7.85735e-07 -1.53835e-06)
(1.00125e-08 7.0663e-09 -1.37619e-08)
(6.33106e-11 4.47991e-11 -8.70185e-11)
(2.20321e-07 1.51923e-07 -3.02825e-07)
(3.91882e-09 2.74824e-09 -5.38631e-09)
(3.71106e-11 2.61722e-11 -5.10074e-11)
(2.47652e-13 1.75149e-13 -3.40391e-13)
(5.1484e-10 3.54261e-10 -7.07632e-10)
(9.6906e-12 6.78878e-12 -1.33194e-11)
(9.68461e-14 6.82527e-14 -1.33112e-13)
(6.80222e-16 4.80824e-16 -9.34944e-16)
(9.5706e-13 6.57163e-13 -1.31133e-12)
(1.90062e-14 1.33008e-14 -2.60374e-14)
(1.99919e-16 1.40794e-16 -2.73832e-16)
(1.47434e-18 1.04161e-18 -2.01911e-18)
)
;
    }
    procBoundary1to2
    {
        type            processor;
        value           nonuniform List<vector> 
20
(
(2.1127e-27 1.42947e-27 -2.90384e-27)
(5.71583e-29 3.97066e-29 -7.85625e-29)
(8.1007e-31 5.67703e-31 -1.11342e-30)
(7.95504e-33 5.5995e-33 -1.0934e-32)
(2.25232e-29 1.52074e-29 -3.09575e-29)
(6.32365e-31 4.38829e-31 -8.69167e-31)
(9.29095e-33 6.50661e-33 -1.27701e-32)
(9.44735e-35 6.64644e-35 -1.29851e-34)
(1.25112e-31 8.42963e-32 -1.71963e-31)
(3.64077e-33 2.52385e-33 -5.00413e-33)
(5.53907e-35 3.87639e-35 -7.61329e-35)
(5.82584e-37 4.09646e-37 -8.00745e-37)
(4.80914e-34 3.23341e-34 -6.61002e-34)
(1.44869e-35 1.0032e-35 -1.99118e-35)
(2.27965e-37 1.59424e-37 -3.13331e-37)
(2.47737e-39 1.74106e-39 -3.40508e-39)
(1.44006e-36 9.66175e-37 -1.96955e-36)
(4.48565e-38 3.10297e-38 -6.13399e-38)
(7.29328e-40 5.09685e-40 -9.9717e-40)
(8.18156e-42 5.74682e-42 -1.11844e-41)
)
;
    }
    procBoundary1to9
    {
        type            processor;
        value           nonuniform List<vector> 
50
(
(2.04313e-13 1.44885e-13 -2.80823e-13)
(1.54938e-15 1.09807e-15 -2.12958e-15)
(1.17814e-17 8.34438e-18 -1.61932e-17)
(8.78157e-20 6.21597e-20 -1.207e-19)
(6.36316e-22 4.5016e-22 -8.74597e-22)
(4.47558e-24 3.16458e-24 -6.15155e-24)
(3.0596e-26 2.16231e-26 -4.20533e-26)
(2.03749e-28 1.43927e-28 -2.80047e-28)
(1.32493e-30 9.35492e-31 -1.82107e-30)
(8.43213e-33 5.95103e-33 -1.15897e-32)
(1.65718e-15 1.17471e-15 -2.27775e-15)
(1.32053e-17 9.35499e-18 -1.81503e-17)
(1.05363e-19 7.45941e-20 -1.44818e-19)
(8.22356e-22 5.8185e-22 -1.1303e-21)
(6.22602e-24 4.40268e-24 -8.55748e-24)
(4.56612e-26 3.22719e-26 -6.27599e-26)
(3.24871e-28 2.29495e-28 -4.46526e-28)
(2.2478e-30 1.58713e-30 -3.08953e-30)
(1.51636e-32 1.07019e-32 -2.08419e-32)
(9.99747e-35 7.05267e-35 -1.37412e-34)
(7.08236e-18 5.01845e-18 -9.73449e-18)
(5.91684e-20 4.18997e-20 -8.13252e-20)
(4.94334e-22 3.49829e-22 -6.79447e-22)
(4.03236e-24 2.85184e-24 -5.54236e-24)
(3.18428e-26 2.25076e-26 -4.3767e-26)
(2.43125e-28 1.71758e-28 -3.34168e-28)
(1.79774e-30 1.2694e-30 -2.47094e-30)
(1.2907e-32 9.10943e-33 -1.77403e-32)
(9.02212e-35 6.36464e-35 -1.24006e-34)
(6.15553e-37 4.34048e-37 -8.4606e-37)
(2.11727e-20 1.49969e-20 -2.91013e-20)
(1.85053e-22 1.30991e-22 -2.54349e-22)
(1.61564e-24 1.14288e-24 -2.22065e-24)
(1.37484e-26 9.71924e-27 -1.88968e-26)
(1.13051e-28 7.98736e-29 -1.55385e-28)
(8.9724e-31 6.33586e-31 -1.23323e-30)
(6.8854e-33 4.85969e-33 -9.46378e-33)
(5.12296e-35 3.61405e-35 -7.04135e-35)
(3.70612e-37 2.61332e-37 -5.09395e-37)
(2.61376e-39 1.84224e-39 -3.59253e-39)
(4.97803e-23 3.52462e-23 -6.81538e-23)
(4.54323e-25 3.21466e-25 -6.21907e-25)
(4.13776e-27 2.92576e-27 -5.66308e-27)
(3.6672e-29 2.59136e-29 -5.0182e-29)
(3.13533e-31 2.21423e-31 -4.28968e-31)
(2.58313e-33 1.82327e-33 -3.53356e-33)
(2.05471e-35 1.44957e-35 -2.81025e-35)
(1.58249e-37 1.11589e-37 -2.16403e-37)
(1.18359e-39 8.34221e-40 -1.61827e-39)
(8.6201e-42 6.07296e-42 -1.17839e-41)
)
;
    }
}


// ************************************************************************* //
