/*--------------------------------*- C++ -*----------------------------------*\
| =========                 |                                                 |
| \\      /  F ield         | OpenFOAM: The Open Source CFD Toolbox           |
|  \\    /   O peration     | Version:  2.4.0                                 |
|   \\  /    A nd           | Web:      www.OpenFOAM.org                      |
|    \\/     M anipulation  |                                                 |
\*---------------------------------------------------------------------------*/
FoamFile
{
    version     2.0;
    format      ascii;
    class       volSymmTensorField;
    location    "0.14";
    object      B;
}
// * * * * * * * * * * * * * * * * * * * * * * * * * * * * * * * * * * * * * //

dimensions      [0 2 -2 0 0 0 0];

internalField   nonuniform List<symmTensor> 
200
(
(6.32455e+26 1.07808e+26 -1.62181e+26 3.85187e+26 -1.44022e+26 8.87191e+26)
(6.66758e+26 2.01158e+26 9.83165e+26 1.00203e+27 2.8846e+26 1.23117e+27)
(3.51297e+27 -1.11895e+27 -8.16261e+26 3.7605e+27 -1.24703e+27 6.24852e+27)
(-9.60937e+26 2.62565e+27 1.04138e+28 6.9117e+27 3.93021e+27 8.30593e+27)
(4.07799e+28 -4.68317e+27 -2.813e+27 3.86992e+28 -8.96452e+27 5.05779e+28)
(1.46385e+29 2.35909e+28 1.01882e+29 2.35374e+29 5.46967e+28 2.21692e+29)
(2.69016e+29 1.27939e+28 -5.81329e+27 3.28402e+29 -1.85421e+28 3.42027e+29)
(6.4037e+29 -1.05426e+28 -4.05318e+28 6.31604e+29 -1.77701e+27 6.31054e+29)
(8.98413e+28 -3.13937e+26 -1.16669e+27 8.33892e+28 -1.35833e+26 8.4801e+28)
(2.95452e+28 6.33126e+26 4.57589e+26 2.77562e+28 -9.00222e+24 2.79354e+28)
(-1.25027e+26 1.71062e+26 1.63219e+26 2.40868e+26 -9.00254e+25 7.97372e+25)
(1.12128e+27 -4.86037e+26 -4.49793e+26 1.75966e+27 2.31881e+26 2.64879e+27)
(-3.54345e+26 1.87622e+27 2.94482e+27 2.23332e+27 -1.13195e+27 3.10257e+27)
(9.57324e+27 -2.06112e+27 -1.64544e+27 9.74288e+27 3.86635e+26 1.29027e+28)
(1.00655e+29 2.55901e+28 6.4999e+28 1.32768e+29 -2.00764e+27 1.3646e+29)
(9.23445e+28 -1.0785e+27 -2.688e+27 1.05628e+29 2.80065e+27 1.22578e+29)
(4.52001e+29 -3.95382e+27 -1.66491e+28 4.38084e+29 -9.11699e+27 4.45102e+29)
(5.62013e+28 -2.84068e+26 -4.87111e+27 3.19675e+28 -4.69018e+27 3.79653e+28)
(1.14891e+28 1.04916e+27 3.57672e+26 1.19563e+28 -9.26238e+25 1.05936e+28)
(1.76844e+28 3.3959e+26 1.20963e+26 1.77491e+28 2.50825e+25 1.76107e+28)
(9.8042e+25 -1.81341e+25 -6.0836e+25 2.65092e+26 -4.06732e+24 2.52069e+26)
(5.28118e+26 6.83063e+26 4.37245e+26 7.63874e+26 -2.22068e+26 8.17192e+26)
(3.07996e+26 -2.91415e+26 -3.38514e+26 9.87482e+26 1.80882e+26 1.98226e+27)
(6.83765e+27 5.0772e+27 6.84796e+27 9.79813e+27 -1.02912e+27 1.05778e+28)
(5.77672e+27 -1.26021e+27 -5.92152e+26 7.54006e+27 2.60479e+26 1.02514e+28)
(8.802e+28 -4.12822e+26 -3.47423e+27 8.27434e+28 -5.16735e+27 8.62026e+28)
(3.07462e+28 -2.04568e+26 -3.78391e+27 1.57262e+28 -3.6214e+27 1.7247e+28)
(5.82782e+27 1.85677e+26 1.18401e+26 6.10837e+27 -4.79045e+25 5.68013e+27)
(2.37061e+28 1.85887e+27 7.82851e+26 2.7113e+28 5.03495e+26 2.4569e+28)
(4.52897e+26 1.32195e+26 7.40792e+24 8.49564e+26 4.70571e+25 5.83729e+26)
(5.34761e+26 2.2966e+26 -4.39868e+25 4.07023e+26 1.565e+25 4.54104e+26)
(1.59673e+25 -1.32601e+26 -4.70931e+25 -2.11087e+24 5.52967e+24 2.23872e+26)
(2.27689e+27 1.20555e+27 1.21769e+27 2.12052e+27 -4.39253e+26 2.47682e+27)
(1.3825e+27 -7.85489e+25 -3.63616e+26 8.28348e+26 -1.21369e+26 2.1835e+27)
(1.53472e+28 -7.81389e+25 -6.31712e+26 1.43183e+28 -6.24725e+26 1.47855e+28)
(9.29631e+27 -6.65304e+26 -1.20892e+27 6.53361e+27 -1.1912e+27 5.61166e+27)
(1.05734e+27 2.70583e+24 6.72297e+24 1.10948e+27 -1.05148e+25 1.03411e+27)
(1.21767e+28 1.20314e+27 6.5446e+26 1.54262e+28 3.88674e+26 1.28339e+28)
(-1.17805e+26 -3.90548e+25 4.19919e+25 1.3087e+26 7.31755e+24 -2.77868e+25)
(2.49766e+27 1.18026e+26 -7.69038e+24 2.34116e+27 -2.39447e+25 2.25205e+27)
(6.09886e+26 -1.3588e+26 -2.25774e+25 3.37589e+26 -1.26385e+26 4.3062e+26)
(1.00621e+27 1.36137e+26 -4.57024e+25 1.30875e+27 8.07356e+25 1.32554e+27)
(1.28514e+26 1.18342e+26 3.83095e+26 5.05108e+26 -4.31002e+25 -4.6364e+26)
(9.17949e+26 1.76572e+26 -2.64516e+26 1.31365e+26 7.59807e+24 5.79357e+26)
(1.65383e+28 1.93138e+27 3.4361e+27 1.64706e+28 5.51259e+26 9.29534e+27)
(1.25567e+27 7.25359e+26 2.10244e+26 1.72389e+27 -5.70385e+26 1.59975e+27)
(2.10499e+28 -6.13402e+26 -1.69986e+27 1.99608e+28 -2.3523e+27 9.5932e+27)
(1.31217e+28 -5.06917e+26 5.97598e+26 9.56739e+27 -3.4558e+25 1.10727e+28)
(1.12338e+28 2.42993e+26 9.02344e+26 1.12153e+28 3.17374e+26 1.20983e+28)
(1.90324e+27 3.37828e+25 3.53826e+26 2.38924e+27 9.26086e+25 2.61606e+27)
(1.05262e+27 1.95074e+26 2.41463e+26 1.26594e+27 3.16608e+24 1.16866e+27)
(6.76851e+26 2.92003e+26 5.36751e+26 1.02536e+27 -7.95647e+25 6.56225e+26)
(6.76806e+25 -5.16633e+26 -3.86548e+26 5.4709e+26 1.94432e+26 9.5217e+26)
(9.02837e+27 1.84456e+27 1.47981e+27 8.18814e+27 -4.58282e+26 5.81254e+27)
(6.56099e+27 1.39507e+26 -1.80826e+26 3.77816e+27 7.32243e+25 4.76661e+27)
(1.95765e+28 -5.45267e+26 -5.53255e+26 1.77727e+28 -1.69354e+27 1.19226e+28)
(8.19389e+27 -7.88741e+26 3.79183e+26 2.82397e+27 -6.44346e+26 5.06635e+27)
(6.29464e+27 -6.85729e+25 1.61155e+26 7.15945e+27 5.13796e+26 7.07817e+27)
(6.09693e+27 4.85191e+26 2.93969e+26 6.90709e+27 7.08381e+26 7.22872e+27)
(1.12964e+27 3.61237e+25 1.43748e+26 1.31879e+27 1.01866e+26 1.39821e+27)
(6.19501e+26 1.78538e+26 5.08293e+25 4.72268e+26 7.66473e+25 3.24858e+26)
(2.74534e+26 4.02866e+25 1.33019e+26 1.10299e+26 -4.28568e+25 1.9622e+26)
(2.02378e+27 4.20554e+26 2.5196e+26 1.79547e+27 -1.98889e+26 1.473e+27)
(1.2602e+27 -2.11202e+26 -2.08937e+26 8.6366e+26 -5.60336e+25 9.76856e+26)
(5.59607e+27 1.63234e+26 -1.23164e+26 4.37751e+27 -5.54482e+26 3.77295e+27)
(5.5082e+27 -5.83927e+26 -8.47081e+25 2.54222e+27 4.9045e+25 2.92654e+27)
(2.61842e+27 -1.35705e+26 -1.92326e+25 2.88804e+27 1.47071e+26 2.91862e+27)
(7.43833e+27 2.58688e+26 1.44306e+26 8.60107e+27 5.77913e+26 8.35843e+27)
(5.08587e+26 -1.00186e+26 -4.59739e+24 7.1922e+26 9.62815e+25 7.26628e+26)
(4.94535e+26 -2.07993e+25 1.35954e+25 3.91272e+26 5.02138e+25 4.01557e+26)
(2.86491e+26 4.43903e+25 4.01794e+25 2.19342e+26 -4.12054e+24 2.02185e+26)
(1.54545e+27 1.80908e+26 1.95339e+25 1.10664e+27 -4.00438e+25 1.08963e+27)
(3.49693e+26 -2.26961e+26 -2.69177e+24 -1.00596e+26 -6.93322e+25 1.56684e+26)
(7.69542e+26 4.45539e+25 -1.71955e+25 6.21291e+26 -8.94549e+25 5.35457e+26)
(1.52568e+27 -1.92493e+26 -1.84437e+26 8.7378e+26 -4.98285e+25 9.45417e+26)
(1.93307e+26 -3.58616e+25 -2.50495e+25 1.42049e+26 2.90555e+24 2.34872e+26)
(3.52338e+27 1.41943e+26 7.99739e+25 4.15433e+27 2.67404e+26 3.98638e+27)
(1.54947e+26 -9.5634e+25 -2.58403e+24 1.34354e+26 1.39502e+25 2.63449e+26)
(1.1944e+27 5.84375e+25 2.06962e+24 1.04385e+27 2.11742e+25 1.06478e+27)
(4.8678e+25 3.56984e+25 1.37225e+25 2.64928e+25 1.01249e+25 5.08428e+25)
(8.26561e+26 9.75924e+24 1.86629e+26 9.06755e+26 1.04615e+26 7.42721e+26)
(5.18613e+26 -3.08417e+25 1.56056e+26 6.11499e+26 -1.42984e+26 4.61467e+26)
(3.86854e+26 -1.2539e+26 -1.99447e+26 2.69851e+26 1.52094e+26 3.89764e+26)
(2.97073e+27 3.23007e+26 3.46202e+26 2.26784e+27 1.6724e+24 2.02606e+27)
(2.39035e+27 -3.93335e+25 2.38194e+26 1.97078e+27 -1.36966e+26 2.10301e+27)
(2.53926e+27 8.29654e+25 -5.99025e+25 2.38841e+27 -3.13622e+26 1.41164e+27)
(1.8586e+27 -3.08899e+25 -1.42402e+26 1.44362e+27 -2.50152e+26 1.68256e+27)
(3.88288e+27 -6.71681e+25 -3.35641e+26 4.17195e+27 -1.8794e+25 4.51177e+27)
(1.58116e+27 -4.69568e+25 -1.32114e+26 1.84785e+27 -4.11252e+25 2.04013e+27)
(6.75179e+26 -8.861e+24 -2.41994e+25 7.81326e+26 6.76772e+24 8.20538e+26)
(2.9472e+26 5.84915e+25 6.79404e+25 2.93151e+26 -2.75546e+25 2.84095e+26)
(6.34449e+26 -1.55397e+26 2.48493e+26 6.96984e+26 -1.00647e+26 4.74055e+26)
(7.05211e+26 2.53441e+25 3.98256e+26 6.52707e+26 -1.52776e+26 2.93173e+26)
(1.6213e+27 -5.24984e+26 -3.48553e+26 8.0819e+26 1.62609e+26 1.33054e+27)
(3.33864e+27 1.45143e+26 -5.18833e+25 2.87544e+27 -1.95342e+26 2.66712e+27)
(2.58025e+27 -2.37628e+26 -3.49243e+26 1.32291e+27 -3.12343e+26 2.0051e+27)
(2.6247e+27 -1.46757e+26 -2.8581e+26 2.66936e+27 -8.58292e+25 2.80218e+27)
(1.31387e+27 2.31411e+26 -1.87136e+26 1.49623e+27 2.00225e+26 1.91301e+27)
(6.13092e+26 -6.52794e+25 3.42253e+24 7.74921e+26 2.83875e+25 9.36213e+26)
(3.60079e+26 -2.67618e+25 8.6442e+24 4.3038e+26 -4.73002e+25 5.56541e+26)
(5.29784e+26 2.98271e+26 9.46217e+25 8.06248e+25 -5.81803e+24 2.81256e+26)
(4.06642e+26 3.77461e+24 1.35895e+26 2.74488e+26 -6.5049e+25 1.84738e+26)
(9.54816e+26 -5.54083e+26 3.03186e+26 8.24066e+26 3.17652e+24 7.29865e+26)
(9.12869e+26 1.56334e+26 1.13199e+25 7.7093e+26 -1.54231e+26 5.92171e+26)
(1.9873e+27 -3.03557e+26 -5.13774e+26 1.46857e+27 -7.10864e+24 1.7256e+27)
(5.24273e+26 -5.24067e+24 -7.33769e+25 4.63148e+26 -5.71245e+25 5.42388e+26)
(1.87903e+27 1.4132e+26 -5.33002e+25 2.08671e+27 1.01327e+26 2.06742e+27)
(3.27199e+26 -9.81481e+25 -9.19185e+25 3.06032e+26 -8.02178e+24 4.30595e+26)
(4.13875e+26 -3.87058e+25 -2.78975e+24 3.27639e+26 -3.06492e+25 4.23604e+26)
(1.9554e+26 -5.90336e+25 -2.1361e+25 1.20463e+26 -2.51192e+25 2.69131e+26)
(3.43525e+26 9.98337e+24 -2.18622e+25 2.62423e+26 -2.06666e+24 2.55414e+26)
(4.44374e+26 5.84435e+25 1.18744e+26 2.62468e+25 2.90823e+25 2.38354e+26)
(8.9569e+26 2.01543e+25 1.00481e+26 6.40331e+26 -5.44588e+25 6.48534e+26)
(1.36405e+27 -2.50457e+26 -1.68316e+26 1.3029e+27 6.04044e+25 1.37776e+27)
(3.22209e+26 -5.74511e+25 -2.0724e+26 2.71712e+26 -1.2824e+26 4.49586e+26)
(1.23606e+27 1.10024e+26 -4.4291e+25 1.40682e+27 7.00842e+25 1.35083e+27)
(2.00684e+26 -3.94433e+24 -2.3156e+25 1.05302e+26 -1.97832e+25 2.21979e+26)
(3.64739e+26 2.95158e+25 -5.75465e+23 2.57226e+26 2.90109e+24 3.20767e+26)
(1.32422e+26 -1.15688e+25 -3.24758e+25 6.28318e+25 2.31362e+24 1.7337e+26)
(4.96159e+25 6.76659e+24 1.36462e+24 4.90843e+25 4.22365e+24 8.02387e+25)
(3.62053e+26 2.21713e+25 4.40747e+24 5.74358e+26 -3.10813e+25 4.2855e+26)
(5.86895e+26 -1.13101e+26 6.59495e+25 8.84464e+26 1.80888e+25 4.74173e+26)
(5.47925e+25 1.18395e+25 7.66129e+24 1.18026e+26 -2.59156e+25 4.31546e+25)
(5.32733e+26 -7.51436e+25 -1.37749e+26 3.95268e+26 6.18588e+25 3.0326e+26)
(5.72433e+26 5.0762e+25 1.08396e+25 4.92544e+26 -3.646e+25 3.36841e+26)
(4.56207e+26 -9.92348e+24 1.62301e+25 2.78877e+26 -2.32845e+25 1.87949e+26)
(1.06345e+27 -1.12578e+26 -2.07698e+26 8.05374e+26 -1.60586e+26 6.60596e+26)
(3.21386e+26 -1.20391e+26 -1.23178e+26 2.95706e+26 4.20376e+25 1.61421e+26)
(2.01453e+26 3.18922e+25 3.20692e+24 2.0202e+26 -6.85778e+25 1.12686e+26)
(2.13939e+26 2.29347e+25 -4.70963e+25 1.86748e+26 -2.29173e+25 2.27994e+26)
(1.22045e+26 2.39278e+26 1.62787e+26 8.39741e+25 -7.34925e+25 2.04011e+26)
(5.49374e+25 1.33869e+22 7.16054e+24 7.90483e+25 -6.74556e+24 6.85e+25)
(1.04426e+27 -3.29762e+26 7.63873e+25 1.30677e+27 -4.86323e+25 8.54071e+26)
(2.28338e+26 4.95057e+25 1.80354e+25 1.25433e+26 -2.37935e+25 6.90333e+25)
(8.69076e+26 -1.31088e+26 -1.63408e+26 5.83573e+26 5.8619e+25 6.3246e+26)
(3.10496e+26 -8.92741e+25 -1.77693e+26 2.45836e+26 -1.59828e+26 1.96222e+26)
(2.48273e+26 1.63751e+26 -4.19231e+25 1.28931e+26 6.17335e+25 1.46735e+26)
(4.32734e+26 5.51703e+25 7.08608e+24 4.72491e+26 -6.15112e+25 4.0082e+26)
(4.58499e+26 -1.80318e+26 -2.37613e+24 4.76197e+26 -1.50878e+25 6.34977e+26)
(3.12224e+26 -1.07958e+26 -9.0113e+25 2.66597e+26 -7.04638e+24 3.28179e+26)
(3.24091e+26 2.02044e+25 -3.17467e+25 2.32911e+26 -1.98711e+25 2.3168e+26)
(3.06607e+26 4.35547e+26 2.92864e+26 -4.90964e+25 -1.23645e+26 3.94975e+26)
(9.69611e+25 -1.24133e+25 1.17846e+25 1.23539e+26 -1.48508e+25 1.0324e+26)
(2.60428e+27 -5.8062e+26 -7.04777e+25 2.84743e+27 3.9841e+25 2.43575e+27)
(3.18629e+25 9.78569e+24 -2.28119e+25 -2.89157e+25 -5.23734e+25 -1.04879e+25)
(7.09123e+26 6.93337e+25 -7.1753e+25 6.38756e+26 7.4874e+25 6.14178e+26)
(2.11861e+26 2.81991e+25 -1.4776e+24 2.11162e+26 -4.52272e+25 1.74149e+26)
(5.04517e+26 -1.00304e+26 7.40226e+25 2.63743e+26 -2.602e+25 4.81481e+26)
(1.0295e+26 -5.01586e+24 -2.80334e+25 1.25182e+25 -2.35594e+25 1.07386e+26)
(4.91554e+26 5.15682e+25 -2.64819e+25 5.54278e+26 -3.07979e+25 5.79748e+26)
(5.21874e+26 2.62421e+26 1.33128e+26 5.80966e+25 9.36453e+24 4.83438e+26)
(3.02253e+26 2.33684e+24 -3.01273e+25 1.87281e+26 -1.95845e+25 2.32526e+26)
(-4.47316e+25 2.15889e+26 2.19241e+26 -6.70437e+25 -3.61416e+24 4.65641e+25)
(7.42965e+25 -2.12657e+25 9.05902e+24 6.25631e+25 -1.0182e+25 6.45913e+25)
(1.75523e+27 -1.76934e+26 -1.05393e+26 1.61303e+27 3.07051e+25 1.61267e+27)
(1.01245e+26 4.67476e+25 -1.2923e+25 1.70258e+24 -3.69754e+25 7.4277e+25)
(3.00275e+26 2.52088e+25 2.1078e+25 1.90435e+26 1.04773e+25 2.76252e+26)
(3.23731e+25 3.24423e+25 -1.14528e+25 9.6914e+24 -1.63272e+25 5.04419e+25)
(1.92975e+26 1.25221e+25 -2.36076e+23 2.42352e+26 -2.15609e+25 2.76566e+26)
(3.87666e+26 -7.66432e+25 -1.3458e+26 1.70462e+26 -2.34292e+25 3.72804e+26)
(2.07225e+26 -2.40109e+25 -1.77233e+25 2.83235e+26 -9.90933e+24 2.32844e+26)
(4.8698e+24 -4.18326e+23 -7.79988e+24 1.65467e+24 1.05726e+25 1.30852e+25)
(1.12428e+26 1.65926e+25 -2.90438e+25 6.14569e+25 -2.9981e+25 2.12082e+25)
(1.25808e+26 -3.8115e+25 1.80987e+25 6.76051e+25 3.19294e+25 1.18141e+26)
(2.53432e+26 1.15929e+26 -1.05865e+26 1.38205e+26 -1.18824e+26 2.02631e+26)
(1.92481e+26 -1.23297e+26 -1.43598e+26 -2.00505e+25 1.632e+26 2.0427e+26)
(1.91054e+26 2.07502e+26 -2.00745e+26 2.13834e+26 -2.511e+26 1.32331e+26)
(1.54076e+27 -8.1895e+26 -6.59052e+26 5.68005e+26 2.14692e+26 1.63167e+27)
(1.90395e+27 -1.65929e+26 9.02119e+25 1.65948e+27 2.90375e+25 1.88232e+27)
(2.76091e+27 2.02162e+26 1.96345e+26 2.68324e+27 -2.32629e+25 2.67118e+27)
(2.9479e+25 5.83543e+24 3.63307e+24 1.98375e+25 7.62915e+24 2.43422e+25)
(2.4168e+26 -4.83076e+25 -3.39562e+25 3.12013e+26 -3.13875e+25 2.53186e+26)
(4.20517e+25 -1.40126e+25 -7.85818e+24 1.65151e+25 1.00845e+25 3.75271e+25)
(1.45324e+26 1.52994e+25 -5.23877e+25 6.86279e+25 -1.23397e+25 4.05404e+25)
(8.44874e+25 -1.23992e+26 -9.97863e+25 -2.77922e+25 -5.13826e+24 1.53964e+26)
(1.65098e+26 1.5187e+26 -8.60689e+25 1.90496e+26 -3.26175e+25 3.30556e+26)
(9.05426e+26 -8.85824e+26 -6.12562e+26 -3.47325e+25 1.24141e+26 1.25423e+27)
(7.11856e+26 -9.85958e+25 1.88464e+26 5.57697e+26 -3.85396e+25 8.34617e+26)
(4.04778e+27 2.72487e+26 1.55704e+26 4.37745e+27 6.25848e+25 4.06536e+27)
(3.32968e+26 -2.21411e+26 -6.20421e+25 4.03191e+26 5.55081e+25 3.5268e+26)
(1.77846e+26 3.98899e+25 5.12135e+25 2.26443e+25 -9.63089e+25 1.93428e+26)
(5.58686e+25 -8.488e+24 5.53184e+24 2.18092e+25 1.00271e+25 3.96042e+25)
(1.75285e+26 -6.42493e+25 -4.61372e+25 2.24787e+26 -8.50857e+25 1.63347e+26)
(9.77667e+25 -9.27841e+25 -5.58336e+25 -1.12766e+24 3.96521e+25 8.87156e+25)
(3.08218e+26 6.98947e+25 -6.77345e+25 2.8237e+26 -2.22007e+25 2.95875e+26)
(4.54226e+26 -3.92222e+26 -2.43877e+26 1.72587e+26 1.26092e+26 6.24325e+26)
(3.62691e+26 -1.92666e+25 5.02087e+25 3.05818e+26 -1.19044e+25 4.04937e+26)
(2.84399e+27 2.59583e+26 1.1222e+26 3.2906e+27 6.73859e+25 2.96207e+27)
(5.65727e+25 -8.56686e+25 -1.9246e+25 -1.00436e+26 1.3503e+25 2.12386e+25)
(2.75966e+26 2.68132e+25 1.95497e+25 1.88087e+26 -3.71668e+25 1.80673e+26)
(1.0718e+26 -8.9797e+23 1.39349e+24 5.67989e+25 4.58485e+24 8.68716e+25)
(1.44133e+26 2.77262e+25 1.28658e+25 6.33856e+23 -6.76795e+25 1.24178e+26)
(2.26682e+26 -7.10167e+25 3.60379e+24 1.86337e+26 9.44832e+24 2.2139e+26)
(3.15785e+26 -1.45904e+24 -7.28688e+25 2.60823e+26 -8.52418e+25 2.51808e+26)
(3.65718e+26 -1.55569e+26 -1.06291e+26 1.75744e+26 8.06409e+25 4.01704e+26)
(2.64298e+26 -1.78276e+25 4.0029e+25 1.71377e+26 7.41265e+23 2.81676e+26)
(1.38634e+27 2.04667e+26 3.80796e+25 1.77721e+27 4.75085e+25 1.5275e+27)
(4.37018e+25 -2.40042e+25 9.80691e+24 -4.22272e+25 6.25503e+24 6.87821e+25)
(2.43835e+26 8.06488e+25 1.50891e+25 1.77988e+26 -5.36076e+25 1.44484e+26)
(1.26778e+26 4.18851e+25 -5.19663e+25 1.66721e+26 -1.17429e+25 1.70407e+26)
)
;

boundaryField
{
    inlet
    {
        type            calculated;
        value           nonuniform 0();
    }
    outlet
    {
        type            calculated;
        value           nonuniform 0();
    }
    bottom
    {
        type            calculated;
        value           nonuniform List<symmTensor> 
40
(
(1.58954e+11 2.99228e+11 -1.25027e+12 -5.27353e+11 -3.19388e+11 1.42217e+12)
(-8.03817e+11 5.11945e+11 -1.63007e+11 2.91212e+11 -6.03153e+11 6.15785e+11)
(-8.40189e+11 -1.34739e+11 -1.05135e+12 4.01022e+11 1.49814e+11 9.11798e+11)
(3.81756e+11 7.62829e+11 -1.13164e+12 -4.25303e+10 4.816e+10 3.35336e+11)
(-7.07377e+11 3.64735e+11 1.84112e+12 -9.94811e+10 2.41094e+11 6.79332e+10)
(-1.10298e+12 -8.73133e+11 -1.82037e+12 4.38228e+10 3.93496e+11 3.1852e+12)
(-1.67391e+11 9.66543e+11 -5.76997e+11 1.66207e+11 -6.78265e+11 7.45373e+11)
(-4.77458e+11 -5.91484e+11 -6.96393e+11 -5.58098e+11 3.93345e+11 1.43178e+12)
(-2.69538e+11 -9.798e+11 -1.55981e+12 -5.27892e+10 -4.87488e+11 7.49976e+12)
(-1.85383e+12 1.37747e+12 1.10897e+12 4.59561e+10 -1.65296e+12 5.56465e+11)
(-1.02311e+12 -4.31131e+11 -1.22719e+12 -1.78498e+10 1.00905e+12 4.07078e+12)
(-9.15463e+10 1.80697e+12 3.65651e+11 -3.25917e+11 -1.56113e+12 8.08642e+11)
(-3.14865e+12 1.11232e+12 4.38228e+12 1.86478e+11 4.91492e+11 6.44363e+11)
(3.84324e+11 -1.49359e+12 -2.85393e+12 5.07256e+11 1.86161e+12 1.07855e+13)
(-1.66061e+12 3.19239e+12 2.47655e+12 2.00845e+11 -1.66117e+12 1.10329e+12)
(9.05219e+10 -1.48755e+11 -1.28946e+12 -9.58928e+11 1.61302e+12 6.99293e+12)
(1.79942e+12 -1.49913e+12 -3.35436e+12 1.13337e+12 -5.18282e+11 2.03514e+13)
(-9.66392e+12 8.05324e+12 1.92428e+13 4.42315e+11 -2.75115e+12 8.09854e+11)
(-2.45603e+12 -1.77622e+12 -2.48902e+12 2.93276e+10 3.76941e+12 1.64622e+13)
(3.28961e+12 -5.03973e+11 -5.67205e+12 -3.34652e+12 -5.6706e+12 -5.7685e+10)
(-1.35606e+13 5.0194e+12 2.20657e+13 5.37362e+12 7.84878e+12 1.65419e+12)
(-1.0119e+13 -9.11008e+11 -9.00696e+12 1.10163e+12 1.10108e+13 6.31197e+13)
(4.6689e+12 -1.08111e+12 -1.26317e+13 -9.14981e+12 -1.62275e+13 9.01349e+11)
(3.26444e+12 -8.40302e+11 -8.03555e+11 -2.24951e+11 -1.11069e+12 -2.68161e+12)
(-2.3668e+13 7.41259e+12 -1.2174e+13 1.07389e+13 -4.18855e+11 7.46e+13)
(1.14219e+13 -7.06516e+12 -3.64146e+13 -1.34461e+13 -1.68573e+13 7.80562e+11)
(7.03255e+12 -1.40564e+11 -2.51436e+12 -3.28808e+12 -3.58859e+12 -5.07936e+12)
(-5.59874e+11 1.26212e+11 2.7211e+11 1.87216e+12 -4.43992e+12 -4.84926e+12)
(7.15017e+12 -9.87892e+12 -4.91531e+13 -1.06368e+12 7.75907e+11 1.80326e+12)
(1.08558e+13 -2.21795e+11 -5.79317e+12 -8.06554e+12 -5.73432e+12 -7.87845e+12)
(-3.14851e+11 2.19245e+12 1.39883e+12 2.99783e+12 -6.31328e+12 -6.65911e+12)
(-2.49022e+12 2.78975e+12 2.28535e+12 5.04429e+12 8.50752e+11 -2.59643e+12)
(1.61506e+13 -1.2876e+12 -1.10593e+13 -1.03123e+13 -3.65722e+12 -1.22172e+13)
(5.58222e+11 4.59689e+12 3.17707e+11 2.60524e+12 -6.66511e+12 -9.06096e+12)
(-3.43214e+12 5.12358e+12 2.58379e+12 5.95829e+12 5.71524e+11 -2.53302e+12)
(-1.22817e+12 -2.59442e+11 -8.02011e+11 4.2378e+11 -7.33788e+11 -1.04376e+12)
(7.73017e+12 4.00942e+12 -5.6331e+11 -3.59926e+12 -1.67942e+12 -6.43289e+12)
(-3.5565e+11 7.07852e+12 1.26034e+12 9.94507e+11 -1.24454e+12 -4.00795e+12)
(-1.59387e+12 9.65051e+11 -1.28873e+12 1.30187e+12 -3.80804e+11 -9.82245e+11)
(1.82044e+12 1.28068e+12 -1.10589e+11 1.2229e+11 -7.11341e+11 -1.30559e+12)
)
;
    }
    top
    {
        type            symmetryPlane;
    }
    side1
    {
        type            symmetryPlane;
    }
    side2
    {
        type            symmetryPlane;
    }
    procBoundary3to2
    {
        type            processor;
        value           nonuniform List<symmTensor> 
20
(
(1.46692e+26 -1.1075e+26 -1.29796e+26 -1.71829e+26 3.17553e+25 9.23147e+25)
(-9.33074e+25 -6.95785e+24 -5.45676e+25 6.68169e+25 -4.44898e+25 4.08314e+25)
(-9.08962e+24 4.39669e+25 -2.82895e+25 8.86965e+24 -9.92869e+24 9.00404e+24)
(-2.36e+25 1.1094e+26 -1.52638e+26 -6.28693e+24 -1.52278e+25 6.63393e+24)
(-4.6357e+25 1.06446e+26 2.82552e+26 1.30948e+19 -1.80744e+25 6.71254e+25)
(2.23862e+26 1.76448e+25 -1.31916e+26 -8.70875e+25 -4.21546e+25 -2.4963e+25)
(-1.91138e+26 9.86364e+25 4.01938e+25 9.40612e+25 -1.75557e+25 -4.25628e+25)
(9.63803e+25 9.53056e+25 2.03361e+25 -3.03407e+25 -9.09699e+24 -2.39455e+25)
(1.21918e+26 -1.27491e+26 -1.5015e+26 1.43507e+25 -8.28614e+25 -9.52005e+25)
(-5.10514e+25 3.56198e+26 1.12114e+26 -1.3211e+26 3.96253e+25 -3.18149e+25)
(6.0028e+25 1.89255e+25 -3.15454e+24 1.90295e+25 2.62987e+24 -2.31403e+25)
(3.84588e+25 2.37013e+25 -2.40447e+25 -1.95902e+25 -2.41239e+24 -3.02507e+25)
(-7.41964e+25 9.75071e+25 5.49408e+25 1.20969e+26 2.62991e+25 -1.55117e+25)
(2.78055e+25 1.12332e+25 -2.21831e+25 1.04544e+25 -7.2793e+24 -3.84686e+24)
(5.81476e+25 1.74289e+26 3.21618e+25 -1.83719e+26 4.69885e+23 3.8922e+25)
(1.03258e+26 1.95802e+25 -5.33953e+25 -4.29728e+25 -1.19163e+25 -1.37882e+25)
(-2.1331e+24 2.0472e+24 -2.11733e+24 6.99447e+24 1.59402e+24 -2.18558e+24)
(1.2259e+25 1.15604e+26 5.4435e+25 -4.60768e+25 -8.61152e+25 3.79439e+25)
(7.09416e+24 1.83411e+23 -4.80832e+24 -1.0215e+24 1.33695e+25 5.63225e+24)
(3.30405e+25 4.5324e+25 3.63777e+25 -8.38218e+25 -2.10733e+25 4.38818e+25)
)
;
    }
    procBoundary3to4
    {
        type            processor;
        value           nonuniform List<symmTensor> 
20
(
(2.90026e+26 1.5573e+26 7.53563e+25 -1.14673e+26 -4.1405e+24 -1.27266e+26)
(2.79264e+25 1.25885e+26 4.65971e+25 4.56956e+24 2.51797e+24 -5.29308e+25)
(1.22468e+26 8.02785e+25 -3.33748e+25 2.63161e+25 3.72243e+24 -7.51264e+25)
(2.87808e+25 1.25581e+26 3.35813e+25 4.27306e+25 2.48104e+24 -7.96382e+25)
(-6.11393e+25 1.09738e+25 5.37791e+25 1.07768e+24 1.6808e+25 1.75321e+25)
(-4.5741e+25 -1.35499e+24 3.78502e+25 3.91505e+24 2.02596e+25 1.39443e+25)
(-5.85424e+24 -5.26462e+24 3.13048e+25 -6.51054e+24 3.30736e+25 9.59305e+24)
(1.6368e+25 5.41789e+25 1.19288e+25 -3.03249e+25 3.5131e+25 -4.34562e+24)
(-1.18156e+26 -3.45681e+25 -3.39834e+25 4.1954e+25 1.18774e+25 7.88286e+25)
(-9.30202e+25 -4.58175e+25 -5.3866e+25 -3.41479e+25 2.4242e+23 1.12873e+26)
(-1.5895e+25 -1.05258e+25 1.58737e+24 -2.85681e+25 -1.62382e+25 4.69104e+25)
(-3.71771e+24 7.30832e+24 -1.20611e+25 -2.3834e+25 -2.1202e+25 6.73983e+24)
(-2.50412e+25 -3.0638e+25 -5.4477e+25 3.75316e+25 2.03997e+25 5.55158e+25)
(2.18732e+25 4.20962e+25 -6.68865e+25 -2.59152e+25 -3.00167e+25 2.93949e+25)
(5.01114e+25 -8.61163e+25 -1.33564e+26 -1.16787e+26 -3.51651e+25 6.83905e+25)
(7.50163e+24 9.22092e+24 -1.48037e+25 -1.42432e+25 -9.21407e+24 1.32871e+25)
(2.07901e+25 1.2661e+25 -1.13081e+25 -2.35941e+25 -1.03817e+25 -1.53458e+25)
(8.36792e+25 -5.56088e+25 4.68965e+25 -3.4753e+25 -1.0093e+26 -4.56617e+25)
(-9.86911e+24 5.81601e+25 -4.12795e+25 5.47578e+25 -1.4109e+25 -1.00525e+25)
(7.64026e+25 -7.1147e+25 -4.01105e+25 -1.4428e+26 -2.47752e+25 6.00891e+25)
)
;
    }
    procBoundary3to11
    {
        type            processor;
        value           nonuniform List<symmTensor> 
50
(
(-7.61004e+24 -7.11821e+25 -8.05803e+25 -1.87503e+26 -7.77811e+24 7.55175e+25)
(3.0349e+26 2.36897e+26 -7.0737e+25 -1.67586e+26 -1.49509e+26 9.95813e+24)
(2.89334e+26 -1.68245e+26 -2.81621e+26 -2.25847e+26 -1.85286e+26 5.69787e+25)
(6.45705e+25 2.16021e+24 -6.25906e+25 -7.92224e+25 -9.05003e+25 -2.35928e+25)
(9.21921e+26 -1.15041e+26 -3.61273e+26 -3.00271e+25 -5.73707e+26 -6.57702e+26)
(-4.24636e+24 -3.72865e+24 9.8822e+24 -4.87437e+24 -1.29278e+25 -4.92208e+25)
(-1.76478e+26 4.17127e+26 2.63917e+26 7.66978e+26 1.48698e+26 -2.10447e+26)
(-6.35309e+25 -4.03522e+25 7.39465e+25 -2.8209e+25 1.48102e+25 -5.23876e+25)
(8.37632e+25 6.5377e+25 1.10147e+25 1.92224e+25 -1.08082e+25 -3.29229e+25)
(4.52878e+24 6.05432e+25 2.29896e+25 3.25465e+25 -2.16033e+24 -5.92081e+25)
(2.17899e+26 5.84744e+25 -6.61144e+24 -7.47759e+25 -4.37142e+25 -7.77187e+25)
(1.18116e+26 -7.74518e+25 -3.11676e+25 -5.56257e+25 8.16071e+24 -4.23427e+25)
(1.48317e+26 8.36154e+25 -5.15039e+25 -1.29767e+26 -4.48518e+25 -5.42978e+25)
(1.8684e+26 -1.70227e+26 -1.10322e+26 2.92826e+25 4.3425e+25 2.01826e+25)
(-3.78831e+25 -6.58385e+25 -4.11725e+25 -1.64569e+26 1.4142e+25 5.42384e+25)
(-5.59594e+25 1.49221e+26 4.62547e+25 1.61678e+26 1.26932e+26 6.53991e+25)
(-4.05517e+25 -8.17647e+25 9.68381e+23 -1.13069e+26 4.92388e+24 4.20236e+25)
(4.14801e+25 4.44439e+25 8.12116e+24 1.19773e+25 1.40664e+25 -7.09802e+24)
(8.00708e+24 1.17177e+25 -9.22993e+24 -1.40448e+25 2.79144e+24 -1.01735e+25)
(1.05312e+25 2.32477e+25 -7.62611e+24 -5.01988e+24 2.44771e+25 -4.98767e+24)
(4.58722e+25 2.59043e+25 1.57084e+24 -5.78437e+25 2.78057e+21 -3.82134e+25)
(9.06422e+25 -3.33416e+25 -2.46098e+25 -5.50539e+25 4.18253e+23 -1.89102e+25)
(1.54912e+26 -4.56559e+25 -8.57713e+24 -9.68707e+25 8.59415e+25 5.75158e+25)
(1.12673e+26 -5.05354e+25 -9.56316e+25 -6.27121e+26 -2.28842e+26 1.33716e+26)
(3.08536e+25 2.45166e+25 -3.29418e+25 7.5511e+25 5.0875e+25 5.31204e+25)
(2.84491e+26 -3.22096e+26 -8.97475e+25 -1.21491e+27 -7.69775e+25 2.13258e+26)
(1.31832e+25 2.15897e+25 -5.33328e+24 5.4874e+24 8.76251e+24 1.63406e+25)
(1.43185e+24 4.43203e+25 -5.12079e+25 -5.11024e+25 2.31117e+25 2.14331e+25)
(-8.68986e+24 3.58984e+24 -4.00848e+24 -4.96694e+24 6.49519e+24 1.60338e+25)
(-1.29089e+24 -3.52625e+24 -2.88063e+25 -2.44722e+25 -1.42454e+25 1.54175e+25)
(6.50762e+25 5.18591e+25 -4.22135e+25 -6.35494e+25 -1.64366e+25 4.07609e+24)
(8.1762e+25 4.06512e+26 1.30241e+26 -2.53431e+26 1.56025e+25 6.54998e+25)
(9.71841e+25 -8.99295e+25 4.21259e+25 -7.74362e+25 2.30582e+25 1.59793e+25)
(5.66733e+25 -9.20597e+25 -3.04147e+25 -1.0013e+26 -6.95438e+24 -1.06046e+24)
(6.31251e+25 -4.11913e+25 7.80278e+24 -9.22311e+25 -3.78974e+25 -4.49836e+24)
(5.83965e+24 9.90195e+24 3.38214e+24 5.03203e+23 2.62814e+24 7.93656e+24)
(-3.56154e+25 9.42609e+25 -5.23796e+25 -1.53309e+25 8.05985e+24 -1.93543e+24)
(-7.35627e+24 2.70292e+24 -2.32607e+24 -7.35475e+24 -3.95533e+24 2.11268e+25)
(7.94546e+25 -6.51144e+25 -6.04167e+25 -1.3759e+26 1.1976e+25 2.46012e+25)
(1.89439e+24 1.54835e+25 -1.25558e+25 -8.45747e+24 -5.8494e+24 1.18899e+25)
(1.83171e+25 2.67785e+25 2.08821e+25 -4.14667e+25 -6.50112e+24 2.19399e+25)
(5.44804e+25 1.00417e+24 3.22767e+25 -3.1883e+25 -4.55611e+24 1.86695e+25)
(5.49497e+25 1.59695e+24 -6.32658e+25 -6.74606e+25 -1.04007e+26 -1.45415e+25)
(7.34477e+25 -1.03919e+26 -2.63573e+25 -1.6114e+25 3.14831e+25 1.79015e+25)
(2.83138e+25 -2.17102e+25 8.83979e+24 -7.61243e+25 4.06917e+24 1.7254e+25)
(-4.87802e+25 9.94364e+25 -9.52569e+21 1.10623e+26 3.235e+25 -6.74321e+24)
(-5.22117e+24 3.58057e+24 3.17535e+24 -3.21829e+25 4.3642e+24 2.10919e+25)
(1.69383e+25 9.93118e+25 -2.39283e+24 -7.68759e+24 -4.59424e+25 2.40478e+24)
(-1.67729e+25 1.22741e+25 -2.68065e+25 -3.28316e+24 -3.88182e+24 1.91439e+25)
(1.0041e+26 -6.71697e+25 1.40333e+25 -1.69701e+26 2.5055e+25 4.73698e+25)
)
;
    }
}


// ************************************************************************* //
