/*--------------------------------*- C++ -*----------------------------------*\
| =========                 |                                                 |
| \\      /  F ield         | OpenFOAM: The Open Source CFD Toolbox           |
|  \\    /   O peration     | Version:  2.4.0                                 |
|   \\  /    A nd           | Web:      www.OpenFOAM.org                      |
|    \\/     M anipulation  |                                                 |
\*---------------------------------------------------------------------------*/
FoamFile
{
    version     2.0;
    format      ascii;
    class       volScalarField;
    location    "0.06";
    object      p;
}
// * * * * * * * * * * * * * * * * * * * * * * * * * * * * * * * * * * * * * //

dimensions      [1 -1 -2 0 0 0 0];

internalField   nonuniform List<scalar> 
200
(
1.18169e+12
1.20166e+12
1.22992e+12
1.28614e+12
1.33441e+12
1.41304e+12
1.48016e+12
1.51325e+12
1.53097e+12
1.5541e+12
1.16651e+12
1.17466e+12
1.21385e+12
1.23365e+12
1.30321e+12
1.38044e+12
1.43036e+12
1.46268e+12
1.49111e+12
1.51727e+12
1.13866e+12
1.14489e+12
1.14804e+12
1.16608e+12
1.25133e+12
1.28716e+12
1.36635e+12
1.41508e+12
1.47138e+12
1.50031e+12
1.13073e+12
1.1327e+12
1.12555e+12
1.16111e+12
1.20096e+12
1.24821e+12
1.2753e+12
1.33288e+12
1.39029e+12
1.44406e+12
1.16435e+12
1.19171e+12
1.22519e+12
1.27039e+12
1.32657e+12
1.36943e+12
1.42847e+12
1.49319e+12
1.57253e+12
1.65983e+12
1.17516e+12
1.1916e+12
1.21051e+12
1.26799e+12
1.30793e+12
1.36082e+12
1.41487e+12
1.46543e+12
1.52077e+12
1.54652e+12
1.14768e+12
1.15289e+12
1.18765e+12
1.21408e+12
1.25758e+12
1.33999e+12
1.3763e+12
1.42734e+12
1.46069e+12
1.52797e+12
1.12238e+12
1.13396e+12
1.13933e+12
1.15419e+12
1.23189e+12
1.28143e+12
1.38553e+12
1.39162e+12
1.44348e+12
1.40053e+12
1.16484e+12
1.16894e+12
1.17545e+12
1.19172e+12
1.23962e+12
1.28328e+12
1.33301e+12
1.40424e+12
1.4496e+12
1.49389e+12
1.158e+12
1.17637e+12
1.18376e+12
1.20313e+12
1.24303e+12
1.28492e+12
1.34483e+12
1.42335e+12
1.42958e+12
1.40109e+12
1.1419e+12
1.14752e+12
1.1555e+12
1.17864e+12
1.19962e+12
1.24071e+12
1.29048e+12
1.33817e+12
1.40596e+12
1.36438e+12
1.12096e+12
1.11488e+12
1.12115e+12
1.12798e+12
1.14274e+12
1.18936e+12
1.21902e+12
1.25621e+12
1.28213e+12
1.36119e+12
1.13849e+12
1.13709e+12
1.14282e+12
1.15365e+12
1.17106e+12
1.20322e+12
1.22711e+12
1.25765e+12
1.24416e+12
1.21218e+12
1.13328e+12
1.12888e+12
1.13439e+12
1.14004e+12
1.15695e+12
1.17774e+12
1.21338e+12
1.22351e+12
1.21928e+12
1.22019e+12
1.12868e+12
1.12364e+12
1.12087e+12
1.12511e+12
1.12948e+12
1.13856e+12
1.14626e+12
1.16822e+12
1.18036e+12
1.17266e+12
1.11336e+12
1.1109e+12
1.10761e+12
1.10441e+12
1.09952e+12
1.09363e+12
1.10142e+12
1.10889e+12
1.15479e+12
1.08156e+12
1.13872e+12
1.14627e+12
1.15369e+12
1.16417e+12
1.17587e+12
1.18069e+12
1.18353e+12
1.19132e+12
1.19232e+12
1.20566e+12
1.13372e+12
1.13745e+12
1.14353e+12
1.15496e+12
1.15692e+12
1.14851e+12
1.14521e+12
1.16506e+12
1.1736e+12
1.17598e+12
1.12204e+12
1.12407e+12
1.12682e+12
1.12426e+12
1.12605e+12
1.1108e+12
1.10935e+12
1.10043e+12
1.11611e+12
1.10428e+12
1.10894e+12
1.10828e+12
1.10444e+12
1.10241e+12
1.09684e+12
1.08696e+12
1.06489e+12
1.05798e+12
1.03496e+12
1.01978e+12
)
;

boundaryField
{
    inlet
    {
        type            zeroGradient;
    }
    outlet
    {
        type            fixedValue;
        value           nonuniform 0();
    }
    bottom
    {
        type            zeroGradient;
    }
    top
    {
        type            symmetryPlane;
    }
    side1
    {
        type            symmetryPlane;
    }
    side2
    {
        type            symmetryPlane;
    }
    procBoundary6to5
    {
        type            processor;
        value           nonuniform List<scalar> 
20
(
1.16272e+12
1.15562e+12
1.13908e+12
1.12483e+12
1.15728e+12
1.15737e+12
1.13941e+12
1.12378e+12
1.16144e+12
1.14973e+12
1.13413e+12
1.12322e+12
1.13988e+12
1.13655e+12
1.13213e+12
1.11611e+12
1.13446e+12
1.13068e+12
1.12296e+12
1.11163e+12
)
;
    }
    procBoundary6to7
    {
        type            processor;
        value           nonuniform List<scalar> 
20
(
1.59596e+12
1.5563e+12
1.53227e+12
1.4894e+12
1.68756e+12
1.60556e+12
1.51271e+12
1.44031e+12
1.47748e+12
1.41504e+12
1.3854e+12
1.26291e+12
1.21157e+12
1.20201e+12
1.09373e+12
1.04933e+12
1.24967e+12
1.18013e+12
1.12313e+12
9.2369e+11
)
;
    }
    procBoundary6to14
    {
        type            processor;
        value           nonuniform List<scalar> 
50
(
1.12212e+12
1.12868e+12
1.13166e+12
1.13754e+12
1.16032e+12
1.16993e+12
1.17246e+12
1.17868e+12
1.19068e+12
1.2382e+12
1.10934e+12
1.10327e+12
1.10287e+12
1.12154e+12
1.14553e+12
1.20629e+12
1.19486e+12
1.29855e+12
1.2571e+12
1.22768e+12
1.09568e+12
1.09244e+12
1.09032e+12
1.08565e+12
1.09588e+12
1.11541e+12
1.12796e+12
1.09323e+12
1.03056e+12
1.09488e+12
1.09278e+12
1.08633e+12
1.08038e+12
1.07268e+12
1.06332e+12
1.05076e+12
1.02036e+12
9.83226e+11
9.81775e+11
1.01252e+12
1.09068e+12
1.08408e+12
1.07771e+12
1.06991e+12
1.05894e+12
1.04256e+12
1.02463e+12
9.99936e+11
9.79648e+11
9.51852e+11
)
;
    }
}


// ************************************************************************* //
