/*--------------------------------*- C++ -*----------------------------------*\
| =========                 |                                                 |
| \\      /  F ield         | OpenFOAM: The Open Source CFD Toolbox           |
|  \\    /   O peration     | Version:  2.4.0                                 |
|   \\  /    A nd           | Web:      www.OpenFOAM.org                      |
|    \\/     M anipulation  |                                                 |
\*---------------------------------------------------------------------------*/
FoamFile
{
    version     2.0;
    format      ascii;
    class       volSymmTensorField;
    location    "0.01";
    object      B;
}
// * * * * * * * * * * * * * * * * * * * * * * * * * * * * * * * * * * * * * //

dimensions      [0 2 -2 0 0 0 0];

internalField   nonuniform List<symmTensor> 
60
(
(5.25023e+16 6.41937e+12 -1.15853e+12 5.24949e+16 1.38029e+11 5.24975e+16)
(1.09814e+16 2.43333e+12 -2.00543e+12 1.09708e+16 4.69192e+11 1.09746e+16)
(1.00764e+16 -1.05401e+12 -9.29316e+11 1.00647e+16 -1.97519e+12 1.007e+16)
(8.33373e+15 7.19928e+12 -5.39282e+12 8.30925e+15 2.29991e+11 8.32023e+15)
(8.24414e+15 4.5754e+12 -2.86004e+12 8.23672e+15 9.66341e+11 8.23935e+15)
(8.05009e+16 1.41954e+13 -6.09373e+12 8.04883e+16 2.94598e+11 8.04907e+16)
(2.21077e+16 3.5071e+12 -2.7864e+11 2.20963e+16 1.27099e+12 2.21005e+16)
(7.02053e+15 1.44137e+12 -3.67401e+11 7.0069e+15 -4.23062e+11 7.01303e+15)
(9.60415e+15 4.93752e+12 -3.66475e+12 9.59433e+15 -5.15791e+10 9.60023e+15)
(1.31495e+16 9.51026e+12 -5.64807e+12 1.31375e+16 3.95677e+11 1.3144e+16)
(4.14733e+16 6.74529e+12 -9.41595e+11 4.14712e+16 -1.8693e+11 4.14725e+16)
(2.24827e+16 4.29876e+12 7.70452e+11 2.24742e+16 2.85255e+11 2.24786e+16)
(9.45816e+15 4.11882e+12 -8.92338e+11 9.45055e+15 -2.92943e+11 9.45444e+15)
(1.52737e+16 3.17038e+12 -2.6906e+12 1.527e+16 -1.79706e+11 1.52723e+16)
(2.43872e+16 2.85689e+12 -1.56383e+12 2.43852e+16 -4.37145e+10 2.43862e+16)
(2.27921e+16 8.91181e+12 -1.76193e+12 2.27887e+16 -4.6707e+11 2.27907e+16)
(1.38178e+16 1.54014e+12 -2.93581e+11 1.38169e+16 -2.60606e+11 1.38177e+16)
(1.82587e+16 3.16828e+12 -5.89085e+11 1.82565e+16 3.01005e+11 1.82573e+16)
(3.15401e+16 1.22951e+13 -3.41606e+12 3.15371e+16 2.64384e+11 3.15375e+16)
(3.39125e+16 7.89245e+12 -2.36561e+12 3.39144e+16 -9.35415e+11 3.39141e+16)
(6.9945e+15 3.1137e+12 -3.1099e+11 6.99537e+15 -1.61912e+12 6.99259e+15)
(8.03483e+15 -2.27154e+12 6.63564e+11 8.03419e+15 -1.35717e+12 8.03436e+15)
(8.42867e+15 -5.37579e+11 2.46221e+11 8.42463e+15 -7.41259e+11 8.42583e+15)
(4.51078e+16 8.84112e+12 -1.54801e+12 4.50974e+16 4.67052e+11 4.51e+16)
(2.29037e+16 7.13377e+12 -1.89566e+12 2.28938e+16 4.35867e+11 2.28963e+16)
(6.61829e+16 5.58884e+12 -3.7928e+11 6.61735e+16 -3.02245e+11 6.61713e+16)
(1.95325e+16 -5.16241e+12 1.53942e+12 1.95238e+16 -1.54038e+12 1.95248e+16)
(7.33431e+15 -2.30506e+11 3.97982e+10 7.33258e+15 -4.4496e+11 7.33157e+15)
(3.4149e+16 5.46935e+12 -1.2259e+12 3.41453e+16 9.88098e+10 3.41458e+16)
(2.63454e+16 2.13909e+13 -6.68875e+12 2.63288e+16 1.58852e+12 2.63328e+16)
(2.64171e+16 7.89055e+12 1.93815e+12 2.64134e+16 1.58452e+11 2.64123e+16)
(3.1557e+15 -1.4686e+12 1.82977e+12 3.14848e+15 1.32308e+11 3.15077e+15)
(1.59764e+16 1.10179e+12 -1.06143e+12 1.598e+16 -7.79954e+11 1.59737e+16)
(2.49749e+16 5.15617e+12 -2.51087e+12 2.49727e+16 -3.19692e+11 2.49724e+16)
(2.92463e+16 9.48649e+12 -4.69965e+12 2.92344e+16 6.55103e+11 2.92384e+16)
(2.90337e+16 8.16717e+12 1.18212e+12 2.903e+16 -8.78737e+10 2.90281e+16)
(4.33499e+15 8.42631e+12 5.26601e+11 4.3233e+15 1.03229e+12 4.32801e+15)
(2.72235e+16 4.88621e+12 -9.0125e+11 2.72353e+16 -8.47302e+11 2.7226e+16)
(2.62335e+15 2.78605e+12 -5.91213e+11 2.6264e+15 2.23702e+11 2.62528e+15)
(1.89858e+16 7.67175e+12 -2.3404e+12 1.89825e+16 -6.65091e+11 1.89837e+16)
(9.04437e+15 -2.74999e+12 -5.5107e+10 9.03991e+15 -1.57523e+12 9.04336e+15)
(1.43682e+16 9.8242e+11 5.3179e+11 1.43631e+16 -1.13413e+12 1.43656e+16)
(3.11091e+16 6.44773e+12 4.90565e+11 3.11017e+16 2.96988e+11 3.11042e+16)
(2.50576e+16 1.45842e+13 -1.50465e+11 2.5044e+16 1.17949e+12 2.50513e+16)
(3.46588e+15 9.50956e+12 -5.64906e+11 3.45831e+15 1.05535e+12 3.46396e+15)
(9.90176e+15 -2.57247e+12 1.13151e+12 9.90078e+15 -1.17575e+12 9.90201e+15)
(3.57387e+15 8.58763e+11 6.43414e+11 3.5749e+15 -8.5726e+11 3.57415e+15)
(1.84572e+16 2.53703e+12 -1.65588e+11 1.84562e+16 2.34931e+11 1.84554e+16)
(4.49339e+16 3.74936e+12 -5.35664e+11 4.49283e+16 2.81346e+11 4.49299e+16)
(3.11295e+16 6.01785e+12 -7.36746e+11 3.11185e+16 8.12132e+11 3.11217e+16)
(3.95532e+16 5.57754e+12 2.09333e+12 3.95544e+16 -8.14986e+11 3.95506e+16)
(2.96642e+16 2.74153e+12 3.95462e+11 2.96681e+16 -3.10075e+11 2.96643e+16)
(1.59611e+16 9.72575e+11 -1.75459e+11 1.59624e+16 7.4403e+10 1.59609e+16)
(2.10482e+16 8.00576e+12 -1.61198e+12 2.10478e+16 2.05258e+11 2.1044e+16)
(2.54759e+16 3.23333e+12 -6.61318e+11 2.54726e+16 2.67716e+11 2.54733e+16)
(8.75092e+16 1.59084e+13 1.40254e+12 8.7521e+16 -1.11764e+12 8.75117e+16)
(3.09591e+16 6.71869e+12 2.24415e+11 3.09725e+16 1.88638e+11 3.09621e+16)
(2.37286e+16 2.19919e+12 -1.57534e+11 2.37334e+16 -2.40746e+11 2.37293e+16)
(1.66313e+16 1.06546e+12 5.5731e+10 1.6633e+16 1.19251e+11 1.66312e+16)
(1.23038e+16 3.03067e+12 -2.98594e+11 1.23036e+16 1.82948e+11 1.23019e+16)
)
;

boundaryField
{
    inlet
    {
        type            calculated;
        value           nonuniform 0();
    }
    outlet
    {
        type            calculated;
        value           nonuniform 0();
    }
    bottom
    {
        type            calculated;
        value           nonuniform 0();
    }
    top
    {
        type            symmetryPlane;
    }
    side1
    {
        type            symmetryPlane;
    }
    side2
    {
        type            symmetryPlane;
    }
    procBoundary93to29
    {
        type            processor;
        value           nonuniform List<symmTensor> 
20
(
(6.31868e+11 1.80516e+11 -5.34939e+11 -7.37055e+11 -3.82704e+10 2.40735e+11)
(2.49314e+12 2.13433e+11 -2.4426e+12 -3.97497e+12 6.38976e+11 4.14095e+11)
(1.0691e+12 9.58996e+11 -8.78068e+11 -3.87986e+12 4.46886e+11 1.04356e+12)
(1.49143e+11 7.25846e+11 -6.46518e+11 -1.97501e+12 2.37961e+11 6.96702e+11)
(1.11412e+11 9.48437e+11 -6.92365e+11 -7.62342e+11 5.95515e+11 3.89342e+11)
(-3.73907e+11 7.80025e+11 -2.50809e+12 -1.06688e+12 -9.52001e+11 6.0001e+11)
(3.96885e+12 -9.01026e+11 -1.89637e+12 -3.17033e+12 4.66879e+11 8.1455e+11)
(5.58041e+12 9.09946e+11 -1.26347e+12 -6.20615e+12 9.48668e+11 1.31663e+12)
(1.35841e+12 1.34963e+12 -6.13082e+11 -1.6516e+12 1.2118e+11 5.25241e+11)
(-7.66219e+10 5.8352e+12 -1.75816e+12 -7.44796e+11 8.16757e+11 1.05618e+12)
(-1.22382e+12 1.80926e+12 -1.4201e+12 -8.90406e+11 -1.54576e+12 1.00992e+12)
(-8.32081e+11 -9.85761e+11 2.5076e+11 -7.72623e+11 -6.76908e+11 1.1226e+12)
(1.44516e+12 1.18413e+12 -7.70053e+11 -4.18108e+12 6.07039e+11 1.65688e+12)
(3.18898e+12 7.45544e+12 -3.21444e+12 -4.27282e+12 4.77526e+09 1.49337e+12)
(9.2107e+11 7.5932e+12 -2.85357e+12 -9.70081e+11 -2.00473e+11 9.88239e+11)
(1.81726e+12 4.06783e+12 -2.58409e+12 -5.00647e+12 -2.03072e+12 1.44547e+12)
(-1.03585e+12 -9.65388e+11 -1.15208e+12 -1.22115e+12 -1.42864e+12 1.30906e+12)
(-7.12406e+11 1.47167e+12 -4.48299e+11 -2.65553e+11 1.54142e+11 5.93466e+11)
(5.70097e+10 9.491e+12 -2.0078e+12 -5.69912e+11 3.44223e+11 7.66198e+11)
(-1.611e+12 1.14979e+13 -2.72648e+12 8.31847e+11 -7.1438e+11 8.90153e+11)
)
;
    }
    procBoundary93to77
    {
        type            processor;
        value           nonuniform List<symmTensor> 
15
(
(8.09224e+12 5.17455e+12 -1.35535e+12 -4.97206e+12 -5.61427e+11 -8.3593e+11)
(4.48932e+12 8.23985e+11 -5.99715e+11 -2.07473e+12 -5.39836e+11 -7.92765e+11)
(5.61736e+12 -1.87907e+09 -3.66404e+11 -4.64454e+12 -3.50446e+12 -7.16131e+11)
(2.74864e+12 3.04655e+12 -6.96192e+10 -4.07562e+12 -4.45118e+11 -2.40823e+11)
(6.27309e+12 8.56068e+12 -1.98565e+12 -4.56509e+12 2.43468e+12 -1.19001e+12)
(6.44468e+12 2.21432e+12 -2.4078e+12 -3.74913e+12 -2.31636e+12 -9.08891e+11)
(7.45372e+11 -7.47539e+10 -3.95502e+10 -1.66853e+11 -2.91873e+11 -8.7246e+10)
(5.83936e+12 6.79708e+11 -2.5696e+11 -6.11345e+12 -1.44265e+12 -4.0895e+11)
(4.57397e+12 8.41016e+12 -1.24365e+12 -3.74746e+12 -1.988e+11 -5.83839e+11)
(7.15924e+12 1.71112e+13 -4.47264e+12 -6.66498e+12 2.99304e+11 -1.8629e+12)
(4.9263e+12 -8.72908e+11 -5.53261e+11 -5.00811e+12 -4.37913e+11 2.12895e+11)
(4.32833e+12 3.34028e+11 9.26111e+10 -3.30986e+12 -7.02044e+11 9.29177e+10)
(3.5599e+12 3.5056e+12 2.42565e+10 -2.85394e+12 4.08968e+10 -3.19211e+11)
(5.29724e+12 9.19441e+12 -7.31329e+11 -2.98717e+12 4.27938e+11 -6.43418e+11)
(3.40117e+12 3.42033e+12 -7.20752e+11 -2.24485e+12 1.1703e+11 -1.36898e+11)
)
;
    }
    procBoundary93to92
    {
        type            processor;
        value           nonuniform List<symmTensor> 
12
(
(2.91155e+12 3.96297e+12 -3.28024e+11 -4.42233e+12 7.56777e+11 -6.53401e+11)
(4.35315e+12 6.11385e+12 -3.27747e+12 -1.29654e+12 -2.35188e+11 -1.88252e+12)
(-5.15075e+11 9.2499e+12 -3.74288e+12 1.66678e+12 -2.30851e+12 -7.28992e+11)
(9.36914e+11 5.20047e+12 -1.35482e+12 7.81464e+11 -5.43784e+11 -3.23576e+11)
(1.68141e+12 1.42179e+12 -1.3958e+11 -9.06937e+11 4.42695e+11 -2.15797e+11)
(1.82656e+12 2.85082e+12 -3.35767e+11 -4.88346e+11 4.92959e+11 -7.90946e+11)
(1.11046e+12 1.12251e+13 -1.0081e+12 -6.34187e+11 6.25673e+11 -1.94532e+12)
(3.53174e+12 2.41743e+13 8.87396e+11 -3.71499e+12 -1.61689e+12 -3.33237e+12)
(-2.65584e+12 -1.08739e+13 -2.1535e+12 -3.61804e+12 -9.86085e+11 2.07634e+11)
(2.28886e+12 -3.75332e+12 1.78116e+11 -4.75466e+12 2.1517e+11 1.87685e+11)
(5.37554e+12 1.48346e+12 1.28411e+12 -6.8399e+12 1.42087e+11 -2.10248e+11)
(8.92967e+11 8.8007e+12 2.05459e+12 -3.25566e+12 -7.85852e+11 -1.75363e+12)
)
;
    }
    procBoundary93to94
    {
        type            processor;
        value           nonuniform List<symmTensor> 
12
(
(4.24987e+12 5.03015e+12 -4.73367e+12 -3.3453e+12 3.36219e+12 -1.08637e+12)
(6.00892e+12 1.12891e+13 -5.06095e+12 -8.08134e+12 2.43869e+12 -1.03122e+12)
(4.72695e+12 1.3307e+13 -4.65797e+12 -4.04162e+12 -2.07859e+10 5.60705e+11)
(-1.7968e+12 5.83412e+12 -2.15759e+12 3.22522e+11 -1.3737e+12 9.98075e+11)
(6.06588e+12 4.76322e+12 -2.28157e+12 -2.25961e+12 1.24236e+11 -9.59395e+11)
(3.71985e+12 5.63264e+12 -1.66627e+12 -3.6951e+12 5.66155e+11 -6.95068e+11)
(9.57444e+12 1.28988e+13 -4.77787e+12 -1.02643e+13 1.62653e+12 -4.38067e+11)
(2.0216e+12 5.7129e+12 -1.9043e+12 -1.80645e+12 -4.72094e+11 2.34278e+10)
(-1.7582e+12 1.20807e+11 -9.92081e+11 -1.28868e+12 -2.19567e+11 2.58849e+11)
(8.53031e+12 6.64592e+11 -3.13015e+11 -5.07035e+12 8.61966e+11 -5.76546e+11)
(4.00261e+12 2.25259e+12 -7.73979e+11 -2.4666e+12 5.14573e+11 -8.88812e+11)
(9.1653e+11 1.22388e+12 -2.94308e+11 -5.93839e+11 5.22863e+10 -5.05007e+11)
)
;
    }
    procBoundary93to109
    {
        type            processor;
        value           nonuniform List<symmTensor> 
15
(
(4.82981e+12 6.37584e+12 -9.0773e+11 -2.41171e+12 1.8783e+12 -8.30318e+11)
(1.76383e+12 4.03715e+12 -6.51526e+10 1.60639e+11 -1.36084e+11 -1.3257e+11)
(4.05263e+11 6.11253e+12 -4.30739e+11 1.5072e+12 1.53484e+12 -7.17017e+11)
(-5.50122e+12 1.0347e+13 -2.90434e+12 7.21983e+12 -1.9342e+11 -5.63654e+11)
(-5.07381e+12 6.43661e+12 -3.58418e+12 3.40414e+12 -1.26202e+12 3.1864e+11)
(3.39673e+12 1.38441e+13 1.21936e+12 -3.78264e+12 1.59602e+12 -1.83215e+12)
(1.48792e+12 1.31698e+13 -1.69782e+11 2.09914e+12 2.97118e+12 -2.10093e+12)
(-7.92175e+11 3.66658e+12 -5.00996e+11 2.32124e+12 6.80102e+11 -8.25524e+11)
(-4.28875e+12 2.52486e+12 -2.02939e+12 5.1868e+12 3.64056e+11 -1.88485e+12)
(-4.1745e+12 6.50176e+12 -2.89e+12 3.43235e+12 -1.26945e+12 -4.77774e+11)
(-1.92239e+12 6.60119e+12 5.57603e+10 2.83207e+12 -2.42159e+11 -4.85015e+11)
(-9.95096e+12 1.28241e+13 -6.16888e+11 1.33678e+13 3.33961e+12 -4.78189e+12)
(-2.08127e+13 1.33091e+13 -3.19591e+12 2.45953e+13 -1.4583e+12 -7.20432e+12)
(-1.32163e+12 1.19421e+12 -3.90023e+11 1.91072e+12 3.42501e+11 -1.17378e+12)
(7.06631e+10 1.24091e+12 -6.42154e+11 1.19137e+12 -1.22132e+10 -7.23427e+11)
)
;
    }
}


// ************************************************************************* //
