/*--------------------------------*- C++ -*----------------------------------*\
| =========                 |                                                 |
| \\      /  F ield         | OpenFOAM: The Open Source CFD Toolbox           |
|  \\    /   O peration     | Version:  2.4.0                                 |
|   \\  /    A nd           | Web:      www.OpenFOAM.org                      |
|    \\/     M anipulation  |                                                 |
\*---------------------------------------------------------------------------*/
FoamFile
{
    version     2.0;
    format      ascii;
    class       surfaceScalarField;
    location    "0.01";
    object      phib;
}
// * * * * * * * * * * * * * * * * * * * * * * * * * * * * * * * * * * * * * //

dimensions      [0 3 -1 0 0 0 0];

internalField   nonuniform List<scalar> 
133
(
1216.85
1002.11
-81.8312
944.82
595.754
-32.718
717.43
717.724
-169.997
482.069
640.296
-129.275
357.402
-75.4879
1274.5
1237.87
-134.395
835.565
942.016
-105.845
667.946
878.766
-199.939
523.778
838.675
-214.86
558.018
-123.375
1076.11
1420.06
-201.897
697.641
1303.09
-232.91
579.332
1029.64
-340.289
453.552
990.439
-249.09
679.936
-127.379
177.802
-182.506
121.419
-217.378
-40.7301
-185.279
-151.524
-176.393
-141.788
1559.36
762.204
83.5878
1600.41
698.448
3.05402
1302.73
1480.76
-38.5122
892.95
963.355
-7.92294
533.473
17.8696
1397.22
920.229
143.262
1099.23
897.813
-7.19388
997.334
1462.56
-79.8019
749.846
1055.41
-59.3417
595.894
-16.7254
1055.99
939.884
-69.1809
871.791
1035.24
-186.046
924.055
1265.47
-195.301
795.795
1086.5
-151.756
859.183
-98.7936
260.45
-120.809
-101.985
-170.261
446.186
-144.204
420.585
-183
-198.899
1572.27
1666.38
1210.99
1733.81
958.323
1472.17
745.685
748.013
326.375
1586.34
1650.39
1645.45
1667.49
1565
1472.84
1023.39
1230.32
647.365
1075.02
1592.47
1276.44
1280.09
1404.89
1149.16
1371.73
1111.8
849.504
17.164
306.549
477.511
667.911
)
;

boundaryField
{
    inlet
    {
        type            fixedValue;
        value           nonuniform 0();
    }
    outlet
    {
        type            calculated;
        value           nonuniform 0();
    }
    bottom
    {
        type            fixedValue;
        value           nonuniform 0();
    }
    top
    {
        type            symmetryPlane;
        value           nonuniform List<scalar> 
20
(
-5.03258e-14
-5.82952e-14
-7.43291e-14
-1.87256e-14
-3.81446e-14
-8.51965e-14
-6.32687e-14
-2.09757e-14
-4.46108e-14
-7.45919e-14
-4.67416e-14
-3.15219e-14
-1.57887e-14
-4.37901e-14
-6.02356e-14
-2.58284e-14
-1.15936e-14
-1.93152e-14
-3.89092e-14
-2.80027e-14
)
;
    }
    side1
    {
        type            symmetryPlane;
        value           nonuniform 0();
    }
    side2
    {
        type            symmetryPlane;
        value           nonuniform 0();
    }
    procBoundary93to29
    {
        type            processor;
        value           nonuniform List<scalar> 
20
(
218.063
112.721
116.456
130.598
111.327
265.833
198.613
206.6
160.704
82.1562
209.553
250.476
307.913
223.249
118.017
248.083
198.499
185.828
164.201
106.822
)
;
    }
    procBoundary93to77
    {
        type            processor;
        value           nonuniform List<scalar> 
15
(
-809.477
-403.617
-436.749
-406.251
-244.892
-1125.75
-775.269
-1314.58
-674.931
-346.446
-1467.61
-1369.63
-1258.16
-543.345
-326.309
)
;
    }
    procBoundary93to92
    {
        type            processor;
        value           nonuniform List<scalar> 
12
(
-1544.75
-1640.33
-1265.04
-205.687
-1361.05
-1832.34
-1208
-278.978
-1688.08
-1427.25
-1085.93
353.322
)
;
    }
    procBoundary93to94
    {
        type            processor;
        value           nonuniform List<scalar> 
12
(
333.628
364.448
341.39
-59.4313
612.58
580.929
504.189
364.138
763.558
685.776
1071.08
557.454
)
;
    }
    procBoundary93to109
    {
        type            processor;
        value           nonuniform List<scalar> 
15
(
1383.39
1378.69
1191.57
1113.77
623.519
897.153
1350.79
676.401
1118.97
973.857
1101.45
820.518
834.084
738.499
761.299
)
;
    }
}


// ************************************************************************* //
