/*--------------------------------*- C++ -*----------------------------------*\
| =========                 |                                                 |
| \\      /  F ield         | OpenFOAM: The Open Source CFD Toolbox           |
|  \\    /   O peration     | Version:  2.4.0                                 |
|   \\  /    A nd           | Web:      www.OpenFOAM.org                      |
|    \\/     M anipulation  |                                                 |
\*---------------------------------------------------------------------------*/
FoamFile
{
    version     2.0;
    format      ascii;
    class       volScalarField;
    location    "0.16";
    object      nut;
}
// * * * * * * * * * * * * * * * * * * * * * * * * * * * * * * * * * * * * * //

dimensions      [0 2 -1 0 0 0 0];

internalField   nonuniform List<scalar> 
200
(
8.60524e+11
2.0801e+12
1.95451e+12
5.48441e+12
1.67391e+12
7.84481e+11
1.25994e+12
3.05697e+12
1.37168e+12
5.76769e+11
1.11844e+12
1.11425e+12
3.39939e+12
1.31624e+12
8.29812e+11
7.08232e+11
1.53658e+12
9.43061e+11
3.31938e+11
1.47615e+12
5.57272e+11
1.42625e+12
6.31765e+11
7.23524e+11
6.7527e+11
6.94109e+11
7.23042e+11
2.35078e+11
2.87356e+12
1.11782e+12
9.94427e+11
7.93459e+11
1.05775e+12
1.1822e+12
1.46018e+12
9.44287e+11
6.95344e+11
4.08537e+12
9.10151e+11
7.18783e+12
9.82052e+11
5.87051e+11
2.01598e+12
1.38644e+12
6.89737e+11
4.46074e+11
2.86271e+12
1.06497e+12
4.18387e+11
1.25776e+12
4.55427e+11
6.98915e+11
8.68297e+11
8.57516e+11
4.46367e+11
1.15835e+12
5.6779e+11
3.2541e+11
2.48355e+12
9.7882e+11
9.49397e+11
1.31821e+12
9.37117e+11
6.06047e+11
8.9661e+11
8.57451e+11
2.04873e+11
3.50674e+12
5.20455e+11
5.94316e+12
1.1146e+12
1.37614e+12
1.7838e+12
1.46476e+12
1.41377e+12
6.97881e+11
2.97049e+12
1.2718e+12
2.19651e+12
4.98308e+12
2.54823e+11
3.84359e+11
8.48675e+11
8.91966e+11
3.65539e+11
1.36855e+12
4.52024e+11
8.88041e+10
5.44982e+11
5.08536e+11
4.57083e+11
7.54317e+11
1.00754e+12
5.83978e+11
8.95087e+11
3.35093e+11
1.03565e+11
1.66303e+12
2.73106e+11
2.14105e+12
9.04034e+11
1.15245e+12
9.73465e+11
8.31361e+11
4.9302e+11
8.54815e+11
1.4515e+12
9.88677e+11
3.81778e+11
2.39896e+12
1.52322e+12
3.15071e+11
9.9115e+11
9.56433e+11
4.8817e+11
6.48396e+11
8.22903e+11
7.44952e+11
1.62605e+12
1.52879e+12
1.96983e+11
1.34751e+11
4.50893e+11
2.02142e+11
6.17467e+11
2.10216e+11
1.6998e+11
2.88974e+11
1.41631e+11
7.97672e+11
1.59528e+11
2.30092e+11
2.33638e+11
4.37066e+11
1.45088e+11
6.03495e+11
4.18508e+11
1.92956e+11
2.5388e+11
6.44185e+11
5.56221e+11
4.90788e+11
6.48093e+11
4.9635e+11
5.23336e+11
1.76268e+11
1.05711e+12
1.06857e+12
8.81599e+11
1.62934e+12
5.1507e+11
7.8762e+11
6.61606e+11
9.64027e+11
9.47598e+11
9.051e+11
2.55406e+11
1.12585e+12
6.18938e+11
3.76166e+11
1.0082e+11
2.11853e+11
6.8104e+10
2.95248e+11
1.00642e+11
5.62846e+11
2.18501e+11
6.47242e+11
7.13544e+11
4.71737e+11
1.85376e+11
1.79625e+11
2.35306e+11
1.27917e+11
2.2448e+11
5.39738e+10
3.90904e+11
3.82753e+11
1.54343e+11
7.93198e+11
3.58191e+11
3.48379e+11
3.60045e+11
3.84184e+11
1.97843e+11
2.10026e+11
7.93409e+10
4.55261e+11
2.49094e+12
2.34437e+12
4.82909e+11
5.36019e+11
4.06193e+11
5.54449e+11
5.55368e+11
1.70059e+11
7.83723e+11
1.58231e+12
1.89511e+12
2.34266e+12
)
;

boundaryField
{
    inlet
    {
        type            calculated;
        value           nonuniform 0();
    }
    outlet
    {
        type            calculated;
        value           nonuniform List<scalar> 
20
(
2.78777e-13
1.122e-12
2.15624e-13
3.62526e-12
8.4612e-13
1.15034e-13
2.68277e-12
8.44743e-13
8.86343e-14
9.36889e-13
3.04974e-13
5.17097e-13
1.04364e-13
2.7568e-13
8.99529e-13
2.21756e-13
3.22656e-13
6.45729e-13
2.94867e-13
1.85341e-12
)
;
    }
    bottom
    {
        type            calculated;
        value           nonuniform List<scalar> 
40
(
2.44965e-12
5.6933e-13
8.16759e-13
9.42485e-13
9.71472e-13
3.98347e-12
1.08164e-12
6.80103e-13
7.63963e-12
2.8031e-12
4.95654e-13
8.48906e-13
4.54951e-12
9.82022e-13
5.13372e-13
1.09998e-12
1.26584e-12
6.09949e-13
5.96343e-13
1.34751e-12
6.56201e-13
6.39698e-13
7.49506e-13
1.00884e-12
1.35324e-12
1.18816e-12
8.50477e-13
7.79395e-13
2.08964e-12
9.12799e-13
4.48641e-13
2.90678e-12
1.04254e-12
7.9248e-13
1.73272e-12
3.34924e-12
8.60199e-13
7.61289e-13
1.57258e-12
3.35286e-12
)
;
    }
    top
    {
        type            symmetryPlane;
    }
    side1
    {
        type            symmetryPlane;
    }
    side2
    {
        type            symmetryPlane;
    }
    procBoundary15to7
    {
        type            processor;
        value           nonuniform List<scalar> 
50
(
7.55508e+11
1.42604e+12
2.71862e+12
2.75936e+12
7.45817e+12
1.94299e+12
1.22341e+12
1.89522e+12
3.86703e+12
9.56275e+11
6.2555e+11
1.63885e+12
7.36291e+11
3.16555e+12
2.07812e+12
8.29352e+11
6.16386e+11
3.7782e+12
1.16797e+12
4.40812e+11
3.76708e+11
4.84884e+11
6.81931e+11
1.04374e+12
1.01095e+12
1.60717e+11
1.87467e+12
5.67604e+11
2.00633e+11
9.77182e+11
1.67959e+11
3.31207e+11
2.02836e+11
6.19602e+11
1.26551e+11
7.50407e+11
1.44148e+11
4.60672e+11
7.28525e+11
5.28124e+11
2.84235e+11
1.06851e+11
3.32921e+11
1.92729e+11
5.69638e+11
3.64439e+11
7.45047e+11
7.86922e+11
8.67661e+11
8.32077e+11
)
;
    }
    procBoundary15to14
    {
        type            processor;
        value           nonuniform List<scalar> 
20
(
3.79828e+11
4.61988e+11
5.30196e+11
9.70764e+11
4.32087e+11
2.02473e+11
8.30342e+11
1.03225e+12
1.97477e+11
4.34776e+11
1.02337e+12
8.81349e+11
1.07223e+11
1.26905e+11
4.54949e+11
9.75053e+11
1.2759e+11
1.79985e+11
2.69436e+11
3.86454e+11
)
;
    }
    procBoundary15to23
    {
        type            processor;
        value           nonuniform List<scalar> 
50
(
1.12906e+12
1.60297e+12
1.89636e+12
2.37324e+12
2.28249e+12
1.85412e+12
2.6705e+12
1.42595e+12
3.19207e+12
6.64012e+12
5.76913e+11
8.19539e+11
9.7576e+11
5.50847e+11
4.39128e+11
2.16434e+12
4.23845e+12
1.34726e+12
2.35497e+12
8.75403e+12
1.39964e+11
1.36849e+12
1.02299e+12
5.67804e+11
1.03647e+12
1.95423e+12
1.45462e+12
1.45105e+12
1.5774e+12
2.4459e+12
1.31704e+12
2.36615e+11
5.64339e+11
7.32711e+11
5.969e+11
8.79502e+11
3.81441e+11
8.24584e+11
1.34858e+12
8.48774e+11
2.40419e+11
4.7929e+11
3.88454e+11
4.50929e+11
6.35476e+11
5.78023e+11
6.44582e+11
1.23332e+12
1.56133e+12
2.15897e+12
)
;
    }
}


// ************************************************************************* //
