/*--------------------------------*- C++ -*----------------------------------*\
| =========                 |                                                 |
| \\      /  F ield         | OpenFOAM: The Open Source CFD Toolbox           |
|  \\    /   O peration     | Version:  2.4.0                                 |
|   \\  /    A nd           | Web:      www.OpenFOAM.org                      |
|    \\/     M anipulation  |                                                 |
\*---------------------------------------------------------------------------*/
FoamFile
{
    version     2.0;
    format      ascii;
    class       volScalarField;
    location    "0.05";
    object      alpha;
}
// * * * * * * * * * * * * * * * * * * * * * * * * * * * * * * * * * * * * * //

dimensions      [0 0 0 0 0 0 0];

internalField   nonuniform List<scalar> 
200
(
5.29244e-23
4.597e-21
4.61367e-19
5.24469e-17
6.07207e-15
6.53697e-13
6.19312e-11
4.88959e-09
2.8955e-07
9.80046e-06
7.78938e-21
5.5405e-19
4.31103e-17
4.3248e-15
5.19953e-13
6.1604e-11
6.48811e-09
5.76567e-07
3.90393e-05
0.00154223
9.45089e-19
5.60147e-17
2.41503e-15
5.73328e-14
8.44847e-15
6.49984e-13
6.16063e-11
4.86649e-09
2.88333e-07
9.76439e-06
7.46715e-17
4.82773e-15
2.28918e-13
6.03295e-12
2.28956e-13
8.59911e-15
3.25068e-13
2.31057e-11
1.21693e-09
3.60643e-08
1.66241e-20
9.09378e-19
3.5934e-17
7.75203e-16
6.58972e-17
2.95871e-15
2.54802e-13
1.81095e-11
9.53481e-10
2.82479e-08
3.62411e-18
2.14815e-16
9.26164e-15
2.19752e-13
1.16128e-14
2.53536e-13
2.40169e-11
1.89754e-09
1.12449e-07
3.80883e-06
5.72721e-16
3.70323e-14
1.75617e-12
4.62879e-11
1.75621e-12
3.99716e-14
2.53905e-13
1.80145e-11
9.48976e-10
2.81292e-08
4.93704e-14
3.51142e-12
1.85013e-10
5.48514e-09
1.85013e-10
3.51144e-12
5.08402e-14
9.55883e-14
4.50499e-12
1.18715e-10
6.20625e-18
3.67772e-16
1.5852e-14
3.75996e-13
1.58521e-14
3.75082e-16
5.835e-16
3.73035e-14
1.76786e-12
4.65651e-11
1.46613e-15
9.48008e-14
4.49573e-12
1.18495e-10
4.49574e-12
9.53747e-14
5.09112e-14
3.51626e-12
1.85241e-10
5.49117e-09
2.52759e-13
1.79774e-11
9.4722e-10
2.80829e-08
9.4722e-10
1.79775e-11
2.53333e-13
4.00202e-14
1.75861e-12
4.63451e-11
2.39674e-11
1.89403e-09
1.12264e-07
3.80335e-06
1.12264e-07
1.89403e-09
2.39675e-11
2.52963e-13
1.1621e-14
2.20054e-13
1.25505e-15
8.11313e-14
3.84647e-12
1.01356e-10
3.84647e-12
8.11315e-14
1.25602e-15
7.22489e-17
2.42881e-15
5.75839e-14
3.23527e-13
2.30108e-11
1.21243e-09
3.59458e-08
1.21243e-09
2.30109e-11
3.23603e-13
8.58056e-15
2.28956e-13
6.03295e-12
6.13535e-11
4.84851e-09
2.87386e-07
9.73631e-06
2.87386e-07
4.84851e-09
6.13535e-11
6.47052e-13
8.41878e-15
5.73326e-14
6.46414e-09
5.74673e-07
3.89271e-05
0.00153843
3.89271e-05
5.74673e-07
6.46414e-09
6.13512e-11
5.17607e-13
4.30501e-15
6.22287e-18
3.68683e-16
1.58879e-14
3.76771e-13
1.58879e-14
3.68684e-16
6.2229e-18
1.55036e-19
2.75655e-18
5.94025e-17
1.46975e-15
9.50159e-14
4.505e-12
1.18715e-10
4.505e-12
9.50159e-14
1.46985e-15
2.40765e-17
2.36185e-16
5.59774e-15
2.53332e-13
1.80145e-11
9.48976e-10
2.81291e-08
9.48976e-10
1.80145e-11
2.53332e-13
2.93926e-15
3.24996e-17
5.93323e-17
2.40168e-11
1.89754e-09
1.12449e-07
3.80883e-06
1.12449e-07
1.89754e-09
2.40168e-11
2.53321e-13
2.35135e-15
2.0184e-17
)
;

boundaryField
{
    inlet
    {
        type            zeroGradient;
    }
    outlet
    {
        type            zeroGradient;
    }
    bottom
    {
        type            fixedValue;
        value           uniform 0;
    }
    top
    {
        type            symmetryPlane;
    }
    side1
    {
        type            symmetryPlane;
    }
    side2
    {
        type            symmetryPlane;
    }
    procBoundary5to4
    {
        type            processor;
        value           nonuniform List<scalar> 
20
(
6.47841e-25
1.03953e-22
1.29567e-20
9.45e-19
2.45475e-22
4.96799e-20
7.24721e-18
5.72687e-16
8.50987e-20
1.85523e-17
2.93192e-15
2.52747e-13
1.58856e-17
3.75281e-15
6.46993e-13
6.13511e-11
8.53416e-20
1.86016e-17
2.93912e-15
2.53317e-13
)
;
    }
    procBoundary5to6
    {
        type            processor;
        value           nonuniform List<scalar> 
20
(
2.8955e-07
3.90393e-05
2.88333e-07
1.21692e-09
9.53479e-10
1.12449e-07
9.48975e-10
4.50497e-12
1.76784e-12
1.85241e-10
1.75858e-12
9.27556e-15
2.42859e-15
2.28917e-13
2.41501e-15
4.2955e-17
2.75547e-18
2.3598e-16
2.74051e-18
1.728e-19
)
;
    }
    procBoundary5to13
    {
        type            processor;
        value           nonuniform List<scalar> 
50
(
9.45061e-19
5.60121e-17
2.41465e-15
5.72822e-14
2.4148e-15
7.18639e-17
1.25745e-15
8.12643e-14
3.85212e-12
1.01489e-10
5.72718e-16
3.70326e-14
1.75618e-12
4.6288e-11
1.75618e-12
3.70332e-14
5.78556e-16
3.74441e-16
1.58417e-14
3.75768e-13
2.52758e-13
1.79775e-11
9.47223e-10
2.80829e-08
9.47224e-10
1.79775e-11
2.52758e-13
2.93282e-15
6.55575e-17
7.74093e-16
6.13534e-11
4.84853e-09
2.87387e-07
9.73631e-06
2.87387e-07
4.84853e-09
6.13538e-11
6.46998e-13
6.00423e-15
5.18227e-17
2.53328e-13
1.80145e-11
9.4898e-10
2.81292e-08
9.48979e-10
1.80145e-11
2.53333e-13
2.93921e-15
2.97615e-17
2.73504e-19
)
;
    }
}


// ************************************************************************* //
