/*--------------------------------*- C++ -*----------------------------------*\
| =========                 |                                                 |
| \\      /  F ield         | OpenFOAM: The Open Source CFD Toolbox           |
|  \\    /   O peration     | Version:  2.4.0                                 |
|   \\  /    A nd           | Web:      www.OpenFOAM.org                      |
|    \\/     M anipulation  |                                                 |
\*---------------------------------------------------------------------------*/
FoamFile
{
    version     2.0;
    format      ascii;
    class       surfaceScalarField;
    location    "0.05";
    object      phia;
}
// * * * * * * * * * * * * * * * * * * * * * * * * * * * * * * * * * * * * * //

dimensions      [0 3 -1 0 0 0 0];

internalField   nonuniform List<scalar> 
490
(
-1.55818e-05
1.23712e-05
2.98464e-06
-1.55818e-05
1.23649e-05
2.98468e-06
-1.55819e-05
1.23586e-05
2.98471e-06
-1.55819e-05
1.23524e-05
2.98474e-06
-1.5582e-05
1.23461e-05
2.98476e-06
-1.55821e-05
1.23399e-05
2.98479e-06
-1.55823e-05
1.23337e-05
2.98481e-06
-1.55827e-05
1.23274e-05
2.98484e-06
-1.59056e-05
1.2321e-05
2.98488e-06
1.20596e-05
3.06479e-06
-1.55818e-05
1.24495e-05
2.98463e-06
-1.55818e-05
1.24497e-05
2.98465e-06
-1.55819e-05
1.24498e-05
2.98467e-06
-1.5582e-05
1.24499e-05
2.98469e-06
-1.5582e-05
1.245e-05
2.98471e-06
-1.55822e-05
1.2446e-05
2.98473e-06
-1.5583e-05
1.22238e-05
2.98475e-06
-1.55869e-05
1.12137e-05
2.98479e-06
-1.61898e-05
1.00372e-05
2.98494e-06
6.0661e-06
3.13161e-06
-1.55818e-05
1.24496e-05
2.98464e-06
-1.55818e-05
1.24497e-05
2.98467e-06
-1.55819e-05
1.24499e-05
2.98469e-06
-1.55819e-05
1.24499e-05
2.98471e-06
-1.55785e-05
1.23546e-05
2.98473e-06
-1.79197e-05
6.77502e-06
2.99525e-06
-3.17012e-05
8.90257e-06
3.1224e-06
-5.69181e-05
7.95735e-06
3.59983e-06
-6.90296e-05
6.80359e-06
4.16862e-06
3.00947e-06
8.99838e-06
-1.55817e-05
2.98465e-06
-1.55818e-05
2.98468e-06
-1.55818e-05
2.9847e-06
-1.5492e-05
2.98481e-06
-1.14729e-05
3.26847e-06
-4.80025e-05
1.37064e-05
-8.95156e-05
5.16671e-06
-9.0929e-05
4.70049e-06
-9.14654e-05
4.5304e-06
4.44379e-06
-1.55818e-05
1.23776e-05
2.98463e-06
-1.55818e-05
1.23713e-05
2.98465e-06
-1.55819e-05
1.23649e-05
2.98467e-06
-1.5582e-05
1.23585e-05
2.98469e-06
-1.5582e-05
1.23522e-05
2.98471e-06
-1.55821e-05
1.23459e-05
2.98473e-06
-1.55822e-05
1.23396e-05
2.98475e-06
-1.55825e-05
1.23333e-05
2.98477e-06
-1.55831e-05
1.23268e-05
2.9848e-06
1.232e-05
2.98487e-06
-1.55819e-05
1.24494e-05
2.98462e-06
-1.55819e-05
1.24495e-05
2.98463e-06
-1.55819e-05
1.24496e-05
2.98464e-06
-1.55819e-05
1.24496e-05
2.98464e-06
-1.5582e-05
1.24497e-05
2.98465e-06
-1.55821e-05
1.24413e-05
2.98466e-06
-1.55825e-05
1.22713e-05
2.98467e-06
-1.55844e-05
1.14759e-05
2.98472e-06
-1.55914e-05
1.02593e-05
2.98489e-06
9.53139e-06
2.98537e-06
-1.55818e-05
1.24495e-05
2.98463e-06
-1.55819e-05
1.24496e-05
2.98464e-06
-1.55819e-05
1.24496e-05
2.98464e-06
-1.55819e-05
1.24496e-05
2.98465e-06
-1.55724e-05
1.22547e-05
2.98467e-06
-1.68477e-05
6.50821e-06
3.01221e-06
-2.55507e-05
8.61992e-06
3.24207e-06
-4.55274e-05
8.0231e-06
4.10562e-06
-6.6395e-05
6.88051e-06
5.71931e-06
6.19157e-06
7.41237e-06
-1.55818e-05
2.98463e-06
-1.55818e-05
2.98464e-06
-1.55818e-05
2.98465e-06
-1.53566e-05
2.98487e-06
-8.83295e-06
3.7066e-06
-4.02109e-05
1.35391e-05
-8.10797e-05
9.92053e-06
-8.54517e-05
9.88235e-06
-8.72439e-05
1.00092e-05
1.0159e-05
-1.55819e-05
1.23841e-05
2.98463e-06
-1.55819e-05
1.23776e-05
2.98465e-06
-1.55819e-05
1.23712e-05
2.98466e-06
-1.5582e-05
1.23647e-05
2.98467e-06
-1.5582e-05
1.23583e-05
2.98469e-06
-1.55821e-05
1.23518e-05
2.98794e-06
-1.55821e-05
1.23454e-05
3.01524e-06
-1.55821e-05
1.23389e-05
3.13407e-06
-1.55821e-05
1.23324e-05
3.47994e-06
1.23256e-05
4.18647e-06
-1.55819e-05
1.24494e-05
2.98462e-06
-1.55819e-05
1.24494e-05
2.98462e-06
-1.55819e-05
1.24494e-05
2.98462e-06
-1.55819e-05
1.24494e-05
2.98462e-06
-1.55819e-05
1.24493e-05
2.98464e-06
-1.55819e-05
1.24224e-05
3.01555e-06
-1.55818e-05
1.22314e-05
3.25737e-06
-1.55816e-05
1.15588e-05
4.09049e-06
-1.55811e-05
1.02221e-05
5.50545e-06
8.72048e-06
6.81095e-06
-1.55819e-05
1.24494e-05
2.98462e-06
-1.55819e-05
1.24494e-05
2.98462e-06
-1.55819e-05
1.24494e-05
2.98462e-06
-1.55819e-05
1.24492e-05
2.98477e-06
-1.55489e-05
1.18659e-05
3.46817e-06
-1.52821e-05
6.3682e-06
7.18908e-06
-1.42263e-05
6.16413e-06
7.80172e-06
-1.17734e-05
5.49579e-06
8.76773e-06
-8.31412e-06
4.16453e-06
1.03455e-05
2.66805e-06
1.21336e-05
-1.55819e-05
2.98462e-06
-1.55819e-05
2.98462e-06
-1.55817e-05
2.98643e-06
-1.48686e-05
6.38746e-06
-7.45885e-06
8.68603e-06
-7.57889e-07
1.28766e-05
-7.69563e-07
1.36959e-05
-8.01331e-07
1.43613e-05
-8.31986e-07
1.49152e-05
1.53848e-05
-1.55818e-05
1.23776e-05
2.97972e-06
-1.55819e-05
1.23712e-05
2.97933e-06
-1.55819e-05
1.23647e-05
2.97894e-06
-1.55819e-05
1.23583e-05
2.97857e-06
-1.55747e-05
1.23518e-05
3.06037e-06
-1.55144e-05
1.22892e-05
5.76067e-06
-1.52517e-05
1.18933e-05
6.3391e-06
-1.44791e-05
1.06347e-05
6.86835e-06
-1.28434e-05
8.49754e-06
7.5566e-06
6.24789e-06
8.55813e-06
-1.55819e-05
1.24494e-05
2.98012e-06
-1.55819e-05
1.24494e-05
2.97971e-06
-1.55819e-05
1.24494e-05
2.9793e-06
-1.55819e-05
1.24492e-05
2.97912e-06
-1.55199e-05
1.18151e-05
3.64433e-06
-1.50319e-05
6.32148e-06
6.21184e-06
-1.32759e-05
5.96463e-06
6.97459e-06
-9.88804e-06
4.8854e-06
8.22384e-06
-6.13611e-06
3.21054e-06
9.98745e-06
1.82929e-06
1.15914e-05
-1.55819e-05
1.24494e-05
2.97971e-06
-1.55819e-05
1.24494e-05
2.9793e-06
-1.55817e-05
1.24475e-05
2.98058e-06
-1.48041e-05
8.71957e-06
5.90887e-06
-7.34092e-06
5.73717e-06
7.63414e-06
-6.54447e-07
2.83327e-07
1.08139e-05
-6.70001e-07
2.83029e-07
1.1789e-05
-7.01844e-07
2.96563e-07
1.25758e-05
-7.31075e-07
3.09383e-07
1.32334e-05
3.206e-07
1.37933e-05
-1.55819e-05
2.9793e-06
-1.55796e-05
2.99767e-06
-1.10208e-05
8.20231e-06
-3.58403e-06
1.15189e-05
-6.7955e-07
1.28506e-05
-6.78268e-07
1.18925e-05
-7.20331e-07
1.28496e-05
-7.55247e-07
1.36332e-05
-7.84607e-07
1.42829e-05
1.48301e-05
-1.55818e-05
1.23711e-05
-1.55818e-05
1.23647e-05
-1.55818e-05
1.23583e-05
-1.53963e-05
1.23514e-05
-7.98072e-06
1.11045e-05
-6.51457e-07
3.26834e-07
-5.58665e-07
2.38457e-07
-5.8017e-07
2.43307e-07
-6.10109e-07
2.55767e-07
2.68154e-07
-1.55819e-05
1.24494e-05
-1.55819e-05
1.24494e-05
-1.55815e-05
1.24473e-05
-1.42375e-05
8.58029e-06
-6.71074e-06
5.25736e-06
-5.42089e-07
2.28535e-07
-5.77304e-07
2.41025e-07
-6.16352e-07
2.58413e-07
-6.50721e-07
2.73789e-07
2.87104e-07
-1.55819e-05
1.24494e-05
-1.55794e-05
1.24298e-05
-1.08358e-05
6.68678e-06
-3.34817e-06
2.50177e-06
-5.72824e-07
2.61541e-07
-5.71792e-07
2.3758e-07
-6.22246e-07
2.60699e-07
-6.63814e-07
2.7955e-07
-6.98876e-07
2.9525e-07
3.08558e-07
-1.5558e-05
-8.51669e-06
-1.10053e-06
-6.78501e-07
-6.27436e-07
-6.27451e-07
-6.77981e-07
-7.19538e-07
-7.54258e-07
)
;

boundaryField
{
    inlet
    {
        type            calculated;
        value           nonuniform 0();
    }
    outlet
    {
        type            calculated;
        value           nonuniform 0();
    }
    bottom
    {
        type            calculated;
        value           uniform 0;
    }
    top
    {
        type            symmetryPlane;
        value           uniform 0;
    }
    side1
    {
        type            symmetryPlane;
        value           uniform 0;
    }
    side2
    {
        type            symmetryPlane;
        value           nonuniform 0();
    }
    procBoundary5to4
    {
        type            processor;
        value           nonuniform List<scalar> 
20
(
1.55819e-05
1.55819e-05
1.55818e-05
1.55818e-05
1.55819e-05
1.55819e-05
1.55819e-05
1.55819e-05
1.55819e-05
1.55819e-05
1.55819e-05
1.55819e-05
1.55819e-05
1.55819e-05
1.55819e-05
1.55819e-05
1.55819e-05
1.55819e-05
1.55819e-05
1.55819e-05
)
;
    }
    procBoundary5to6
    {
        type            processor;
        value           nonuniform List<scalar> 
20
(
-4.01547e-05
-4.04734e-05
-6.5797e-05
-8.18776e-05
-1.58594e-05
-1.61149e-05
-7.16231e-05
-8.82266e-05
-1.55819e-05
-1.55798e-05
-5.27615e-06
-8.57912e-07
-1.04223e-05
-3.54408e-06
-7.54403e-07
-8.07395e-07
-6.36364e-07
-6.78191e-07
-7.2632e-07
-7.81011e-07
)
;
    }
    procBoundary5to13
    {
        type            processor;
        value           nonuniform List<scalar> 
50
(
1.24499e-05
1.245e-05
1.24497e-05
1.11073e-05
6.47907e-06
1.0196e-06
5.86524e-06
5.96943e-06
6.00514e-06
6.02222e-06
1.24498e-05
1.24498e-05
1.24491e-05
1.02253e-05
6.24627e-06
5.32302e-07
5.32545e-06
5.65282e-06
5.77221e-06
5.8338e-06
1.24496e-05
1.24496e-05
1.24475e-05
8.54272e-06
5.80906e-06
3.29688e-07
3.24548e-07
3.35569e-07
3.46452e-07
3.561e-07
1.24468e-05
1.24255e-05
6.66842e-06
2.66208e-06
3.05934e-07
2.86125e-07
3.04939e-07
3.20535e-07
3.33487e-07
3.4441e-07
1.22173e-05
6.40563e-06
6.31122e-07
3.05078e-07
2.86125e-07
2.6328e-07
2.86134e-07
3.04834e-07
3.20272e-07
3.33217e-07
)
;
    }
}


// ************************************************************************* //
