/*--------------------------------*- C++ -*----------------------------------*\
| =========                 |                                                 |
| \\      /  F ield         | OpenFOAM: The Open Source CFD Toolbox           |
|  \\    /   O peration     | Version:  2.4.0                                 |
|   \\  /    A nd           | Web:      www.OpenFOAM.org                      |
|    \\/     M anipulation  |                                                 |
\*---------------------------------------------------------------------------*/
FoamFile
{
    version     2.0;
    format      ascii;
    class       volVectorField;
    location    "0.05";
    object      Ur;
}
// * * * * * * * * * * * * * * * * * * * * * * * * * * * * * * * * * * * * * //

dimensions      [0 1 -1 0 0 0 0];

internalField   nonuniform List<vector> 
200
(
(-193.32 113.908 -53.8539)
(-168.392 -75.6527 -104.086)
(-170.96 112.852 -2.60113)
(-158.584 -68.508 -111.245)
(-185.795 154.157 62.2246)
(-207.556 -94.9429 -86.4001)
(-316.863 301.768 330.895)
(-348.454 -171.109 -172.046)
(-540.623 477.463 1030.9)
(-568.13 -311.501 -275.286)
(-136.419 15.9897 -52.8558)
(-156.771 158.325 -60.0385)
(-120.134 19.3029 -62.2437)
(-147.228 221.005 10.9044)
(-172.191 42.4063 -34.4973)
(-278.263 252.493 44.1302)
(-278.221 -4.62575 -90.5992)
(-383.454 384.838 267.34)
(-378.089 -111.162 -250.425)
(-597.693 512.118 1198.71)
(-166.827 155.769 -65.7668)
(-99.8008 40.3042 -59.879)
(-100.205 227.284 8.42346)
(-128.913 74.9658 -10.8692)
(-101.258 317.395 121.118)
(-150.807 120.304 7.4351)
(-255.943 300.187 -3.14488)
(-190.186 131.156 -62.3101)
(-233.61 426.683 118.548)
(-219.446 21.3968 -178.726)
(-91.5901 54.7727 -47.3315)
(-123.118 180.576 -27.6906)
(-83.82 43.454 -51.2748)
(-52.0424 277.563 104.527)
(-136.501 72.854 29.474)
(-82.8313 359.905 176.597)
(-126.932 122.47 3.86883)
(-202.745 263.984 -8.37392)
(-93.5084 166.74 -36.0768)
(-67.6699 329.164 35.6963)
(-280.398 -11.4574 -165.284)
(-318.326 93.0509 -115.654)
(-314.935 10.2135 -102.11)
(-312.48 140.825 -254.841)
(-336.879 43.7202 59.0619)
(-275.223 146.423 63.8261)
(-422.466 146.628 54.9027)
(-567.322 408.721 167.658)
(-668.5 156.783 -111.466)
(-870.553 660.527 1153.09)
(-245.938 149.853 -100.743)
(-261.181 41.691 -142.154)
(-233.529 184.068 -111.967)
(-312.929 81.8367 28.0531)
(-168.532 187.024 62.587)
(-368.149 141.808 162.768)
(-356.782 326.45 68.8285)
(-425.52 232.485 -7.928)
(-464.441 636.923 158.843)
(-457.974 375.4 -150.632)
(-217.466 76.0938 -96.2062)
(-217.143 167.277 -80.183)
(-252.392 97.172 -65.3071)
(-105.428 202.951 23.509)
(-343.892 162.452 152.75)
(-112.274 314.558 212.619)
(-319.683 168.663 135.337)
(-316.156 379.883 11.2875)
(-260.164 299.394 -41.2521)
(-161.023 608.81 101.139)
(-214.435 182.539 -78.0661)
(-209.874 90.3792 -100.701)
(-182.499 169.642 -53.0622)
(-243.952 119.421 23.6228)
(-53.7712 254.877 145.035)
(-309.692 132.654 175.296)
(-82.2364 392.197 288.814)
(-223.363 117.345 94.8741)
(-267.292 315.638 -24.894)
(-133.218 238.792 -37.2916)
(-353.275 160.743 -281.995)
(-323.31 -37.7657 -57.745)
(-400.103 160.104 -507.753)
(-336.566 -53.7082 -22.9008)
(-384.591 208.618 -844.461)
(-423.579 -33.2231 204.773)
(-318.091 94.0051 -22.596)
(-481.377 174.758 341.734)
(-497.973 390.687 -169.514)
(-663.463 134.422 116.512)
(-293.734 -21.5526 -154.7)
(-335.517 157.409 -200.746)
(-315.723 -16.5218 -55.8518)
(-301.883 151.975 -568.998)
(-421.758 -30.9723 193.824)
(-185.371 -30.748 -11.3143)
(-516.693 116.757 349.429)
(-291.576 257.451 18.4693)
(-458.05 247.191 131.343)
(-306.882 705.432 290.642)
(-287.911 146.451 -51.7602)
(-265.637 56.3519 -191.452)
(-250.154 114.617 -172.77)
(-383.951 52.3945 37.1306)
(-108.435 22.3547 -44.9086)
(-559.091 204.429 348.697)
(-101.626 131.755 150.435)
(-461.978 140.037 295.068)
(-239.108 338.164 -30.16)
(-193.819 259.316 -25.7001)
(-265.543 88.9355 -87.46)
(-276.46 136.258 -44.1042)
(-298.769 70.8719 -112.386)
(-182.567 64.1338 -128.976)
(-440.574 205.968 233.064)
(-39.7244 93.5903 89.7703)
(-489.944 179.096 346.791)
(-65.8408 244.732 305.259)
(-313.155 28.1526 231.858)
(-253.859 242.065 -22.0008)
(-279.356 -45.1927 63.0919)
(-379.868 111.875 -437.324)
(-316.284 -69.794 104.675)
(-381.315 151.483 -780.061)
(-445.701 -80.642 323.634)
(-347.485 -118.587 -133.071)
(-451.232 49.1595 415.594)
(-200.025 112.853 -186.366)
(-461.742 95.2913 296.871)
(-423.098 395.648 35.1882)
(-324.684 64.2205 -103.236)
(-291.968 -83.1357 33.4109)
(-302.39 22.074 -479.226)
(-379.591 -115.096 352.793)
(-269.469 -192.884 -95.1419)
(-505.998 -4.52463 474.914)
(-135.942 -73.8042 -184.693)
(-454.704 111.511 420.017)
(-153.01 376.57 -197.86)
(-315.114 135.28 -10.6611)
(-248.965 -47.0255 -230.132)
(-322.728 66.4197 -217.586)
(-337.829 -114.31 195.296)
(-236.062 -183.522 -107.135)
(-537.025 12.9143 361.974)
(-137.544 -155.412 -243.729)
(-652.749 190.799 507.261)
(-125.148 2.85828 -95.2364)
(-443.781 146.445 313.516)
(-110.558 510.811 -33.1833)
(-327.686 230.694 77.1768)
(-224.787 -154.036 -183.107)
(-257.168 -113.427 -108.475)
(-481.66 53.2872 224.018)
(-182.634 -101.901 -314.689)
(-663.662 273.177 469.459)
(-72.9587 -69.2352 -111.513)
(-675.728 227.894 468.983)
(-76.5987 89.4132 309.277)
(-334.399 79.5131 196.232)
(-142.33 13.1747 -435.514)
(-153.976 -77.7995 207.124)
(-120.494 -31.4237 -664.943)
(-194.903 -19.4859 322.978)
(-34.5372 -120.273 -572.976)
(-167.056 31.8316 231.815)
(56.0544 -70.5656 -612.035)
(-112.9 36.5009 138.469)
(25.1264 42.8187 -698.028)
(-199.891 50.8637 -63.4293)
(-108.972 -71.5167 225.608)
(-72.851 -79.1461 -578.933)
(-212.654 -110.771 385.709)
(-42.3222 -227.967 -424.137)
(-197.554 -35.4804 371.374)
(77.1691 -148.873 -840.77)
(-180.969 -16.2563 277.215)
(36.5189 40.3841 -493.944)
(-117.145 0.421057 137.958)
(75.5651 -88.2267 -1025.78)
(-104.73 -98.3167 -266.145)
(-189.024 -119.369 266.854)
(-53.7236 -250.708 -372.673)
(-281.227 -72.8589 389.109)
(10.6408 -198.579 -536.463)
(-350.675 7.48788 458.644)
(4.64442 -179.437 -594.359)
(-278.181 12.1597 289.079)
(-21.072 -100.096 -682.456)
(-196.443 -2.29234 2.0785)
(-180.615 -122.587 18.8836)
(-168.339 -190.589 -176.504)
(-347.475 -22.123 298.015)
(-136.438 -184.448 -452.928)
(-504.503 86.2011 436.699)
(-102.978 -224.439 -653.662)
(-613.036 190.614 534.462)
(-98.4763 -202.869 -488.591)
(-387.145 13.3445 222.249)
(-108.619 -271.741 -349.625)
)
;

boundaryField
{
    inlet
    {
        type            calculated;
        value           nonuniform 0();
    }
    outlet
    {
        type            calculated;
        value           nonuniform 0();
    }
    bottom
    {
        type            calculated;
        value           uniform (0 0 0);
    }
    top
    {
        type            symmetryPlane;
    }
    side1
    {
        type            symmetryPlane;
    }
    side2
    {
        type            symmetryPlane;
    }
    procBoundary5to4
    {
        type            processor;
        value           nonuniform List<vector> 
20
(
(-193.134 -54.7223 -80.9473)
(-190.035 132.926 -72.7739)
(-119.2 47.2029 -34.9406)
(-178.899 163.775 -60.2567)
(-270.99 123.936 -103.119)
(-233.825 28.8869 -111.799)
(-218.45 165.246 -78.3314)
(-182.67 85.757 -60.4182)
(-277.912 -56.311 -131.545)
(-292.109 139.342 -89.2361)
(-264.426 52.5211 -102.097)
(-261.878 125.354 -11.7003)
(-305.432 144.638 -228.365)
(-250.545 -85.944 -18.7408)
(-286.824 90.0478 40.8369)
(-233.657 -55.5727 -89.0434)
(-91.5813 -40.9445 191.455)
(-115.827 -44.2609 -258.235)
(-115.795 -70.158 87.6631)
(-201.817 -13.9558 71.0747)
)
;
    }
    procBoundary5to6
    {
        type            processor;
        value           nonuniform List<vector> 
20
(
(-1149.35 746.173 2405.43)
(-478.604 -537.065 -494.776)
(-366.712 475.039 899.857)
(-16.1712 123.344 -61.8135)
(-872.284 59.6792 -129.391)
(-637.842 755.441 1614.52)
(-101.434 163.629 -153.215)
(-114.122 411.493 -98.6396)
(-837.746 781.252 1580.31)
(-328.293 84.7111 -248.468)
(-26.7387 532.961 -264.418)
(-170.492 143.296 -11.1544)
(-527.616 77.8007 -322.442)
(-1.36522 251.406 -906.564)
(-230.264 240.414 -62.8181)
(-113.801 126.77 -46.9589)
(-27.2463 -193.109 -1196.97)
(-218.079 -32.9071 -25.638)
(-133.469 -262.35 -315.687)
(-269.756 275.383 -473.834)
)
;
    }
    procBoundary5to13
    {
        type            processor;
        value           nonuniform List<vector> 
50
(
(-135.517 168.296 -38.66)
(-53.4815 60.1985 -54.806)
(-75.0928 203.703 19.3345)
(-62.2079 57.2435 -18.8074)
(-37.2119 283.509 144.349)
(-81.3765 49.8798 19.0422)
(-55.4422 349.779 189.509)
(-97.2218 109.589 -10.835)
(-145.927 209.584 10.0462)
(-64.0949 140.957 -14.3041)
(-158.007 83.8796 -67.5159)
(-201.82 184.845 -77.9934)
(-167.264 69.658 -83.1991)
(-140.923 185.257 -24.4351)
(-186.893 117.389 78.2612)
(-67.0637 279.939 219.921)
(-154.609 47.6684 98.9721)
(-71.7032 423.895 263.81)
(-157.638 81.2711 86.2356)
(-247.974 211.58 -34.3798)
(-271.806 152.302 9.32639)
(-265.114 91.0711 -77.4192)
(-272.239 126.24 -93.9984)
(-308.773 75.9076 23.175)
(-121.715 106.198 -91.9082)
(-371.084 218.574 308.727)
(-68.8341 156.418 263.705)
(-216.16 24.9841 226.297)
(-91.2178 290.18 240.779)
(-177.445 38.3442 374.803)
(-267.774 -52.3464 -33.692)
(-291.372 7.8916 -83.6972)
(-405.042 46.0284 113.96)
(-276.223 -27.3329 -268.194)
(-485.381 183.985 324.695)
(-111.232 -42.1541 -257.314)
(-630.089 315.428 499.828)
(-82.5301 5.75801 219.84)
(-286.881 -7.85855 196.631)
(-39.8957 120.059 149.994)
(-213.166 -95.8926 -87.4306)
(-303.227 1.03127 214.359)
(-227.831 -108.81 -403.437)
(-454.327 102.205 339.993)
(-206.406 -147.596 -682.159)
(-647.452 265.875 535.621)
(-161.119 -172.184 -426.506)
(-637.099 156.384 423.572)
(-143.6 -281.923 -189.536)
(-353.144 0.602788 -12.5807)
)
;
    }
}


// ************************************************************************* //
