/*--------------------------------*- C++ -*----------------------------------*\
| =========                 |                                                 |
| \\      /  F ield         | OpenFOAM: The Open Source CFD Toolbox           |
|  \\    /   O peration     | Version:  2.4.0                                 |
|   \\  /    A nd           | Web:      www.OpenFOAM.org                      |
|    \\/     M anipulation  |                                                 |
\*---------------------------------------------------------------------------*/
FoamFile
{
    version     2.0;
    format      ascii;
    class       volVectorField;
    location    "0.11";
    object      Ur;
}
// * * * * * * * * * * * * * * * * * * * * * * * * * * * * * * * * * * * * * //

dimensions      [0 1 -1 0 0 0 0];

internalField   nonuniform List<vector> 
200
(
(-2.00097e+07 -1.62494e+07 832924)
(-1.93773e+07 -1.6124e+07 -3.03066e+06)
(-2.19146e+07 -1.75924e+07 492008)
(-2.1365e+07 -1.7223e+07 -3.6497e+06)
(-2.41332e+07 -1.7709e+07 269205)
(-2.38282e+07 -1.6531e+07 -3.66225e+06)
(-2.64964e+07 -1.50393e+07 1.66686e+06)
(-2.81889e+07 -1.33948e+07 -2.33286e+06)
(-3.7933e+07 -8.01259e+06 -2.76781e+06)
(-2.1349e+07 -1.73731e+07 -4.64016e+07)
(-2.01451e+07 -1.40324e+07 -2.81118e+06)
(-2.27902e+07 -1.47453e+07 -294534)
(-2.11426e+07 -1.43176e+07 -4.31385e+06)
(-2.3836e+07 -1.43735e+07 -1.43016e+06)
(-2.17993e+07 -1.31675e+07 -5.58109e+06)
(-2.4279e+07 -1.16385e+07 -2.50925e+06)
(-2.1677e+07 -9.24332e+06 -7.57091e+06)
(-2.35999e+07 -6.02247e+06 -3.93554e+06)
(-2.0894e+07 -1.50739e+06 -1.02034e+07)
(-2.24845e+07 8.20925e+06 -6.98965e+06)
(-2.32977e+07 -1.23584e+07 -808705)
(-2.13613e+07 -1.28369e+07 -4.0562e+06)
(-2.39883e+07 -1.15549e+07 -1.93171e+06)
(-2.07999e+07 -1.15841e+07 -5.38976e+06)
(-2.34013e+07 -9.30617e+06 -3.11682e+06)
(-1.91345e+07 -8.79244e+06 -7.1279e+06)
(-2.11557e+07 -3.96405e+06 -5.69366e+06)
(-1.51319e+07 -2.24557e+06 -9.79658e+06)
(-1.66175e+07 5.26407e+06 -1.06342e+07)
(-8.2107e+06 1.05252e+07 -1.33738e+07)
(-2.20279e+07 -1.16259e+07 -3.25931e+06)
(-2.43211e+07 -8.81736e+06 -1.64701e+06)
(-2.10508e+07 -1.10236e+07 -4.50799e+06)
(-2.36672e+07 -7.14196e+06 -2.92574e+06)
(-1.84189e+07 -9.03878e+06 -5.85828e+06)
(-2.06529e+07 -3.83192e+06 -5.68703e+06)
(-1.26019e+07 -4.36506e+06 -8.58077e+06)
(-1.31149e+07 3.19027e+06 -1.16823e+07)
(-726688 5.4364e+06 -1.2993e+07)
(1.60445e+06 1.58532e+07 -2.42968e+07)
(-1.18768e+07 -6.97442e+06 215981)
(-2.19809e+07 -1.48961e+07 2.62499e+06)
(-1.34507e+07 -9.8123e+06 -3.66057e+06)
(-2.35253e+07 -1.75863e+07 -341118)
(-1.61903e+07 -1.3798e+07 -6.34235e+06)
(-2.48673e+07 -2.10533e+07 -3.94898e+06)
(-1.91354e+07 -1.84337e+07 -9.50293e+06)
(-2.74423e+07 -2.29467e+07 -7.40877e+06)
(-2.26877e+07 -2.02618e+07 -1.1616e+07)
(-3.73789e+07 -2.22289e+07 -1.0127e+07)
(-2.44803e+07 -1.31789e+07 2.60144e+06)
(-1.53299e+07 -7.10236e+06 -2.87853e+06)
(-2.64554e+07 -1.39777e+07 79315)
(-1.7494e+07 -7.90945e+06 -6.01499e+06)
(-2.77222e+07 -1.53495e+07 -4.37681e+06)
(-2.03262e+07 -9.88806e+06 -1.00539e+07)
(-3.00099e+07 -1.58774e+07 -9.27679e+06)
(-2.376e+07 -1.07457e+07 -1.53925e+07)
(-3.21563e+07 -1.40396e+07 -1.62109e+07)
(-2.66101e+07 -7.85656e+06 -2.30553e+07)
(-1.70474e+07 -7.22384e+06 -2.59987e+06)
(-2.76698e+07 -1.1295e+07 -365012)
(-1.85788e+07 -5.66525e+06 -5.82293e+06)
(-2.91541e+07 -1.15906e+07 -4.62622e+06)
(-2.00427e+07 -5.1384e+06 -9.24864e+06)
(-3.09043e+07 -1.13702e+07 -9.16961e+06)
(-2.20062e+07 -4.2506e+06 -1.48053e+07)
(-3.17544e+07 -1.057e+07 -1.72927e+07)
(-2.24361e+07 -3.23465e+06 -2.33108e+07)
(-2.97362e+07 -6.9753e+06 -2.93987e+07)
(-2.79518e+07 -8.31632e+06 -1.08038e+06)
(-2.10213e+07 -5.92829e+06 -5.64019e+06)
(-3.04312e+07 -8.10665e+06 -4.63245e+06)
(-2.23186e+07 -4.03174e+06 -8.67605e+06)
(-3.28558e+07 -7.91632e+06 -9.74908e+06)
(-2.4056e+07 -707174 -1.40598e+07)
(-3.38089e+07 -8.18569e+06 -1.83675e+07)
(-2.41718e+07 -861159 -2.36539e+07)
(-3.19251e+07 -8.51387e+06 -3.26742e+07)
(-1.97723e+07 -463024 -4.08473e+07)
(-2.66446e+07 -1.12243e+07 1.57597e+07)
(-5.35244e+06 2.32156e+07 -5.20673e+06)
(-2.67462e+07 -1.17937e+07 1.17346e+07)
(-8.97089e+06 2.39087e+07 -9.88691e+06)
(-2.97216e+07 -1.26546e+07 3.46272e+06)
(-1.46108e+07 1.773e+07 -1.50949e+07)
(-3.46207e+07 -1.59044e+07 -2.98656e+06)
(-2.34356e+07 1.22002e+07 -2.01131e+07)
(-4.28398e+07 -1.85365e+07 -1.11144e+07)
(-3.57455e+07 6.37837e+06 -2.62945e+07)
(-6.29574e+06 2.47151e+07 -4.22787e+06)
(-2.78538e+07 -7.05237e+06 8.82299e+06)
(-9.95591e+06 2.89243e+07 -1.02699e+07)
(-3.08787e+07 -6.53089e+06 765088)
(-1.51454e+07 2.6515e+07 -1.46168e+07)
(-3.49132e+07 -9.03801e+06 -6.03919e+06)
(-2.27465e+07 2.23203e+07 -1.99855e+07)
(-4.08173e+07 -1.19368e+07 -1.38267e+07)
(-3.14984e+07 1.58327e+07 -2.77763e+07)
(-4.77547e+07 -1.34646e+07 -2.46544e+07)
(-2.87305e+07 -2.48666e+06 7.03846e+06)
(-1.18385e+07 2.99711e+07 -8.56826e+06)
(-3.2103e+07 -1.14022e+06 -1.19153e+06)
(-1.72043e+07 3.09493e+07 -1.1686e+07)
(-3.62409e+07 -4.17144e+06 -8.13423e+06)
(-2.4261e+07 2.85223e+07 -1.67014e+07)
(-4.13427e+07 -8.46784e+06 -1.54064e+07)
(-3.20027e+07 2.15415e+07 -2.32116e+07)
(-4.75234e+07 -1.41658e+07 -2.55482e+07)
(-4.09458e+07 1.14629e+07 -3.56777e+07)
(-1.47376e+07 2.78948e+07 -6.08997e+06)
(-3.27374e+07 3.05241e+06 -854114)
(-1.98405e+07 3.05998e+07 -5.99244e+06)
(-3.61876e+07 -270864 -7.30731e+06)
(-2.68012e+07 3.20459e+07 -9.71875e+06)
(-4.13264e+07 -6.26973e+06 -1.46777e+07)
(-3.51389e+07 2.46479e+07 -1.50566e+07)
(-4.83519e+07 -1.46428e+07 -2.41497e+07)
(-4.63325e+07 1.19205e+07 -2.73357e+07)
(-5.45591e+07 -2.31458e+07 -3.91518e+07)
(9.38183e+06 7.69435e+07 -4.42745e+07)
(-1.30026e+07 350353 1.8227e+07)
(3.68651e+06 6.64185e+07 -2.05104e+07)
(-9.96402e+06 8.24755e+06 975211)
(-5.21629e+06 6.30437e+07 -9.56638e+06)
(-1.52616e+07 7.60702e+06 -6.5293e+06)
(-1.52869e+07 5.56788e+07 -5.79848e+06)
(-2.37898e+07 4.97403e+06 -1.15421e+07)
(-2.79969e+07 4.89388e+07 -3.58157e+06)
(-3.56811e+07 3.95194e+06 -1.56789e+07)
(-1.39658e+07 5.69411e+06 1.68025e+07)
(3.39352e+06 7.09905e+07 -1.36774e+07)
(-8.87758e+06 1.46621e+07 -770616)
(-4.79395e+06 7.00148e+07 740009)
(-1.14906e+07 1.26464e+07 -6.22009e+06)
(-1.27447e+07 6.28281e+07 6.22557e+06)
(-1.7925e+07 8.99551e+06 -1.0709e+07)
(-2.37458e+07 5.37465e+07 8.70844e+06)
(-2.74174e+07 7.46936e+06 -1.46135e+07)
(-4.17702e+07 4.48934e+07 7.63362e+06)
(1.50679e+06 7.09537e+07 -7.1792e+06)
(-9.62206e+06 1.63806e+07 1.45764e+06)
(-5.45685e+06 7.34616e+07 1.12952e+07)
(-9.10861e+06 1.37367e+07 -4.17186e+06)
(-1.05387e+07 6.73244e+07 1.73374e+07)
(-1.20923e+07 1.08821e+07 -8.06247e+06)
(-2.03179e+07 5.58746e+07 2.3817e+07)
(-2.04651e+07 9.01493e+06 -1.03446e+07)
(-3.73553e+07 4.65147e+07 2.60723e+07)
(-2.95198e+07 4.14282e+06 -2.88517e+06)
(-1.21169e+07 1.4498e+07 6.19914e+06)
(-5.47534e+06 7.37943e+07 1.88924e+07)
(-7.51991e+06 1.21656e+07 -1.44733e+06)
(-7.3569e+06 6.88093e+07 2.45865e+07)
(-7.32423e+06 1.12352e+07 -4.45809e+06)
(-1.57869e+07 5.7261e+07 3.64618e+07)
(-1.44142e+07 1.01294e+07 -3.69144e+06)
(-3.19572e+07 4.78707e+07 4.40611e+07)
(-2.25295e+07 2.90295e+06 1.56075e+07)
(-3.7817e+07 6.56133e+07 -4.28135e+07)
(1.7616e+07 5.95316e+06 3.34114e+07)
(3.03426e+07 1.05018e+08 -5.52355e+07)
(1.28787e+07 7.79484e+06 1.49169e+07)
(1.89047e+07 9.25417e+07 -2.64262e+07)
(6.54371e+06 1.48085e+07 -83351.3)
(8.28099e+06 8.15884e+07 3.31127e+06)
(-623249 2.33682e+07 -1.60745e+07)
(-172946 7.30456e+07 2.69673e+07)
(-1.00163e+07 2.82851e+07 -1.19247e+07)
(-1.13432e+07 7.84432e+07 3.16493e+07)
(3.10289e+07 1.08423e+08 -4.77483e+07)
(1.50435e+07 1.3088e+07 8.75595e+06)
(2.13908e+07 9.75147e+07 -1.9962e+07)
(1.23119e+07 1.92947e+07 -3.08119e+06)
(1.48626e+07 8.71656e+07 8.00518e+06)
(8.89034e+06 2.88622e+07 -1.68499e+07)
(1.04396e+07 7.99192e+07 3.11434e+07)
(2.83584e+06 3.7001e+07 -1.10338e+07)
(2.22528e+06 8.79531e+07 3.54499e+07)
(-1.48308e+06 3.85116e+07 2.46893e+07)
(1.62344e+07 1.67188e+07 2.92069e+06)
(2.27195e+07 9.97066e+07 -1.10752e+07)
(1.81777e+07 2.1985e+07 -5.98873e+06)
(2.11046e+07 9.03859e+07 1.25236e+07)
(1.84745e+07 3.23714e+07 -1.69259e+07)
(2.08977e+07 8.44538e+07 3.38872e+07)
(1.67604e+07 4.35889e+07 -8.99934e+06)
(1.77846e+07 9.50395e+07 3.85437e+07)
(1.69659e+07 4.68881e+07 3.03012e+07)
(-3.64517e+06 1.44003e+08 -1.0315e+08)
(2.37812e+07 9.86913e+07 -1.50942e+06)
(2.42419e+07 2.26916e+07 -8.33153e+06)
(2.74834e+07 9.1123e+07 1.62855e+07)
(2.74701e+07 3.35377e+07 -1.56699e+07)
(3.12356e+07 8.69132e+07 3.59754e+07)
(2.9974e+07 4.69517e+07 -6.1998e+06)
(3.39532e+07 9.973e+07 4.22891e+07)
(3.48332e+07 5.31368e+07 3.56692e+07)
(1.77786e+07 1.59664e+08 -1.12373e+08)
(2.44067e+07 4.05282e+07 4.97379e+07)
)
;

boundaryField
{
    inlet
    {
        type            calculated;
        value           nonuniform 0();
    }
    outlet
    {
        type            calculated;
        value           nonuniform 0();
    }
    bottom
    {
        type            calculated;
        value           uniform (0 0 0);
    }
    top
    {
        type            symmetryPlane;
    }
    side1
    {
        type            symmetryPlane;
    }
    side2
    {
        type            symmetryPlane;
    }
    procBoundary10to2
    {
        type            processor;
        value           nonuniform List<vector> 
50
(
(-1.56989e+07 -1.71422e+07 -3.19869e+06)
(-1.81002e+07 -1.91258e+07 770253)
(-1.72517e+07 -1.95593e+07 -2.4509e+06)
(-2.0003e+07 -2.22401e+07 2.63341e+06)
(-1.95768e+07 -2.21906e+07 1.36833e+06)
(-2.26246e+07 -2.15613e+07 9.23915e+06)
(-2.55116e+07 -2.17873e+07 8.35684e+06)
(-4.78405e+07 -3.03317e+07 -5.95735e+06)
(-2.9805e+07 -1.99356e+07 -743476)
(-4.76286e+07 830160 -1.18281e+07)
(-1.66977e+07 -1.30901e+07 7.3825e+06)
(-6.49919e+06 -8.22775e+06 1.24411e+06)
(-1.70096e+07 -1.79477e+07 3.47182e+06)
(-7.77134e+06 -1.42826e+07 -2.94266e+06)
(-1.7142e+07 -2.35145e+07 783337)
(-6.77792e+06 -2.17195e+07 -2.77246e+06)
(-1.45156e+07 -2.78665e+07 2.63745e+06)
(-1.00596e+06 -2.89096e+07 -1.23614e+06)
(-3.32149e+07 -4.09941e+07 -9.70937e+06)
(-4.94284e+06 -5.27294e+07 -9.95572e+07)
(-5.31747e+06 2.04015e+07 3.81206e+06)
(-2.43942e+07 -1.40571e+07 1.82491e+07)
(-4.33931e+06 2.10113e+07 -7.08693e+06)
(-2.46971e+07 -1.70429e+07 1.42508e+07)
(-8.04173e+06 1.42109e+07 -8.52986e+06)
(-2.76053e+07 -2.06567e+07 5.44101e+06)
(-1.39246e+07 4.28747e+06 -1.46102e+07)
(-3.2807e+07 -2.70827e+07 -930120)
(-2.23836e+07 -6.31005e+06 -1.46205e+07)
(-4.99822e+07 -2.80071e+07 -5.6467e+06)
(-1.49231e+07 -1.20259e+07 3.56314e+07)
(8.89692e+06 7.74309e+07 -5.00319e+07)
(-1.32089e+07 -6.77722e+06 2.24919e+07)
(2.41231e+06 5.79915e+07 -2.64407e+07)
(-1.27233e+07 -2.17411e+06 6.02383e+06)
(-6.52949e+06 5.29612e+07 -1.94412e+07)
(-1.96485e+07 -1.6366e+06 -3.20353e+06)
(-1.82071e+07 4.67135e+07 -1.56995e+07)
(-3.06998e+07 -3.92699e+06 -8.49432e+06)
(-3.31048e+07 4.12906e+07 -1.385e+07)
(3.45215e+07 1.18065e+08 -7.77964e+07)
(1.58904e+07 1.94514e+06 3.94823e+07)
(2.64178e+07 9.87918e+07 -5.8261e+07)
(9.20476e+06 1.22755e+06 2.11151e+07)
(1.44668e+07 8.49799e+07 -2.98414e+07)
(10254.8 8.1503e+06 3.19783e+06)
(1.02166e+06 7.35896e+07 -944238)
(-1.04266e+07 1.49301e+07 -1.40255e+07)
(-1.12e+07 6.553e+07 2.07858e+07)
(-2.2632e+07 1.78266e+07 -1.2569e+07)
)
;
    }
    procBoundary10to9
    {
        type            processor;
        value           nonuniform List<vector> 
20
(
(-1.75671e+07 -1.47479e+07 -2.32723e+06)
(-2.12012e+07 -1.42553e+07 785397)
(-2.09548e+07 -1.24139e+07 -2.47458e+06)
(-2.33171e+07 -9.95563e+06 -795135)
(-2.04622e+07 -1.21128e+07 5.77287e+06)
(-1.41229e+07 -6.43936e+06 -91835.8)
(-2.51669e+07 -1.1458e+07 2.45822e+06)
(-1.93456e+07 -8.29585e+06 -2.81981e+06)
(-6.68576e+06 2.17273e+07 1.80423e+06)
(-2.71968e+07 -8.40396e+06 1.41301e+07)
(-8.18358e+06 2.34441e+07 -3.3072e+06)
(-2.83953e+07 2.72885e+06 6.75074e+06)
(-1.67689e+07 -8.39732e+06 3.06562e+07)
(8.74049e+06 7.49772e+07 -3.66806e+07)
(-1.65069e+07 8.77341e+06 1.83169e+07)
(-594879 6.82943e+07 -2.96431e+06)
(3.78914e+07 1.22097e+08 -7.75357e+07)
(1.63075e+07 9.35918e+06 2.7301e+07)
(2.90469e+07 1.08359e+08 -3.65728e+07)
(1.74435e+07 1.79355e+07 -2.0083e+06)
)
;
    }
    procBoundary10to11
    {
        type            processor;
        value           nonuniform List<vector> 
20
(
(-3.61125e+07 7.83042e+06 -2.29954e+06)
(-1.8549e+07 1.40827e+07 -1.33826e+07)
(-8.44495e+06 2.06964e+07 -2.05956e+07)
(7.58092e+06 2.7024e+07 -3.06084e+07)
(-3.73213e+07 -1.86951e+07 -2.13602e+07)
(-3.41615e+07 -6.13843e+06 -2.60965e+07)
(-1.80459e+07 1.04227e+06 -3.74691e+07)
(-2.35273e+07 -6.28606e+06 -5.30608e+07)
(-5.43746e+07 -1.60177e+07 -1.85635e+07)
(-4.09812e+07 1.26772e+07 -3.79063e+07)
(-5.18721e+07 -1.8215e+07 -4.2331e+07)
(-5.1443e+07 -427876 -4.47537e+07)
(-4.56754e+07 4.2222e+07 -4.38194e+06)
(-3.89957e+07 5.57782e+06 -1.4628e+07)
(-4.27963e+07 5.62668e+07 -2.17481e+07)
(-2.55286e+07 -2.52014e+06 5.81838e+06)
(-1.86298e+07 2.881e+07 1.09947e+07)
(-2.14641e+07 1.23661e+08 -7.83498e+07)
(2.39557e+06 3.13114e+07 3.89417e+07)
(-1.306e+06 1.17029e+08 -1.0858e+08)
)
;
    }
    procBoundary10to18
    {
        type            processor;
        value           nonuniform List<vector> 
50
(
(-2.48108e+07 -5.91976e+06 -933821)
(-2.22492e+07 -1.03927e+07 -3.14272e+06)
(-2.51269e+07 -4.74602e+06 -2.40298e+06)
(-2.00258e+07 -9.25268e+06 -4.45879e+06)
(-2.28664e+07 -3.15547e+06 -5.56886e+06)
(-1.41319e+07 -6.62987e+06 -7.22058e+06)
(-1.55877e+07 130399 -1.23289e+07)
(-1.66954e+06 -515332 -1.18951e+07)
(1.04674e+06 6.08725e+06 -2.51495e+07)
(1.45932e+07 1.6448e+07 -2.11706e+07)
(-2.38307e+07 -6.27491e+06 -4.40352e+06)
(-3.18609e+07 -4.31026e+06 -3.4229e+06)
(-2.62252e+07 -4.55427e+06 -6.97199e+06)
(-3.59448e+07 -3.66443e+06 -9.24435e+06)
(-2.92449e+07 -64509 -1.29661e+07)
(-3.81137e+07 -5.1232e+06 -1.85729e+07)
(-2.98931e+07 -207830 -2.23319e+07)
(-3.76805e+07 -9.21596e+06 -3.34849e+07)
(-2.7018e+07 -3.51408e+06 -3.98528e+07)
(-3.23358e+07 -1.45201e+07 -5.49492e+07)
(-3.17573e+07 5.44846e+06 2.00319e+06)
(-2.24167e+07 2.69184e+07 543102)
(-3.45411e+07 1.13238e+06 -4.00906e+06)
(-2.88277e+07 3.28665e+07 1.11691e+06)
(-4.00414e+07 -6.10156e+06 -1.02749e+07)
(-3.83396e+07 2.63584e+07 -3.13377e+06)
(-4.82066e+07 -1.54364e+07 -1.96327e+07)
(-5.3607e+07 1.24789e+07 -1.50356e+07)
(-5.53985e+07 -2.58878e+07 -3.03524e+07)
(-5.65515e+07 3.3207e+06 -3.38339e+07)
(-4.37202e+06 6.96609e+07 2.07473e+07)
(-4.44098e+06 8.26648e+06 1.49561e+06)
(-3.83226e+06 6.68969e+07 2.948e+07)
(-345021 1.00202e+07 253032)
(-9.78309e+06 5.77828e+07 4.35622e+07)
(-4.8155e+06 1.2266e+07 3.63881e+06)
(-2.54458e+07 4.98196e+07 5.69879e+07)
(-1.16128e+07 4.47952e+06 3.85823e+07)
(-3.13481e+07 7.84952e+07 -9.09082e+07)
(-2.17973e+07 2.37441e+06 2.10909e+07)
(2.93488e+07 2.08801e+07 -9.26048e+06)
(3.37489e+07 8.89785e+07 1.96549e+07)
(3.60211e+07 3.21704e+07 -1.34035e+07)
(4.15781e+07 8.68358e+07 3.79385e+07)
(4.29751e+07 4.70931e+07 -2.77024e+06)
(5.02743e+07 1.01369e+08 4.68833e+07)
(5.29043e+07 5.64371e+07 4.12367e+07)
(4.12391e+07 1.70712e+08 -1.1671e+08)
(4.82136e+07 4.83658e+07 5.92545e+07)
(1.97493e+07 1.31318e+08 -1.3216e+08)
)
;
    }
}


// ************************************************************************* //
