/*--------------------------------*- C++ -*----------------------------------*\
| =========                 |                                                 |
| \\      /  F ield         | OpenFOAM: The Open Source CFD Toolbox           |
|  \\    /   O peration     | Version:  2.4.0                                 |
|   \\  /    A nd           | Web:      www.OpenFOAM.org                      |
|    \\/     M anipulation  |                                                 |
\*---------------------------------------------------------------------------*/
FoamFile
{
    version     2.0;
    format      ascii;
    class       volVectorField;
    location    "0.06";
    object      A_Source;
}
// * * * * * * * * * * * * * * * * * * * * * * * * * * * * * * * * * * * * * //

dimensions      [1 -2 -2 0 0 0 0];

internalField   nonuniform List<vector> 
200
(
(2.69447e-12 -3.4032e-12 -1.87035e-12)
(1.6554e-14 -2.08642e-14 -1.14909e-14)
(9.9057e-17 -1.24585e-16 -6.87599e-17)
(5.79346e-19 -7.27117e-19 -4.0215e-19)
(3.3212e-21 -4.15954e-21 -2.3054e-21)
(1.87056e-23 -2.33779e-23 -1.29844e-23)
(1.03709e-25 -1.2934e-25 -7.19889e-26)
(5.6694e-28 -7.05568e-28 -3.93539e-28)
(3.06016e-30 -3.8004e-30 -2.1242e-30)
(1.63286e-32 -2.02357e-32 -1.13344e-32)
(4.51414e-14 -5.79247e-14 -3.13347e-14)
(2.94502e-16 -3.77503e-16 -2.04427e-16)
(1.86489e-18 -2.38795e-18 -1.2945e-18)
(1.15066e-20 -1.47184e-20 -7.98722e-21)
(6.93968e-23 -8.86741e-23 -4.81715e-23)
(4.10173e-25 -5.2356e-25 -2.8472e-25)
(2.38109e-27 -3.0361e-27 -1.65282e-27)
(1.36008e-29 -1.7324e-29 -9.44093e-30)
(7.65628e-32 -9.74188e-32 -5.31457e-32)
(4.25319e-34 -5.40606e-34 -2.95233e-34)
(4.03896e-16 -5.21015e-16 -2.80362e-16)
(2.78943e-18 -3.59576e-18 -1.93627e-18)
(1.8641e-20 -2.40127e-20 -1.29396e-20)
(1.21046e-22 -1.55818e-22 -8.40237e-23)
(7.66387e-25 -9.85843e-25 -5.31984e-25)
(4.74453e-27 -6.09884e-27 -3.29339e-27)
(2.87886e-29 -3.69803e-29 -1.99835e-29)
(1.71557e-31 -2.20218e-31 -1.19086e-31)
(1.00579e-33 -1.29017e-33 -6.98166e-34)
(5.8097e-36 -7.44709e-36 -4.03278e-36)
(2.55428e-18 -3.30367e-18 -1.77304e-18)
(1.86184e-20 -2.4068e-20 -1.29239e-20)
(1.30955e-22 -1.69196e-22 -9.09018e-23)
(8.92777e-25 -1.15288e-24 -6.19717e-25)
(5.92099e-27 -7.64197e-27 -4.11002e-27)
(3.83174e-29 -4.94286e-29 -2.65979e-29)
(2.42583e-31 -3.12762e-31 -1.68388e-31)
(1.50568e-33 -1.94024e-33 -1.04516e-33)
(9.17949e-36 -1.18226e-35 -6.3719e-36)
(5.50565e-38 -7.0872e-38 -3.82172e-38)
(1.77306e-14 -2.23472e-14 -1.23076e-14)
(1.15712e-16 -1.45533e-16 -8.03206e-17)
(7.32961e-19 -9.19919e-19 -5.08781e-19)
(4.52392e-21 -5.66589e-21 -3.14026e-21)
(2.72929e-23 -3.41105e-23 -1.89453e-23)
(1.61369e-25 -2.01252e-25 -1.12013e-25)
(9.37063e-28 -1.1662e-27 -6.50458e-28)
(5.35427e-30 -6.64951e-30 -3.71664e-30)
(3.01506e-32 -3.73654e-32 -2.09289e-32)
(1.67546e-34 -2.07201e-34 -1.16301e-34)
(3.1538e-16 -4.04266e-16 -2.1892e-16)
(2.17805e-18 -2.78896e-18 -1.51188e-18)
(1.45549e-20 -1.86178e-20 -1.01032e-20)
(9.45105e-23 -1.20764e-22 -6.5604e-23)
(5.98363e-25 -7.63776e-25 -4.15351e-25)
(3.70423e-27 -4.72325e-27 -2.57127e-27)
(2.24758e-29 -2.86286e-29 -1.56014e-29)
(1.33934e-31 -1.70419e-31 -9.29698e-32)
(7.85197e-34 -9.9804e-34 -5.45041e-34)
(4.53537e-36 -5.7587e-36 -3.14821e-36)
(2.98666e-18 -3.85002e-18 -2.07318e-18)
(2.17675e-20 -2.80402e-20 -1.51098e-20)
(1.53087e-22 -1.97063e-22 -1.06265e-22)
(1.04354e-24 -1.34236e-24 -7.24368e-25)
(6.92006e-27 -8.89541e-27 -4.80353e-27)
(4.47778e-29 -5.75192e-29 -3.10823e-29)
(2.83451e-31 -3.6385e-31 -1.96756e-31)
(1.75913e-33 -2.25652e-33 -1.22109e-33)
(1.07235e-35 -1.37458e-35 -7.44365e-36)
(6.43096e-38 -8.23768e-38 -4.46402e-38)
(1.99315e-20 -2.57655e-20 -1.38353e-20)
(1.52892e-22 -1.9754e-22 -1.06129e-22)
(1.12889e-24 -1.45778e-24 -7.83614e-25)
(8.06076e-27 -1.04037e-26 -5.59533e-27)
(5.5877e-29 -7.20802e-29 -3.87867e-29)
(3.77243e-31 -4.86379e-31 -2.61861e-31)
(2.48724e-33 -3.20511e-33 -1.72651e-33)
(1.60519e-35 -2.06739e-35 -1.11423e-35)
(1.01603e-37 -1.3079e-37 -7.05273e-38)
(6.31824e-40 -8.12894e-40 -4.38577e-40)
(6.2111e-17 -7.81185e-17 -4.3114e-17)
(4.29142e-19 -5.38606e-19 -2.97887e-19)
(2.86909e-21 -3.59334e-21 -1.99156e-21)
(1.86386e-23 -2.32945e-23 -1.29379e-23)
(1.18059e-25 -1.47239e-25 -8.19502e-26)
(7.31197e-28 -9.09999e-28 -5.07557e-28)
(4.43867e-30 -5.51243e-30 -3.08108e-30)
(2.64625e-32 -3.27949e-32 -1.83688e-32)
(1.5521e-34 -1.91946e-34 -1.07738e-34)
(8.96926e-37 -1.10688e-36 -6.22597e-37)
(1.16908e-18 -1.49699e-18 -8.11511e-19)
(8.52147e-21 -1.09001e-20 -5.91513e-21)
(5.99364e-23 -7.65862e-23 -4.16046e-23)
(4.0861e-25 -5.21568e-25 -2.83635e-25)
(2.70993e-27 -3.45543e-27 -1.88109e-27)
(1.75371e-29 -2.2338e-29 -1.21733e-29)
(1.11025e-31 -1.4127e-31 -7.70677e-32)
(6.89115e-34 -8.75914e-34 -4.78346e-34)
(4.20123e-36 -5.33443e-36 -2.91626e-36)
(2.5198e-38 -3.19609e-38 -1.74911e-38)
(1.16834e-20 -1.50502e-20 -8.11001e-21)
(8.96242e-23 -1.1537e-22 -6.22122e-23)
(6.61761e-25 -8.51261e-25 -4.59358e-25)
(4.72536e-27 -6.07422e-27 -3.28009e-27)
(3.27568e-29 -4.20778e-29 -2.2738e-29)
(2.21156e-31 -2.83887e-31 -1.53515e-31)
(1.45816e-33 -1.87045e-33 -1.01218e-33)
(9.41076e-36 -1.20631e-35 -6.53243e-36)
(5.95684e-38 -7.63037e-38 -4.13491e-38)
(3.70438e-40 -4.74176e-40 -2.57138e-40)
(8.20602e-23 -1.06024e-22 -5.69617e-23)
(6.60879e-25 -8.53421e-25 -4.58746e-25)
(5.11151e-27 -6.59723e-27 -3.54813e-27)
(3.81538e-29 -4.92177e-29 -2.64843e-29)
(2.75956e-31 -3.5579e-31 -1.91553e-31)
(1.94052e-33 -2.50059e-33 -1.347e-33)
(1.33049e-35 -1.71359e-35 -9.23551e-36)
(8.91606e-38 -1.14773e-37 -6.18904e-38)
(5.85211e-40 -7.52924e-40 -4.06222e-40)
(3.76882e-42 -4.84635e-42 -2.61611e-42)
(1.53664e-19 -1.9286e-19 -1.06665e-19)
(1.12061e-21 -1.40349e-21 -7.77869e-22)
(7.88584e-24 -9.85567e-24 -5.47392e-24)
(5.37876e-26 -6.70818e-26 -3.73364e-26)
(3.56901e-28 -4.44175e-28 -2.47741e-28)
(2.31081e-30 -2.86982e-30 -1.60404e-30)
(1.46367e-32 -1.81393e-32 -1.016e-32)
(9.0893e-35 -1.12406e-34 -6.30929e-35)
(5.54412e-37 -6.8419e-37 -3.84842e-37)
(3.32689e-39 -4.09701e-39 -2.30935e-39)
(3.0513e-21 -3.90303e-21 -2.11804e-21)
(2.341e-23 -2.99131e-23 -1.62499e-23)
(1.72878e-25 -2.20669e-25 -1.20002e-25)
(1.23463e-27 -1.57427e-27 -8.57011e-28)
(8.55985e-30 -1.09031e-29 -5.94178e-30)
(5.77999e-32 -7.35453e-32 -4.01215e-32)
(3.81151e-34 -4.8447e-34 -2.64574e-34)
(2.46025e-36 -3.12386e-36 -1.70777e-36)
(1.55752e-38 -1.97555e-38 -1.08115e-38)
(9.68716e-41 -1.22742e-40 -6.7243e-41)
(3.2092e-23 -4.13107e-23 -2.22765e-23)
(2.5847e-25 -3.32484e-25 -1.79416e-25)
(1.99922e-27 -2.56991e-27 -1.38775e-27)
(1.49236e-29 -1.91701e-29 -1.03592e-29)
(1.07945e-31 -1.38563e-31 -7.49292e-32)
(7.5911e-34 -9.73744e-34 -5.26932e-34)
(5.20502e-36 -6.67202e-36 -3.61304e-36)
(3.48827e-38 -4.46827e-38 -2.42136e-38)
(2.28968e-40 -2.93089e-40 -1.58937e-40)
(1.47466e-42 -1.88631e-42 -1.02363e-42)
(2.36643e-25 -3.05587e-25 -1.64265e-25)
(1.99644e-27 -2.57673e-27 -1.38582e-27)
(1.61422e-29 -2.08231e-29 -1.1205e-29)
(1.25721e-31 -1.62092e-31 -8.72685e-32)
(9.47137e-34 -1.2205e-33 -6.57451e-34)
(6.92631e-36 -8.92068e-36 -4.80786e-36)
(4.93132e-38 -6.3479e-38 -3.42305e-38)
(3.42687e-40 -4.40896e-40 -2.37875e-40)
(2.32947e-42 -2.99548e-42 -1.61699e-42)
(1.55186e-44 -1.99449e-44 -1.07722e-44)
(3.01526e-22 -3.7764e-22 -2.08614e-22)
(2.31472e-24 -2.89291e-24 -1.60119e-24)
(1.71038e-26 -2.13311e-26 -1.18295e-26)
(1.22221e-28 -1.52108e-28 -8.45181e-29)
(8.47881e-31 -1.05299e-30 -5.86227e-31)
(5.72868e-33 -7.0995e-33 -3.96017e-33)
(3.77992e-35 -4.67456e-35 -2.61259e-35)
(2.44131e-37 -3.01277e-37 -1.68709e-37)
(1.54645e-39 -1.90442e-39 -1.06852e-39)
(9.62407e-42 -1.18269e-41 -6.64863e-42)
(6.29958e-24 -8.04952e-24 -4.35771e-24)
(5.07492e-26 -6.47783e-26 -3.50997e-26)
(3.92631e-28 -5.00643e-28 -2.71512e-28)
(2.93159e-30 -3.73411e-30 -2.02691e-30)
(2.12097e-32 -2.69874e-32 -1.4662e-32)
(1.49191e-34 -1.89632e-34 -1.03117e-34)
(1.02321e-36 -1.2992e-36 -7.07103e-37)
(6.85896e-39 -8.69984e-39 -4.73919e-39)
(4.50328e-41 -5.70589e-41 -3.11102e-41)
(2.90103e-43 -3.67189e-43 -2.0038e-43)
(6.95604e-26 -8.94794e-26 -4.81102e-26)
(5.86936e-28 -7.54477e-28 -4.05877e-28)
(4.74637e-30 -6.09694e-30 -3.28166e-30)
(3.69721e-32 -4.74591e-32 -2.55585e-32)
(2.78578e-34 -3.57344e-34 -1.92546e-34)
(2.03752e-36 -2.61178e-36 -1.40805e-36)
(1.45088e-38 -1.85848e-38 -1.00248e-38)
(1.0084e-40 -1.29079e-40 -6.96637e-41)
(6.8558e-43 -8.76954e-43 -4.73545e-43)
(4.56794e-45 -5.83894e-45 -3.15466e-45)
(5.37342e-28 -6.93526e-28 -3.71582e-28)
(4.73948e-30 -6.11383e-30 -3.2769e-30)
(3.99883e-32 -5.15569e-32 -2.76435e-32)
(3.24432e-34 -4.18069e-34 -2.2424e-34)
(2.54202e-36 -3.27398e-36 -1.7567e-36)
(1.93053e-38 -2.4851e-38 -1.3339e-38)
(1.42545e-40 -1.83396e-40 -9.84751e-41)
(1.026e-42 -1.31934e-42 -7.08681e-43)
(7.21524e-45 -9.27322e-45 -4.9829e-45)
(4.96715e-47 -6.38055e-47 -3.42979e-47)
)
;

boundaryField
{
    inlet
    {
        type            zeroGradient;
    }
    outlet
    {
        type            zeroGradient;
    }
    bottom
    {
        type            zeroGradient;
    }
    top
    {
        type            symmetryPlane;
    }
    side1
    {
        type            symmetryPlane;
    }
    side2
    {
        type            symmetryPlane;
    }
    procBoundary1to0
    {
        type            processor;
        value           nonuniform List<vector> 
20
(
(4.25304e-10 -5.38307e-10 -2.95223e-10)
(6.68374e-12 -8.58553e-12 -4.63949e-12)
(5.62965e-14 -7.26721e-14 -3.90779e-14)
(3.36293e-16 -4.35185e-16 -2.33436e-16)
(2.6244e-12 -3.31472e-12 -1.82171e-12)
(4.39602e-14 -5.64092e-14 -3.05147e-14)
(3.93264e-16 -5.07302e-16 -2.72982e-16)
(2.48666e-18 -3.21621e-18 -1.7261e-18)
(8.65359e-15 -1.09068e-14 -6.00685e-15)
(1.5392e-16 -1.97301e-16 -1.06843e-16)
(1.4576e-18 -1.87895e-18 -1.01178e-18)
(9.72708e-21 -1.25742e-20 -6.75201e-21)
(2.02215e-17 -2.5433e-17 -1.40366e-17)
(3.80619e-19 -4.87378e-19 -2.64205e-19)
(3.80384e-21 -4.89997e-21 -2.64042e-21)
(2.67172e-23 -3.45192e-23 -1.85456e-23)
(3.75906e-20 -4.71788e-20 -2.60117e-20)
(7.46509e-22 -9.54886e-22 -5.1648e-22)
(7.85223e-24 -1.01079e-23 -5.43175e-24)
(5.7908e-26 -7.4779e-26 -4.00511e-26)
)
;
    }
    procBoundary1to2
    {
        type            processor;
        value           nonuniform List<vector> 
20
(
(8.29808e-35 -1.02624e-34 -5.76007e-35)
(2.24502e-36 -2.85061e-36 -1.55837e-36)
(3.18173e-38 -4.07564e-38 -2.20858e-38)
(3.12451e-40 -4.01997e-40 -2.16887e-40)
(8.84647e-37 -1.09176e-36 -6.14073e-37)
(2.48375e-38 -3.15043e-38 -1.72408e-38)
(3.64922e-40 -4.67121e-40 -2.53309e-40)
(3.71065e-42 -4.77159e-42 -2.57573e-42)
(4.91404e-39 -6.05178e-39 -3.41106e-39)
(1.42999e-40 -1.81191e-40 -9.92621e-41)
(2.17559e-42 -2.78292e-42 -1.51018e-42)
(2.28822e-44 -2.94092e-44 -1.58836e-44)
(1.88889e-41 -2.32132e-41 -1.31117e-41)
(5.69005e-43 -7.20215e-43 -3.94972e-43)
(8.95382e-45 -1.14453e-44 -6.21525e-45)
(9.73042e-47 -1.24993e-46 -6.75432e-47)
(5.65613e-44 -6.93633e-44 -3.90681e-44)
(1.76184e-45 -2.22768e-45 -1.21674e-45)
(2.86459e-47 -3.65911e-47 -1.97799e-47)
(3.21348e-49 -4.12574e-49 -2.21853e-49)
)
;
    }
    procBoundary1to9
    {
        type            processor;
        value           nonuniform List<vector> 
50
(
(8.02484e-21 -1.04016e-20 -5.57041e-21)
(6.08554e-23 -7.88322e-23 -4.22425e-23)
(4.6274e-25 -5.99057e-25 -3.21208e-25)
(3.44915e-27 -4.46255e-27 -2.39421e-27)
(2.49927e-29 -3.23177e-29 -1.73485e-29)
(1.75788e-31 -2.27191e-31 -1.22022e-31)
(1.20172e-33 -1.55236e-33 -8.34171e-34)
(8.00267e-36 -1.03328e-35 -5.55502e-36)
(5.20393e-38 -6.71606e-38 -3.61229e-38)
(3.3119e-40 -4.27234e-40 -2.29894e-40)
(6.50895e-23 -8.43345e-23 -4.51815e-23)
(5.18666e-25 -6.71611e-25 -3.60029e-25)
(4.13835e-27 -5.35523e-27 -2.87262e-27)
(3.22998e-29 -4.1772e-29 -2.24207e-29)
(2.4454e-31 -3.16076e-31 -1.69746e-31)
(1.79344e-33 -2.31685e-33 -1.24491e-33)
(1.276e-35 -1.64759e-35 -8.85731e-36)
(8.8287e-38 -1.13943e-37 -6.1284e-38)
(5.95584e-40 -7.68307e-40 -4.13422e-40)
(3.92672e-42 -5.06323e-42 -2.72571e-42)
(2.78175e-25 -3.60283e-25 -1.93094e-25)
(2.32397e-27 -3.00805e-27 -1.61317e-27)
(1.9416e-29 -2.51148e-29 -1.34775e-29)
(1.5838e-31 -2.04739e-31 -1.09939e-31)
(1.25069e-33 -1.61586e-33 -8.68163e-34)
(9.54925e-36 -1.23308e-35 -6.62857e-36)
(7.06102e-38 -9.11323e-38 -4.90137e-38)
(5.06952e-40 -6.53982e-40 -3.51898e-40)
(3.54363e-42 -4.56929e-42 -2.45979e-42)
(2.41772e-44 -3.1161e-44 -1.67825e-44)
(8.31604e-28 -1.07665e-27 -5.77254e-28)
(7.26834e-30 -9.40406e-30 -5.04528e-30)
(6.34578e-32 -8.20491e-32 -4.40489e-32)
(5.39998e-34 -6.97761e-34 -3.74837e-34)
(4.44032e-36 -5.73426e-36 -3.08223e-36)
(3.5241e-38 -4.54862e-38 -2.44624e-38)
(2.70439e-40 -3.48886e-40 -1.87724e-40)
(2.01215e-42 -2.59458e-42 -1.39673e-42)
(1.45566e-44 -1.87615e-44 -1.01044e-44)
(1.02661e-46 -1.32257e-46 -7.12616e-47)
(1.95523e-30 -2.53039e-30 -1.3519e-30)
(1.78445e-32 -2.30786e-32 -1.23362e-32)
(1.6252e-34 -2.10045e-34 -1.12333e-34)
(1.44037e-36 -1.86038e-36 -9.95412e-37)
(1.23147e-38 -1.58964e-38 -8.50902e-39)
(1.01458e-40 -1.30896e-40 -7.00919e-41)
(8.07032e-43 -1.04067e-42 -5.57443e-43)
(6.21556e-45 -8.01115e-45 -4.29257e-45)
(4.64879e-47 -5.98901e-47 -3.21e-47)
(3.38573e-49 -4.35988e-49 -2.33747e-49)
)
;
    }
}


// ************************************************************************* //
