/*--------------------------------*- C++ -*----------------------------------*\
| =========                 |                                                 |
| \\      /  F ield         | OpenFOAM: The Open Source CFD Toolbox           |
|  \\    /   O peration     | Version:  2.4.0                                 |
|   \\  /    A nd           | Web:      www.OpenFOAM.org                      |
|    \\/     M anipulation  |                                                 |
\*---------------------------------------------------------------------------*/
FoamFile
{
    version     2.0;
    format      ascii;
    class       surfaceScalarField;
    location    "0.06";
    object      phib;
}
// * * * * * * * * * * * * * * * * * * * * * * * * * * * * * * * * * * * * * //

dimensions      [0 3 -1 0 0 0 0];

internalField   nonuniform List<scalar> 
490
(
-0.0120975
0.00136709
6.04066e-05
-0.0136169
0.00159625
-7.68452e-05
-0.015522
0.00193044
-2.53022e-05
-0.0204315
0.00378457
0.00112493
-0.0242016
0.0021155
0.00165453
-0.0223969
-0.0027251
0.000920414
-0.0244918
0.000585627
0.00150933
-0.0499335
0.0180662
0.00737547
-0.130543
0.0581651
0.0224448
-0.0174751
-0.00147371
-0.0104873
0.00274373
-0.000129249
-0.0133623
0.00338791
0.00108339
-0.017206
0.00433475
0.0014394
-0.0268696
0.00840428
0.00504392
-0.0501532
0.0176816
0.00771749
-0.0663344
0.00797062
0.00548551
-0.0709386
0.00108252
0.00410726
-0.0613788
0.00650067
0.00200578
-0.0140177
0.00928733
0.0015167
0.00575169
0.00308682
-0.00831292
0.00396438
-0.00110751
-0.0130362
0.00482429
0.00328687
-0.0211736
0.00742994
0.0050422
-0.0189102
0.00713313
-0.00099225
-0.0164764
0.0116015
0.00364634
-0.0324704
0.0158667
0.00809795
-0.0432059
0.00850009
0.00331792
-0.0448905
0.0076107
0.000574571
-0.0420875
0.00583798
0.000646322
0.0093536
-0.000589596
-0.00734803
-0.000751717
-0.00908274
0.000440793
-0.0100281
0.000521789
-0.0158524
0.00377283
-0.0171382
0.00395198
-0.0192496
0.00147031
-0.0254063
0.000344505
-0.0300598
0.00165401
-0.0301558
-0.00271663
-0.000856155
-0.0114343
0.00033308
0.000515348
-0.0145235
0.00334938
-0.000337066
-0.020387
0.0063504
-0.000512159
-0.0264019
0.00593614
0.00120372
-0.0320761
0.00627784
0.00105085
-0.0381625
0.00546528
0.00154157
-0.0370816
-0.00194328
0.00237166
-0.0391683
0.00497892
0.00448325
-0.0358259
0.0124022
0.00670029
0.00773603
0.00394176
-0.0425391
0.00514612
0.00181229
-0.0401891
0.000873926
0.00120878
-0.0412785
0.00843519
0.000444055
-0.0432458
0.00978542
0.00316188
-0.041918
0.0072053
0.00546228
-0.0426054
0.008479
0.00315918
-0.0459768
0.00288207
0.00265333
-0.0401617
0.00145923
-0.000289604
-0.0397468
0.0161039
-0.00259999
0.0126394
-0.0030242
-0.0409937
0.01069
0.00216341
-0.0470734
0.00481787
0.00542257
-0.0531092
0.00968689
0.00982632
-0.057256
0.01098
0.00196005
-0.0585125
0.0104134
0.0016947
-0.0553383
0.00711963
0.00628312
-0.0551913
0.00453967
0.00151331
-0.0507595
-0.000264728
-0.00213327
-0.0454474
0.017181
-0.00574296
0.0153817
-2.34663e-05
-0.0103562
9.98234e-05
-0.00782437
0.000849798
-0.00560082
0.00240579
-0.0127939
0.00769062
-0.0249956
0.00801166
-0.0274634
-0.00091376
-0.0383458
0.00352293
-0.0457542
0.00155658
-0.0397798
-0.00103094
-0.00225967
-0.011674
0.00142028
-0.000269339
-0.0139471
0.00166942
0.000266597
-0.0170685
0.00304184
-0.000432597
-0.0185004
0.0023624
0.000273219
-0.0196022
0.000873192
0.00127951
-0.0260447
0.00601145
0.0019726
-0.0318616
0.00522333
0.0029652
-0.0334155
0.00172346
0.00431377
-0.0351733
0.00340625
0.00505179
0.00433309
0.000274083
-0.0111005
0.00387293
0.000787593
-0.0144472
0.0062247
1.89832e-07
-0.0222024
0.0107524
0.000488735
-0.0278657
0.0104541
0.000733483
-0.029111
0.00509558
0.00248521
-0.0292852
0.00557679
0.00376797
-0.0314973
0.00801286
0.00207595
-0.0396314
0.00627243
0.00329552
-0.0455833
0.00716527
-0.000407068
0.00300984
-0.00313553
-0.0161642
0.00731683
0.000779628
-0.0136882
0.00847935
0.000691889
-0.0108604
0.0137455
0.00400546
-0.0180702
0.0154485
0.00417536
-0.0265289
0.0132311
0.00201785
-0.023862
0.00854382
0.000649164
-0.0252707
0.00994303
0.000991888
-0.0319017
0.00817028
0.00259992
-0.0382166
0.00678111
0.000956016
0.00840333
-0.00115658
-0.0091475
0.000374014
-0.00956173
-0.00104759
-0.0179012
-0.000920071
-0.0111542
0.0048512
-0.0120746
0.00763792
-0.0207499
0.00350219
-0.0197112
0.000806785
-0.0221303
0.000472657
-0.0290201
0.00203207
0.000152113
-0.0118291
0.000849003
-0.000118073
-0.0123204
0.00122478
-0.000466931
-0.0125875
0.000897787
-0.00106326
-0.0145848
0.00132954
0.000940999
-0.016518
0.00294194
0.000270753
-0.0186649
0.00371474
0.000404701
-0.0239449
0.00853114
-0.000285912
-0.0252626
0.0071436
-0.00151213
-0.0177386
0.00223588
-0.00470806
0.00252699
-0.0138742
-0.0113335
0.00256082
0.000103247
-0.0123675
0.00269616
-0.00043724
-0.0138102
0.00250228
0.000326983
-0.0175033
0.00535764
0.000398454
-0.0248698
0.0102646
0.00252902
-0.0273812
0.00795534
0.00203884
-0.0222956
0.0074364
-0.00191489
-0.0203006
0.00921968
-0.000775643
-0.020607
0.00670852
-0.00457333
0.00562462
-0.0108484
-0.0109093
0.00404432
0.000149469
-0.012686
0.00530719
-0.00014242
-0.0111774
0.00542532
-0.000426234
-0.0112921
0.00697655
0.00267115
-0.011563
0.00892466
0.0036287
-0.0161161
0.0127983
0.00035939
-0.0213751
0.0121995
0.00148785
-0.0220316
0.0118216
0.000654487
-0.0224465
0.0090249
-0.00094544
0.00705113
-0.00456282
-0.00876362
-0.000571147
-0.00939504
-0.000909058
-0.0148897
-0.000457571
-0.01222
0.000379373
-0.00732085
0.00255253
-0.0104615
0.00627304
-0.0102808
-0.00135931
-0.0126534
0.000195948
-0.0162495
-0.000188504
-0.00182075
-0.0125109
0.00184209
-0.0147384
0.0017606
-0.0182334
0.00243167
-0.019198
0.0019056
-0.0215298
0.00260256
-0.0264483
0.0053232
-0.0343604
0.00762623
-0.0410055
0.00513294
-0.0504991
0.00478558
0.00531648
-0.0112476
0.00296834
-0.0129657
0.00304149
-0.0130646
0.00285748
-0.013096
0.00233545
-0.0144544
0.00649004
-0.0279552
0.0208628
-0.0349347
0.0126908
-0.0392889
0.00871156
-0.0499906
0.0109139
0.0140829
-0.0108229
0.00549616
-0.0117641
0.00384022
-0.0118987
0.00256588
-0.011646
0.00475388
-0.00712625
0.005599
-0.00480238
0.0188983
-0.0235688
0.0329451
-0.0262072
0.0120044
-0.0296115
0.0133728
0.0179327
-0.00915148
-0.0127533
-0.0155554
-0.0162312
-0.0156966
-0.000828027
-0.0015243
-0.0124249
-0.0203253
)
;

boundaryField
{
    inlet
    {
        type            fixedValue;
        value           nonuniform 0();
    }
    outlet
    {
        type            calculated;
        value           nonuniform 0();
    }
    bottom
    {
        type            fixedValue;
        value           uniform 0;
    }
    top
    {
        type            symmetryPlane;
        value           nonuniform List<scalar> 
40
(
-1.58604e-12
-1.22616e-12
-1.25448e-12
-2.91806e-12
-1.48191e-12
-1.15466e-12
-1.15024e-12
-1.19724e-12
-1.29689e-12
-1.8717e-12
-1.00789e-12
-1.22244e-12
-2.00749e-12
-1.76537e-12
-1.5669e-12
-1.30664e-12
-1.40673e-12
-1.16402e-12
-1.64715e-12
-7.1182e-13
-8.06599e-13
-2.12334e-12
-1.23843e-12
-1.07761e-12
-7.20263e-13
-2.00492e-12
-7.95009e-13
-7.0743e-13
-5.11587e-13
-3.92763e-13
-3.1047e-13
-3.03116e-13
-5.77226e-13
-5.53922e-13
-3.36037e-13
-3.45687e-13
-7.17165e-13
-1.02493e-12
-6.0507e-13
-4.63847e-13
)
;
    }
    side1
    {
        type            symmetryPlane;
        value           uniform 0;
    }
    side2
    {
        type            symmetryPlane;
        value           nonuniform 0();
    }
    procBoundary1to0
    {
        type            processor;
        value           nonuniform List<scalar> 
20
(
0.01067
0.00923986
0.00819978
0.00736978
0.0106463
0.0357846
0.032179
0.0100257
0.0110384
0.00967254
0.0141041
0.00918951
0.0108289
0.010306
0.010056
0.00970426
0.0105507
0.0102246
0.00844457
0.00774871
)
;
    }
    procBoundary1to2
    {
        type            processor;
        value           nonuniform List<scalar> 
20
(
-0.111595
-0.0403313
-0.0450998
-0.0209775
-0.0489774
-0.0385392
-0.0487558
-0.0391939
-0.0358387
-0.0441488
-0.0424769
-0.0341452
-0.00611732
-0.0159917
-0.0204668
-0.0187682
-0.0696898
-0.0696054
-0.0380242
-0.0202238
)
;
    }
    procBoundary1to9
    {
        type            processor;
        value           nonuniform List<scalar> 
50
(
0.00469434
0.00611821
0.00785351
0.00918456
0.0089354
0.0165078
0.0143122
0.0106102
0.00865058
0.00103146
0.0101689
0.00187705
0.00557934
0.0142553
0.0185554
0.0119715
0.0122436
0.00724114
0.00952091
0.0161994
0.00700062
0.010791
0.0254109
0.0115409
0.0145253
0.0128032
0.0116204
0.0116733
0.0106079
0.0111166
0.00404883
0.00580008
0.0104574
0.00877868
0.00911093
0.0131681
0.0141849
0.0144708
0.0148416
0.0115427
0.00632779
0.00653297
0.00491041
0.00580904
0.00761693
0.0103028
0.0322821
0.023101
0.0210848
0.0160105
)
;
    }
}


// ************************************************************************* //
