/*--------------------------------*- C++ -*----------------------------------*\
| =========                 |                                                 |
| \\      /  F ield         | OpenFOAM: The Open Source CFD Toolbox           |
|  \\    /   O peration     | Version:  2.4.0                                 |
|   \\  /    A nd           | Web:      www.OpenFOAM.org                      |
|    \\/     M anipulation  |                                                 |
\*---------------------------------------------------------------------------*/
FoamFile
{
    version     2.0;
    format      ascii;
    class       volVectorField;
    location    "0.06";
    object      Ub;
}
// * * * * * * * * * * * * * * * * * * * * * * * * * * * * * * * * * * * * * //

dimensions      [0 1 -1 0 0 0 0];

internalField   nonuniform List<vector> 
200
(
(-4567.09 623.048 48.9889)
(-5094.31 598.786 -519.212)
(-5833.1 713.228 453.798)
(-6930.48 1590.52 -1390.86)
(-9171.99 112.259 2313.35)
(-10205.8 -1244.27 342.968)
(-5590.8 1381.8 941.572)
(-8551.24 13969.5 13639.6)
(-30247.2 112034 63108.2)
(-86268.1 -23470.7 3056.02)
(-3911.85 1619.18 -1796.45)
(-4517.26 2010.06 -771.999)
(-5935.17 2523.87 -713.604)
(-8887.24 5158.02 1521.89)
(-12889.9 5707.69 1191.2)
(-21701.7 -251.408 6804.82)
(-36303.7 -1871.83 9532.85)
(-26207.1 14136.7 7947.68)
(-9997.22 584.327 720.057)
(-8145.42 559.851 4141.05)
(-3181.28 2941.71 -1242.2)
(-3883.46 3253.57 -1424)
(-4428.74 4432.52 -435.613)
(-13776 6519.02 -2294.39)
(-3405.91 17078.4 1458.87)
(-10431.3 8901.92 -496.862)
(-13464.1 4922.49 2586.16)
(-16232.1 39.3714 9431.9)
(-26402.8 1666.39 14846.2)
(-7544.54 6764.9 -6896.45)
(-2614.42 3703.57 -519.878)
(-2966.78 4718.55 355.645)
(-4633.28 7123.63 -1704.92)
(-3411.05 6543.7 5443.17)
(-8274.23 5707.21 5141.6)
(-6835.95 18122.2 1847.67)
(-9021.16 7684.69 -5153.77)
(-10732.4 8851.11 944.181)
(-13156.6 9204.1 1532.29)
(-9328.6 10582.9 2414.6)
(-4437.88 -676.267 258.36)
(-4776 -417.435 197.123)
(-6990.47 218.382 -959.328)
(-9953.94 1704.13 3892.2)
(-10571.3 3403.15 1727.96)
(-15309.8 2688.27 1896.7)
(-14504.7 -3669.51 2958.86)
(-15379.6 1244.13 6399.13)
(-15135.3 11391.8 4820.4)
(-15149.7 6669.75 -509.402)
(-18803.2 3706.58 3435.63)
(-16833.6 6651.01 3652.32)
(-14928.8 9469.87 3347.69)
(-17910.7 6799.69 9913.33)
(-17885.9 4726.43 16015.4)
(-14789.3 5370.21 4846.02)
(-16931.1 1311.8 1801.91)
(-20743.9 5623.79 -3131.79)
(-14285.4 5549.45 468.999)
(-13826.1 5723.31 3209.17)
(-19003.3 4348.71 756.77)
(-15068.5 -3816.95 11635.3)
(-21995.6 5534.32 13619)
(-21844.8 9770.66 -321.047)
(-21888.1 7883.2 6337.66)
(-27536.6 6102.32 18365.1)
(-17794 710.286 3780.11)
(-21590.7 -2510.02 -8913.31)
(-20311.2 22214.1 -14166.6)
(-18624.9 13365.8 3935.48)
(-5117.19 8614.71 -1018.28)
(-4006.17 6960.93 733.4)
(-1175.6 7835.73 3479.58)
(-3447.66 7115.83 3911.12)
(-7766.17 9322.58 4364.1)
(-10348 9427.09 2368.08)
(-13939.4 8614.52 5548.55)
(-16086.4 1992.89 3174.31)
(-18404.1 6192.21 -8063.88)
(-15230.8 12883.8 -5130.41)
(-4638.91 580.566 1125.62)
(-4975.07 286.126 -700.098)
(-5967.52 1178.12 654.29)
(-7915.32 -341.067 10.3133)
(-6727.93 -159.064 1542.73)
(-9010.36 4072.1 2722.37)
(-12109 2189.4 3723.11)
(-12730.5 -1391.17 5451.17)
(-14272.5 2707.17 8148.02)
(-13296 5494.63 8863.22)
(-3829.25 2224.78 590.404)
(-4950.02 3071.23 776.142)
(-6922.56 4366.87 16.9658)
(-10469.3 5065.58 463.512)
(-11411.4 1910.23 741.598)
(-12905 4940.05 4495.79)
(-10673.1 5738.07 4543.87)
(-13655.1 4261.78 3528.95)
(-16802.4 3121.98 -3839.4)
(-22829.4 -394.38 -8683.68)
(-7974.48 4052.42 3417)
(-5514.11 6649.04 1602.47)
(-4782.69 12961.5 12092.9)
(-4866.93 10692.5 5777.77)
(-8893.97 6162.24 -478.481)
(-11326.9 5253.29 978.098)
(-9587.48 6910.23 1512.09)
(-10067.5 4896.74 3499.04)
(-15806.8 6877.04 91.8255)
(-14077 5025.67 -2360.75)
(-2908.32 6523.04 585.675)
(-4292.87 6216.82 756.956)
(-5695.31 6604.91 907.645)
(-5606.62 13873.3 15215.3)
(-4339.34 14094.9 15606.5)
(-6536.57 6677.22 -6020.62)
(-8379.94 9491.89 3685.61)
(-8219.71 8607.23 567.938)
(-9406.63 4794.68 4561.74)
(-14080.4 8736.33 -423.887)
(-4165.84 22.0354 -1871.6)
(-5229.12 808.445 1277.32)
(-4642.93 193.101 -2262.62)
(-5182.07 1186.05 222.083)
(-6856.93 78.9438 1080.25)
(-6216.89 1151.42 1435.72)
(-8429.41 6616.83 2380.8)
(-11105.7 2549.07 3015.92)
(-9787.42 -957.747 1685.51)
(-1731.91 506.106 -12875.3)
(-4590.35 1332.37 1173.87)
(-4532.85 1238.77 -1708.93)
(-5347.74 1450.06 249.219)
(-5821.89 1425.1 582.03)
(-6367.77 6251.65 4927.78)
(-13881 5745.71 5147.45)
(-11183.4 5635.76 -933.072)
(-5356.41 8520.25 2396.56)
(-9930.64 5067.21 -699.691)
(-6816.08 2967.38 -3904.13)
(-3846.59 2956.53 -1058.35)
(-5304.88 3138.92 208.621)
(-4458.13 2745.73 -1985.51)
(-4547.23 6900.65 5055.42)
(-4358.63 8619.86 5505.32)
(-5198.34 6040.54 -416.768)
(-6368.77 8092.22 1413.68)
(-11890.9 6507.19 3070.43)
(-7120.57 4571.68 1153.32)
(-9161.86 6130.02 -3101.75)
(-4112.32 3339.96 1004.96)
(-2694.8 5423.82 -2415.67)
(-5537.58 5800.57 -1393.05)
(-5811.56 4513.65 -1646.43)
(-3004.06 6451.03 5370.51)
(-4050.73 14184.3 16312.8)
(-4403.12 9784.01 -1690.98)
(-3392.7 12095.3 657.296)
(-6670.45 10879.2 831.611)
(-6339.42 5532.85 -214.102)
(-4871.61 957.134 1607.43)
(-5309.68 559.538 -2458.17)
(-6230.65 1914.83 -297.198)
(-8628.84 1165.8 2509.87)
(-6612.52 1625.38 336.159)
(-10706.9 3720.45 501.75)
(-10960.2 3026.56 -1250.02)
(-15868.3 3113.2 -3766.52)
(-16362.6 1694.16 -9776.41)
(-23017.1 2706.88 -16024.9)
(-4235.83 1919.06 -922.94)
(-4693.62 2274.81 605.725)
(-6005.08 1783.52 450.746)
(-4184.68 1832.75 294.871)
(-5875.71 3309.43 1480.75)
(-7939.58 5207.18 994.144)
(-12885.9 9710.63 -309.475)
(-14101.7 4906.17 -1212.83)
(-17545.2 7060.52 -7082.44)
(-22879.6 8045.6 -17781.1)
(-3816.04 2989.71 1135.51)
(-4790.27 2397.08 -809.987)
(-4856.74 2512.7 540.668)
(-3566.17 1747.35 1431.43)
(-7195.81 5531.61 3321.53)
(1831.34 26537.3 1216.4)
(-6341.26 8399.62 2103.34)
(-10956 8921.6 146.639)
(-11080.7 9404.82 -1214.35)
(-11541.8 12881.6 -4905.82)
(-2843.92 5869.98 -2740.93)
(-4273.26 3840.37 -317.995)
(-5821.75 1970.88 -275.568)
(-6818.26 5826.22 2100.18)
(-5879.94 4259.72 437.877)
(-7338.49 4480.93 -527.582)
(6446.81 45338.7 -1288)
(-5852.08 10790.1 765.432)
(-6076.93 11868.3 -323.205)
(-9091.04 15625.2 -2088.45)
)
;

boundaryField
{
    inlet
    {
        type            fixedValue;
        value           nonuniform 0();
    }
    outlet
    {
        type            zeroGradient;
    }
    bottom
    {
        type            fixedValue;
        value           uniform (0 0 0);
    }
    top
    {
        type            symmetryPlane;
    }
    side1
    {
        type            symmetryPlane;
    }
    side2
    {
        type            symmetryPlane;
    }
    procBoundary1to0
    {
        type            processor;
        value           nonuniform List<vector> 
20
(
(-4006.41 416.217 -585.748)
(-3616.78 1619.49 -1434.93)
(-3350.57 2919.87 -1567.18)
(-3314.57 4635.89 -15.2547)
(-4207.03 -450.992 820.747)
(-12223 1766.45 687.846)
(-8843.79 5070.72 -1238.62)
(-3116.7 8040.41 524.316)
(-4029.41 576.663 463.961)
(-3931.82 1486.84 1969.19)
(-3465.31 4086.78 446.352)
(-4011.46 5254.66 933.873)
(-4588.86 574.285 1619.6)
(-3666.04 1456 -491.062)
(-3974.89 2694.69 1269.56)
(-3451.58 4167.78 -251.184)
(-3496.05 488.091 -1142.4)
(-4013.16 1782.16 1343.36)
(-2981.56 3090.86 -878.492)
(-3414.44 4420.45 1071.46)
)
;
    }
    procBoundary1to2
    {
        type            processor;
        value           nonuniform List<vector> 
20
(
(-15896.9 -53816.4 5421.14)
(-23210.4 -11274.9 8590.23)
(-16011.6 -5539.85 11879.6)
(-9798.98 8769.87 1198.93)
(-23511.3 -788.906 -1182.94)
(-18436.5 7811.91 -6530.6)
(-18832.3 4721.51 940.822)
(-16762.1 15094.2 5614.1)
(-16054.9 -1100.34 5418.7)
(-10463.5 2404.76 2448.36)
(-20070.9 -22370 3042.66)
(-12189.8 3645.62 -1825.38)
(-1606.83 3670.99 -23036)
(-2589.63 4292.29 -7291.89)
(-7310.39 -1076.75 -14280.7)
(-8712.15 3930.2 -8131.19)
(-36978.3 -4142.92 19710.3)
(-28693.6 2828.14 -17712.8)
(-19383.1 12906.1 -11985.5)
(-8553.15 15994 -4492.8)
)
;
    }
    procBoundary1to9
    {
        type            processor;
        value           nonuniform List<vector> 
50
(
(-5501.79 3379.8 -4057.26)
(-3460.6 4798.94 949.494)
(-4429.4 6014.01 -4464.13)
(-3842.15 7819.38 -4036.34)
(-4375.35 8153.21 3061.04)
(-7810.59 9429.36 5620.8)
(-7990.59 15899.8 712.112)
(-9184.18 9024.73 -1208.02)
(-9875.8 4871.17 -2902.44)
(-12326.9 -11531 4418.67)
(937.844 10409.2 -2873.83)
(-10775.3 -978.826 -4321.02)
(-4007.98 2153.63 671.113)
(-2394.11 16366.7 -280.692)
(-7500.5 19339.1 2613.04)
(-5771.6 6736.75 3629.32)
(-8854.51 10979.5 1333.92)
(-8570.26 9569.02 1570.62)
(-11717.3 7505.75 2014.02)
(-10806.9 12650.8 -330.023)
(-3605.07 4672.59 788.489)
(-3359.12 10909.9 2830.59)
(-1702.31 35519 -13975.8)
(-6106.05 4758.49 -141.211)
(-5051.72 10273.1 10646.1)
(-6114.82 14384.2 16914.5)
(-5414.44 8257.32 -2529.5)
(-7419.24 10081.1 513.198)
(-7132.84 11882.2 1081.18)
(-7568.31 9451.9 1005.5)
(-3980.14 2839.66 242.475)
(-3774.33 3201.37 265.201)
(-3135.48 9982.14 -612.491)
(-4703.31 8767.96 -1470.71)
(-6263.67 7555.25 -272.939)
(-2411.81 7692.85 2203.35)
(-2302.49 13671.4 10085.4)
(-2822.66 11204.8 -1770.68)
(-1238.96 12278.1 -1532.47)
(-4176.61 12076 319.334)
(-3422.88 3238.72 1219.95)
(-3640.08 6496.06 -771.098)
(-3783.58 5792.88 -1060.03)
(-6693.5 3449.43 -172.009)
(-5686.52 7932.72 1029.31)
(-6672.81 12360.8 -787.272)
(-7050.16 7621.48 -2588.53)
(3012.94 25987.4 -3129.62)
(-5114.64 22586.2 -967.49)
(-4195.11 9806.15 -946.465)
)
;
    }
}


// ************************************************************************* //
