/*--------------------------------*- C++ -*----------------------------------*\
| =========                 |                                                 |
| \\      /  F ield         | OpenFOAM: The Open Source CFD Toolbox           |
|  \\    /   O peration     | Version:  2.4.0                                 |
|   \\  /    A nd           | Web:      www.OpenFOAM.org                      |
|    \\/     M anipulation  |                                                 |
\*---------------------------------------------------------------------------*/
FoamFile
{
    version     2.0;
    format      ascii;
    class       volScalarField;
    location    "0.01";
    object      alpha;
}
// * * * * * * * * * * * * * * * * * * * * * * * * * * * * * * * * * * * * * //

dimensions      [0 0 0 0 0 0 0];

internalField   nonuniform List<scalar> 
60
(
2.58205e-158
1.08918e-160
4.59441e-163
1.93803e-165
8.1749e-168
8.16169e-156
3.44281e-158
1.45226e-160
6.12601e-163
2.58406e-165
9.4675e-158
4.35668e-160
1.9909e-162
9.04413e-165
4.08746e-167
5.99032e-160
2.9863e-162
1.46964e-164
7.15305e-167
3.44831e-169
1.17001e-160
5.38407e-163
2.46039e-165
1.11769e-167
5.0513e-170
3.69831e-158
1.70186e-160
7.77714e-163
3.53295e-165
1.59671e-167
4.68001e-160
2.33308e-162
1.14818e-164
5.58841e-167
2.69404e-169
3.20792e-162
1.72223e-164
9.08098e-167
4.71456e-169
2.41482e-171
2.89779e-163
1.44478e-165
7.11103e-168
3.46151e-170
1.66891e-172
9.15717e-161
4.56567e-163
2.24721e-165
1.09392e-167
5.27424e-170
1.25552e-162
6.74144e-165
3.55512e-167
1.84596e-169
9.45641e-172
9.26927e-165
5.33256e-167
2.99962e-169
1.65487e-171
8.97615e-174
)
;

boundaryField
{
    inlet
    {
        type            zeroGradient;
    }
    outlet
    {
        type            zeroGradient;
    }
    bottom
    {
        type            fixedValue;
        value           nonuniform 0();
    }
    top
    {
        type            symmetryPlane;
    }
    side1
    {
        type            symmetryPlane;
    }
    side2
    {
        type            symmetryPlane;
    }
    procBoundary91to27
    {
        type            processor;
        value           nonuniform List<scalar> 
20
(
-1.51968e-151
-4.82922e-154
-1.36983e-156
-2.9625e-159
-6.14215e-163
3.08939e-153
1.37994e-155
6.28567e-158
2.907e-160
1.35913e-162
4.89424e-155
2.27063e-157
1.05609e-159
4.92669e-162
2.30532e-164
3.76637e-157
1.84511e-159
9.00198e-162
4.37861e-164
2.125e-166
)
;
    }
    procBoundary91to75
    {
        type            processor;
        value           nonuniform List<scalar> 
15
(
5.44038e-142
9.18195e-144
9.68547e-146
8.17328e-148
6.03487e-150
8.96675e-145
1.89169e-146
2.39452e-148
2.35744e-150
1.98931e-152
9.2444e-148
2.34064e-149
3.45707e-151
3.8903e-153
3.69364e-155
)
;
    }
    procBoundary91to90
    {
        type            processor;
        value           nonuniform List<scalar> 
12
(
4.60658e-138
2.51188e-139
2.42888e-141
1.36889e-143
1.41854e-140
1.01242e-141
1.09079e-143
6.73442e-146
2.48933e-143
2.25915e-144
2.68183e-146
1.79973e-148
)
;
    }
    procBoundary91to92
    {
        type            processor;
        value           uniform 0;
    }
    procBoundary91to107
    {
        type            processor;
        value           nonuniform List<scalar> 
15
(
1.44993e-175
6.11615e-178
2.57994e-180
1.08828e-182
4.59054e-185
8.389e-178
3.79063e-180
1.70525e-182
7.64147e-185
3.4124e-187
3.08119e-180
1.45647e-182
6.84901e-185
3.20518e-187
1.49318e-189
)
;
    }
}


// ************************************************************************* //
