/*--------------------------------*- C++ -*----------------------------------*\
| =========                 |                                                 |
| \\      /  F ield         | OpenFOAM: The Open Source CFD Toolbox           |
|  \\    /   O peration     | Version:  2.4.0                                 |
|   \\  /    A nd           | Web:      www.OpenFOAM.org                      |
|    \\/     M anipulation  |                                                 |
\*---------------------------------------------------------------------------*/
FoamFile
{
    version     2.0;
    format      ascii;
    class       volScalarField;
    location    "0.01";
    object      alpha;
}
// * * * * * * * * * * * * * * * * * * * * * * * * * * * * * * * * * * * * * //

dimensions      [0 0 0 0 0 0 0];

internalField   nonuniform List<scalar> 
60
(
5.04312e-42
2.45952e-44
1.19048e-46
5.72343e-49
2.73483e-51
1.34685e-43
6.81727e-46
3.4201e-48
1.70209e-50
8.40932e-53
1.8856e-45
9.89503e-48
5.14023e-50
2.64581e-52
1.3505e-54
1.83049e-47
9.94685e-50
5.34438e-52
2.84215e-54
1.49732e-56
5.30665e-44
2.68688e-46
1.34839e-48
6.71271e-51
3.31752e-53
1.47196e-45
7.72418e-48
4.01242e-50
2.06524e-52
1.05413e-54
2.13797e-47
1.16163e-49
6.24067e-52
3.31843e-54
1.74803e-56
2.15055e-49
1.20848e-51
6.7074e-54
3.68102e-56
1.99932e-58
2.91176e-46
1.52865e-48
7.94434e-51
4.09091e-53
2.08901e-55
8.3775e-48
4.55228e-50
2.44589e-52
1.30072e-54
6.8525e-57
1.26087e-49
7.08546e-52
3.93271e-54
2.15832e-56
1.1723e-58
1.31268e-51
7.62062e-54
4.36523e-56
2.47008e-58
1.38205e-60
)
;

boundaryField
{
    inlet
    {
        type            zeroGradient;
    }
    outlet
    {
        type            zeroGradient;
    }
    bottom
    {
        type            fixedValue;
        value           uniform 0;
    }
    top
    {
        type            symmetryPlane;
    }
    side1
    {
        type            symmetryPlane;
    }
    side2
    {
        type            symmetryPlane;
    }
    procBoundary4to3
    {
        type            processor;
        value           nonuniform List<scalar> 
12
(
1.35739e-39
3.50712e-41
4.75425e-43
4.47343e-45
1.38144e-41
3.71141e-43
5.22536e-45
5.09966e-47
7.3389e-44
2.04734e-45
2.98988e-47
3.02295e-49
)
;
    }
    procBoundary4to5
    {
        type            processor;
        value           nonuniform List<scalar> 
12
(
7.73731e-54
2.43946e-55
4.01509e-57
4.55941e-59
9.62618e-56
3.1339e-57
5.32239e-59
6.23087e-61
6.21276e-58
2.08662e-59
3.65354e-61
4.40597e-63
)
;
    }
    procBoundary4to20
    {
        type            processor;
        value           nonuniform List<scalar> 
15
(
4.66576e-50
2.63609e-52
1.51548e-54
8.75111e-57
5.03413e-59
5.57382e-52
3.25668e-54
1.93505e-56
1.15386e-58
6.84749e-61
3.4582e-54
2.08751e-56
1.28077e-58
7.87964e-61
4.82003e-63
)
;
    }
    procBoundary4to68
    {
        type            processor;
        value           nonuniform List<scalar> 
20
(
3.86457e-49
2.09026e-51
1.14559e-53
6.30648e-56
3.46616e-58
1.13125e-50
6.33177e-53
3.58851e-55
2.04098e-57
1.1578e-59
1.73172e-52
1.00218e-54
5.86886e-57
3.44616e-59
2.01646e-61
1.83297e-54
1.09566e-56
6.62345e-59
4.01172e-61
2.41918e-63
)
;
    }
}


// ************************************************************************* //
