/*--------------------------------*- C++ -*----------------------------------*\
| =========                 |                                                 |
| \\      /  F ield         | OpenFOAM: The Open Source CFD Toolbox           |
|  \\    /   O peration     | Version:  2.4.0                                 |
|   \\  /    A nd           | Web:      www.OpenFOAM.org                      |
|    \\/     M anipulation  |                                                 |
\*---------------------------------------------------------------------------*/
FoamFile
{
    version     2.0;
    format      ascii;
    class       volScalarField;
    location    "0.01";
    object      alpha;
}
// * * * * * * * * * * * * * * * * * * * * * * * * * * * * * * * * * * * * * //

dimensions      [0 0 0 0 0 0 0];

internalField   nonuniform List<scalar> 
200
(
5.91896e-07
6.67961e-09
6.36101e-11
5.38484e-13
4.17873e-15
3.03224e-17
2.08572e-19
1.37336e-21
8.72001e-24
5.36892e-26
1.17101e-06
1.31614e-08
1.24902e-10
1.054e-12
8.15476e-15
5.90039e-17
4.04724e-19
2.65764e-21
1.6829e-23
1.03341e-25
9.87939e-09
1.24839e-10
1.31571e-12
1.22079e-14
1.02999e-16
8.07069e-19
5.95972e-21
4.19163e-23
2.83032e-25
1.84604e-27
4.69427e-11
6.58789e-13
7.63509e-15
7.72643e-17
7.06073e-19
5.95713e-21
4.71246e-23
3.53486e-25
2.53568e-27
1.75093e-29
1.95459e-09
2.48071e-11
2.62416e-13
2.44299e-15
2.06766e-17
1.62503e-19
1.20348e-21
8.48856e-24
5.74778e-26
3.75927e-28
3.86125e-09
4.87953e-11
5.14303e-13
4.77233e-15
4.02677e-17
3.15549e-19
2.33031e-21
1.6391e-23
1.10685e-25
7.21988e-28
3.6631e-11
5.14018e-13
5.95658e-15
6.02716e-17
5.50725e-19
4.64593e-21
3.67481e-23
2.7562e-25
1.9769e-27
1.36493e-29
1.93339e-13
2.98292e-15
3.76976e-17
4.1313e-19
4.0645e-21
3.67311e-23
3.09854e-25
2.46888e-27
1.87473e-29
1.36612e-31
3.6343e-12
5.12407e-14
5.96158e-16
6.05386e-18
5.55018e-20
4.69713e-22
3.72681e-24
2.80364e-26
2.01689e-28
1.3966e-30
7.16872e-12
1.00615e-13
1.1662e-15
1.18027e-17
1.07869e-19
9.10177e-22
7.20081e-24
5.40195e-26
3.87542e-28
2.67632e-30
7.554e-14
1.1655e-15
1.47297e-17
1.61427e-19
1.58821e-21
1.43531e-23
1.21082e-25
9.64795e-28
7.32631e-30
5.33885e-32
4.38505e-16
7.37729e-18
1.00973e-19
1.19143e-21
1.25567e-23
1.21023e-25
1.08459e-27
9.1491e-30
7.33249e-32
5.62385e-34
5.00697e-15
7.764e-17
9.85307e-19
1.08385e-20
1.07003e-22
9.70194e-25
8.21046e-27
6.56234e-29
4.99827e-31
3.65318e-33
9.86123e-15
1.52185e-16
1.92381e-18
2.10889e-20
2.07536e-22
1.87603e-24
1.58301e-26
1.26167e-28
9.5831e-31
6.9852e-33
1.1427e-16
1.92255e-18
2.63155e-20
3.10529e-22
3.27293e-24
3.15467e-26
2.82733e-28
2.38516e-30
1.91169e-32
1.46631e-34
7.23547e-19
1.31818e-20
1.94248e-22
2.4553e-24
2.75981e-26
2.82586e-28
2.68119e-30
2.38719e-32
2.01374e-34
1.62161e-36
5.69731e-18
9.63673e-20
1.32485e-21
1.56946e-23
1.66017e-25
1.60568e-27
1.44382e-29
1.22193e-31
9.82447e-34
7.55888e-36
1.12034e-17
1.8856e-19
2.58186e-21
3.04771e-23
3.21335e-25
3.09832e-27
2.77779e-29
2.34418e-31
1.8795e-33
1.44213e-35
1.41596e-19
2.58005e-21
3.80257e-23
4.80721e-25
5.40427e-27
5.53447e-29
5.25197e-31
4.67681e-33
3.9458e-35
3.17795e-37
9.71273e-22
1.90502e-23
3.00728e-25
4.05427e-27
4.84169e-29
5.24909e-31
5.25705e-33
4.92701e-35
4.36414e-37
3.68177e-39
)
;

boundaryField
{
    inlet
    {
        type            zeroGradient;
    }
    outlet
    {
        type            zeroGradient;
    }
    bottom
    {
        type            fixedValue;
        value           uniform 0;
    }
    top
    {
        type            symmetryPlane;
    }
    side1
    {
        type            symmetryPlane;
    }
    side2
    {
        type            symmetryPlane;
    }
    procBoundary4to3
    {
        type            processor;
        value           nonuniform List<scalar> 
20
(
3.99755e-05
7.95219e-05
5.87624e-07
2.48394e-09
1.1556e-07
2.29649e-07
1.93851e-09
9.21595e-12
1.9106e-10
3.79288e-10
3.60069e-12
1.90174e-14
2.36983e-13
4.69928e-13
4.95541e-15
2.87866e-17
2.45213e-16
4.85679e-16
5.63256e-18
3.56943e-20
)
;
    }
    procBoundary4to5
    {
        type            processor;
        value           nonuniform List<scalar> 
20
(
3.2195e-28
6.18072e-28
1.16868e-29
1.16989e-31
2.38634e-30
4.57108e-30
9.11891e-32
9.60598e-34
9.35717e-33
1.78841e-32
3.75417e-34
4.15175e-36
2.5763e-35
4.9131e-35
1.08257e-36
1.25406e-38
5.59747e-38
1.06509e-37
2.45805e-39
2.97678e-41
)
;
    }
    procBoundary4to12
    {
        type            processor;
        value           nonuniform List<scalar> 
50
(
1.65274e-13
2.55035e-15
3.22361e-17
3.53335e-19
3.47678e-21
3.14249e-23
2.65135e-25
2.1129e-27
1.60467e-29
1.1695e-31
7.48582e-16
1.25944e-17
1.72384e-19
2.03409e-21
2.14383e-23
2.06629e-25
1.85181e-27
1.56214e-29
1.252e-31
9.6026e-34
1.85197e-18
3.37399e-20
4.9719e-22
6.28445e-24
7.0638e-26
7.23277e-28
6.86242e-30
6.10985e-32
5.15397e-34
4.15022e-36
3.31019e-21
6.49192e-23
1.02472e-24
1.38133e-26
1.64944e-28
1.78804e-30
1.79056e-32
1.67796e-34
1.48611e-36
1.25358e-38
4.78541e-24
1.00524e-25
1.69222e-27
2.42349e-29
3.06397e-31
3.50589e-33
3.6956e-35
3.63642e-37
3.37407e-39
2.97559e-41
)
;
    }
}


// ************************************************************************* //
