/*--------------------------------*- C++ -*----------------------------------*\
| =========                 |                                                 |
| \\      /  F ield         | OpenFOAM: The Open Source CFD Toolbox           |
|  \\    /   O peration     | Version:  2.4.0                                 |
|   \\  /    A nd           | Web:      www.OpenFOAM.org                      |
|    \\/     M anipulation  |                                                 |
\*---------------------------------------------------------------------------*/
FoamFile
{
    version     2.0;
    format      ascii;
    class       volVectorField;
    location    "0.01";
    object      U;
}
// * * * * * * * * * * * * * * * * * * * * * * * * * * * * * * * * * * * * * //

dimensions      [0 1 -1 0 0 0 0];

internalField   nonuniform List<vector> 
200
(
(4.31574 -0.726274 -26.6976)
(3.29329 2.85243 -11.5039)
(8.41945 -1.7579 -49.9206)
(16.9358 -5.41269 0.135581)
(15.2423 9.30029 16.3077)
(3.00184 12.9699 8.92376)
(4.88209 -0.795655 0.539846)
(3.8146 -0.604633 2.16786)
(3.60727 0.328932 1.69037)
(3.62292 -0.568982 3.98627)
(3.18961 5.97334 -3.60134)
(4.09631 4.34693 -29.4978)
(13.3914 -0.316379 -0.835421)
(11.332 6.73661 12.6412)
(5.70252 4.77235 5.87439)
(9.77317 0.158488 -0.79371)
(12.2972 2.88976 4.40545)
(8.65249 2.83312 1.09652)
(8.40531 -0.529958 6.46024)
(2.58837 1.18479 -0.306773)
(1.16369 0.59916 -2.79919)
(3.03818 -0.765715 -0.864662)
(3.85014 -0.72692 -0.732344)
(4.78449 1.65374 0.689182)
(6.6119 0.870562 -2.08384)
(9.72241 4.41009 -0.158096)
(9.1193 -1.23507 0.650451)
(9.02698 3.47544 2.31132)
(9.70781 11.7414 5.58366)
(8.72922 5.03505 0.467479)
(15.0722 27.9425 33.5363)
(-0.585077 -3.07514 4.70028)
(6.02875 -0.296655 -1.24777)
(5.58689 -0.265404 -2.78334)
(6.3472 1.52512 -0.71439)
(8.41298 -3.62975 -0.487667)
(8.01362 3.57306 1.0813)
(8.66956 5.49166 2.10088)
(4.38123 -7.47096 -3.02886)
(15.1116 33.9591 -1.80035)
(6.29492 -1.46903 -2.59078)
(1.85871 -0.864671 -11.5111)
(6.2854 -6.20837 -5.60642)
(4.48521 5.9567 -0.393705)
(1.20592 5.60851 1.43603)
(6.53382 -1.60332 -1.04591)
(5.51555 0.4875 2.10603)
(5.19419 1.27282 -2.58309)
(5.98534 -0.130619 -0.0563087)
(5.92033 -0.22193 2.14679)
(4.66806 -3.2037 -3.32327)
(4.16454 -2.54018 -1.81784)
(-0.459895 -3.7871 -5.34193)
(2.36985 -0.166557 -1.20634)
(1.78035 -3.37927 -9.54755)
(8.1122 1.72075 0.878654)
(8.81498 0.407761 0.293301)
(7.41062 0.706879 -0.749926)
(7.88471 1.42694 -2.06067)
(6.545 1.37956 -0.590961)
(6.53168 -3.48467 -0.393671)
(4.75237 -3.49477 -2.34962)
(4.97656 -0.889834 -1.56105)
(4.22421 0.033279 -3.69003)
(6.0122 3.85413 -1.13892)
(5.12314 0.703006 -0.338136)
(6.42792 7.6598 -1.39985)
(6.4101 1.88795 4.09224)
(9.30265 3.83386 -6.69607)
(9.49157 -0.0404401 -10.0058)
(5.6357 -2.28761 -0.467252)
(8.57736 -1.87706 -0.219096)
(6.40029 -1.45903 -2.75805)
(6.37607 2.44262 -1.80004)
(5.80691 -1.14314 -2.63031)
(6.85778 5.61724 -3.02853)
(7.08434 -0.124929 -0.669117)
(9.25588 0.289161 -1.78548)
(8.92926 3.12612 -5.37162)
(10.4697 4.58035 -0.794295)
(5.10599 0.160874 -4.77456)
(2.59921 0.85348 -3.12057)
(-0.0917779 -1.4841 -8.52223)
(1.17762 2.3157 1.90157)
(1.49376 -4.93633 -9.95117)
(3.73265 0.553226 14.1256)
(14.0254 -0.783965 1.01836)
(7.84642 0.750252 -1.55105)
(7.61623 0.427825 -0.466813)
(6.72577 0.185653 -0.153516)
(5.36964 1.53262 -1.4893)
(2.69599 -0.653954 -4.41424)
(2.97641 0.779181 -2.42996)
(1.87805 -4.10345 -9.33964)
(5.7321 1.20111 -0.555199)
(-4.35622 -20.0147 -51.285)
(6.37271 -2.38217 -0.860962)
(7.43587 1.02223 -1.19042)
(6.73588 1.51927 -0.592196)
(6.40021 0.97443 3.35153)
(7.21177 -0.714157 -0.430164)
(3.85366 3.24898 2.95866)
(4.38376 -0.232549 -1.47259)
(4.84969 0.77035 -1.04005)
(5.85518 -5.27871 -2.97204)
(5.00164 0.028844 -1.26549)
(4.88189 -4.46876 -5.32098)
(6.11998 -2.64363 -0.890926)
(9.67845 -0.0735444 -6.64134)
(5.09242 -2.13563 7.85631)
(5.53782 13.749 16.4402)
(8.11334 2.5286 2.16383)
(5.94812 -1.14823 -0.430792)
(6.99111 -5.51068 -0.793883)
(4.85011 0.0638382 -0.588969)
(9.22673 -10.7418 -1.53129)
(4.83816 -3.43288 -1.67408)
(9.88592 -3.68795 -3.22531)
(7.84835 -0.736857 0.270367)
(6.44813 -3.05132 1.22276)
(5.76793 -0.459309 -0.170452)
(6.57412 0.568312 0.552746)
(3.67447 1.13142 0.402034)
(2.72125 -2.21613 -9.63568)
(3.44155 1.28924 -2.22829)
(3.28598 -5.92875 -18.9399)
(6.78942 1.42615 1.74705)
(6.16909 0.739652 2.02689)
(5.71911 0.808904 2.08051)
(5.69498 -0.0114336 3.60214)
(9.01827 3.5981 12.5199)
(5.43741 0.68257 0.60941)
(6.52009 -0.300828 -2.78101)
(6.25476 0.23993 -1.70303)
(6.2567 -3.42757 -6.64674)
(4.52298 -0.663185 0.201253)
(-0.363863 -5.95505 -15.8326)
(3.09247 -1.04322 -1.09556)
(2.88747 0.5729 4.83878)
(4.25625 -0.572999 5.08178)
(4.65178 3.74026 5.08533)
(6.63768 -0.212806 -1.92262)
(6.60006 -0.214171 -1.90986)
(5.95059 -1.88172 -1.71921)
(5.59053 -1.0036 -0.592634)
(5.34885 -4.31432 -4.40288)
(4.99902 -1.12557 -1.80503)
(5.38174 -3.65829 -9.66864)
(2.91267 -2.67357 6.41229)
(5.17048 -0.937597 10.9411)
(6.37359 0.350418 -1.32158)
(6.72795 0.644957 -1.16866)
(5.51044 -0.231045 -1.54865)
(5.1752 -0.12046 -0.589366)
(5.70531 -3.69173 -1.05864)
(4.96003 -0.116452 -1.00057)
(7.22371 -1.28505 -0.319285)
(5.22043 -1.60228 3.04112)
(6.63309 -2.23923 0.63876)
(-0.315191 -8.30254 21.4914)
(5.51814 0.18055 -1.22942)
(4.865 0.53173 0.5383)
(6.45186 0.258998 2.08442)
(4.27324 1.30511 5.13249)
(4.75245 -3.44633 -8.65223)
(2.81201 0.700247 9.22361)
(3.94061 -0.556137 2.48639)
(4.16653 0.228742 0.344801)
(4.74332 -0.0302462 0.614479)
(5.2436 -0.0240217 -0.761937)
(5.95365 0.268082 -1.67494)
(7.004 0.10198 -0.565377)
(6.74817 0.667188 0.646503)
(7.5091 -0.676298 -1.02759)
(5.35717 -1.19814 0.779936)
(5.72594 -2.11266 -2.72941)
(3.98345 -2.08227 1.8611)
(3.54226 -0.854253 0.099951)
(4.72142 -1.01468 -0.703412)
(5.02513 -0.366346 -0.43197)
(6.33068 -0.0230524 -0.348497)
(6.68097 -0.263832 -0.0767726)
(6.38418 -0.881488 0.290068)
(6.645 0.379848 1.54624)
(6.2042 0.177293 1.52983)
(6.45387 -4.40623 -7.86648)
(3.74914 -2.43529 -2.80522)
(1.78022 -2.04572 1.25613)
(3.2508 1.08541 2.06222)
(3.83837 0.298752 1.08467)
(5.51983 0.161204 1.43621)
(6.32555 -0.68122 -0.787473)
(5.88964 -0.478174 -0.42584)
(6.08485 -0.382277 0.0544509)
(6.25992 -1.59755 -0.993047)
(6.00454 -0.157247 1.26897)
(4.37486 -2.58775 -2.92757)
(5.11109 -1.16272 -0.774823)
(2.09596 -4.67744 9.83267)
(4.62386 3.09618 1.76968)
)
;

boundaryField
{
    inlet
    {
        type            calculated;
        value           nonuniform 0();
    }
    outlet
    {
        type            calculated;
        value           nonuniform 0();
    }
    bottom
    {
        type            calculated;
        value           uniform (0 0 0);
    }
    top
    {
        type            symmetryPlane;
    }
    side1
    {
        type            symmetryPlane;
    }
    side2
    {
        type            symmetryPlane;
    }
    procBoundary4to3
    {
        type            processor;
        value           nonuniform List<vector> 
20
(
(2.10364 1.60479 -4.34716)
(3.39698 1.58176 -16.4891)
(8.16471 13.7021 9.52236)
(2.9759 0.651411 -2.07291)
(6.6588 -0.902507 -4.65736)
(6.34106 0.765705 0.839169)
(6.17075 -2.99017 -1.26681)
(11.6491 10.3625 11.3491)
(6.05788 -0.0543783 -1.88787)
(6.63102 -0.0882415 -1.63961)
(7.46155 1.41278 1.46744)
(5.889 -3.17547 -0.79477)
(6.95925 0.359601 -1.91745)
(7.36835 -0.505153 0.0135361)
(5.9051 -0.354108 2.04494)
(4.8757 2.94135 2.39109)
(6.54227 0.0283307 -0.867929)
(5.71363 0.272103 -0.868349)
(4.94107 1.76559 1.46994)
(5.31782 -0.438195 0.0486451)
)
;
    }
    procBoundary4to5
    {
        type            processor;
        value           nonuniform List<vector> 
20
(
(2.01906 0.553961 -2.38126)
(2.73435 1.43843 -1.75811)
(4.17452 -2.33141 -0.516582)
(10.6764 8.27438 4.11113)
(6.99569 -0.144055 5.83513)
(5.91309 0.373348 3.32357)
(5.6513 -3.02084 4.48392)
(7.37546 -1.52772 2.90606)
(6.56097 0.660299 -1.29599)
(5.20794 0.158752 9.09268)
(5.82658 -0.59879 8.84712)
(4.49925 -5.3149 10.7686)
(5.8469 -0.0230995 -0.542609)
(7.19291 -0.187397 -0.878331)
(5.63179 -2.17078 14.7167)
(4.85321 -0.527168 5.35042)
(5.48401 -0.626028 -0.133793)
(6.55918 0.0118298 -1.34158)
(5.70702 -2.05833 2.75125)
(3.40844 -0.913865 0.164247)
)
;
    }
    procBoundary4to12
    {
        type            processor;
        value           nonuniform List<vector> 
50
(
(2.51058 -2.85415 1.45879)
(8.34456 -0.524948 -0.00161207)
(6.29353 -0.701386 -0.568674)
(6.64671 0.218421 0.53396)
(7.15108 -0.579511 0.514601)
(6.82219 2.4172 1.75172)
(4.87435 -0.601782 1.44504)
(4.98699 1.75635 2.17341)
(4.8539 10.5781 1.10482)
(5.83365 -0.657832 0.945797)
(8.69858 0.443013 1.06584)
(7.66208 0.105613 0.332677)
(7.02355 0.0442584 -0.0961751)
(6.96442 -1.51774 -1.53647)
(8.42901 1.38397 -2.15171)
(9.84297 -6.85251 1.60575)
(3.62437 4.02688 3.18223)
(1.76402 -0.326409 -3.4948)
(4.852 -1.65399 -1.67431)
(6.52049 -0.98383 0.866235)
(7.98198 2.80734 3.12897)
(8.49247 0.971937 2.14003)
(6.92805 4.06283 3.52466)
(5.89119 -0.374405 0.138879)
(9.32268 -11.0643 -0.783153)
(3.8657 0.425746 -0.528977)
(11.5352 -14.3406 -1.52617)
(5.64054 -3.70863 -0.65069)
(6.30025 -1.13091 -0.588868)
(4.90188 -2.65448 1.95028)
(7.70313 3.10122 1.93707)
(6.20492 5.04003 4.41009)
(4.85067 0.528392 -0.73873)
(5.47456 -4.02129 -3.40098)
(4.99571 1.1827 0.972628)
(7.35044 -14.9714 -4.04289)
(6.41668 -4.43348 -7.40278)
(6.42913 -0.558856 0.418311)
(3.67398 -1.03384 2.80894)
(3.47502 -0.412073 -0.0785397)
(6.75375 -2.3787 0.0699736)
(5.523 -3.67139 -0.9993)
(7.02485 -1.82332 0.491344)
(6.57385 -1.49565 -0.803797)
(6.53667 -1.20574 -0.486601)
(7.19179 -2.20959 -0.0492231)
(5.91201 -0.375534 1.02403)
(4.46875 -0.202125 4.75252)
(2.47067 5.72957 4.64974)
(3.49237 15.6038 3.98353)
)
;
    }
}


// ************************************************************************* //
