/*--------------------------------*- C++ -*----------------------------------*\
| =========                 |                                                 |
| \\      /  F ield         | OpenFOAM: The Open Source CFD Toolbox           |
|  \\    /   O peration     | Version:  2.4.0                                 |
|   \\  /    A nd           | Web:      www.OpenFOAM.org                      |
|    \\/     M anipulation  |                                                 |
\*---------------------------------------------------------------------------*/
FoamFile
{
    version     2.0;
    format      ascii;
    class       volVectorField;
    location    "0.01";
    object      Ua;
}
// * * * * * * * * * * * * * * * * * * * * * * * * * * * * * * * * * * * * * //

dimensions      [0 1 -1 0 0 0 0];

internalField   nonuniform List<vector> 
200
(
(2.04778 0.576523 -0.00131666)
(2.04837 0.576138 -0.00160036)
(2.04895 0.575715 -0.00185614)
(2.04952 0.575275 -0.00209837)
(2.05009 0.574825 -0.00233278)
(2.05065 0.57437 -0.00256209)
(2.05121 0.573911 -0.00278774)
(2.05177 0.573449 -0.00301056)
(2.05233 0.572985 -0.00323106)
(2.05288 0.57252 -0.00344958)
(2.3241 0.937849 -0.109148)
(2.32426 0.937885 -0.109182)
(2.32429 0.937828 -0.10918)
(2.32427 0.937724 -0.109159)
(2.3242 0.937594 -0.109127)
(2.32412 0.937446 -0.109089)
(2.32402 0.937286 -0.109046)
(2.32392 0.937118 -0.109001)
(2.3238 0.936944 -0.108953)
(2.32368 0.936765 -0.108903)
(2.32438 0.938335 -0.109276)
(2.32467 0.938515 -0.109358)
(2.32481 0.938585 -0.109395)
(2.32488 0.938599 -0.10941)
(2.32491 0.938581 -0.109413)
(2.32492 0.938543 -0.109408)
(2.32491 0.938491 -0.109397)
(2.32488 0.93843 -0.109383)
(2.32485 0.938362 -0.109366)
(2.3248 0.938289 -0.109347)
(2.32431 0.938374 -0.10927)
(2.32468 0.938632 -0.109379)
(2.32489 0.938762 -0.109437)
(2.32501 0.938827 -0.10947)
(2.32508 0.938855 -0.109487)
(2.32512 0.93886 -0.109496)
(2.32515 0.938849 -0.109498)
(2.32515 0.938828 -0.109496)
(2.32515 0.938798 -0.109491)
(2.32514 0.938763 -0.109483)
(2.04834 0.57598 -0.00148152)
(2.04893 0.575621 -0.0017838)
(2.04951 0.575212 -0.00204892)
(2.05008 0.57478 -0.00229634)
(2.05065 0.574336 -0.00253378)
(2.05121 0.573884 -0.00276488)
(2.05177 0.573428 -0.00299154)
(2.05232 0.572968 -0.00321486)
(2.05287 0.572505 -0.00343552)
(2.05342 0.572041 -0.00365394)
(2.32372 0.937474 -0.109018)
(2.32393 0.937554 -0.10907)
(2.324 0.937523 -0.109078)
(2.324 0.937437 -0.109064)
(2.32395 0.937319 -0.109038)
(2.32388 0.93718 -0.109004)
(2.32379 0.937028 -0.108964)
(2.32369 0.936865 -0.108921)
(2.32359 0.936696 -0.108876)
(2.32347 0.93652 -0.108828)
(2.32406 0.938057 -0.109175)
(2.32441 0.938281 -0.109274)
(2.32459 0.938378 -0.109322)
(2.32469 0.93841 -0.109345)
(2.32474 0.938405 -0.109353)
(2.32475 0.938376 -0.109351)
(2.32475 0.938332 -0.109344)
(2.32473 0.938277 -0.109332)
(2.3247 0.938214 -0.109317)
(2.32467 0.938144 -0.1093)
(2.32402 0.938128 -0.109178)
(2.32445 0.938431 -0.109305)
(2.32469 0.938588 -0.109374)
(2.32484 0.938671 -0.109414)
(2.32493 0.938712 -0.109437)
(2.32498 0.938727 -0.109449)
(2.32502 0.938723 -0.109454)
(2.32503 0.938708 -0.109455)
(2.32503 0.938683 -0.109451)
(2.32503 0.938652 -0.109445)
(2.0489 0.575427 -0.0016391)
(2.04949 0.575098 -0.00196258)
(2.05007 0.574705 -0.00223835)
(2.05064 0.574282 -0.00249172)
(2.0512 0.573844 -0.00273268)
(2.05176 0.573396 -0.0029659)
(2.05232 0.572943 -0.00319382)
(2.05287 0.572485 -0.00341784)
(2.05342 0.572024 -0.0036388)
(2.05397 0.571561 -0.00385725)
(2.32333 0.937098 -0.108888)
(2.3236 0.937222 -0.108958)
(2.32371 0.937218 -0.108977)
(2.32373 0.93715 -0.10897)
(2.3237 0.937044 -0.108949)
(2.32364 0.936914 -0.108919)
(2.32357 0.936769 -0.108882)
(2.32347 0.936612 -0.108842)
(2.32337 0.936446 -0.108798)
(2.32326 0.936274 -0.108752)
(2.32375 0.937778 -0.109073)
(2.32416 0.938048 -0.10919)
(2.32437 0.938171 -0.109249)
(2.32449 0.938221 -0.109279)
(2.32456 0.938228 -0.109292)
(2.32459 0.93821 -0.109295)
(2.32459 0.938173 -0.10929)
(2.32459 0.938124 -0.109281)
(2.32456 0.938065 -0.109268)
(2.32453 0.938 -0.109253)
(2.32373 0.937882 -0.109086)
(2.32422 0.93823 -0.109231)
(2.3245 0.938413 -0.109311)
(2.32467 0.938515 -0.109358)
(2.32477 0.938569 -0.109386)
(2.32484 0.938593 -0.109402)
(2.32488 0.938597 -0.10941)
(2.32491 0.938588 -0.109413)
(2.32492 0.938568 -0.109412)
(2.32492 0.93854 -0.109408)
(2.04946 0.574867 -0.0017893)
(2.05005 0.574571 -0.00213655)
(2.05063 0.574195 -0.00242425)
(2.05119 0.573782 -0.00268432)
(2.05176 0.57335 -0.00292927)
(2.05231 0.572907 -0.00316493)
(2.05287 0.572456 -0.00339433)
(2.05342 0.572001 -0.0036192)
(2.05397 0.571541 -0.0038406)
(2.05451 0.57108 -0.00405917)
(2.32294 0.936723 -0.108758)
(2.32327 0.936891 -0.108846)
(2.32342 0.936913 -0.108875)
(2.32346 0.936862 -0.108876)
(2.32345 0.936768 -0.10886)
(2.32341 0.936648 -0.108834)
(2.32334 0.936509 -0.1088)
(2.32325 0.936357 -0.108762)
(2.32316 0.936196 -0.10872)
(2.32305 0.936028 -0.108676)
(2.32343 0.9375 -0.108972)
(2.3239 0.937814 -0.109107)
(2.32415 0.937964 -0.109176)
(2.3243 0.938032 -0.109214)
(2.32438 0.938052 -0.109232)
(2.32442 0.938043 -0.109238)
(2.32444 0.938013 -0.109237)
(2.32444 0.93797 -0.10923)
(2.32442 0.937916 -0.109219)
(2.3244 0.937855 -0.109205)
(2.32344 0.937637 -0.108995)
(2.32399 0.938028 -0.109157)
(2.3243 0.938239 -0.109248)
(2.3245 0.938358 -0.109302)
(2.32462 0.938425 -0.109335)
(2.3247 0.938459 -0.109355)
(2.32475 0.938471 -0.109367)
(2.32479 0.938467 -0.109372)
(2.3248 0.938452 -0.109373)
(2.32481 0.938429 -0.10937)
(2.05001 0.574297 -0.00192819)
(2.0506 0.574038 -0.00230058)
(2.05118 0.57368 -0.00260039)
(2.05175 0.573279 -0.00286677)
(2.05231 0.572854 -0.00311501)
(2.05286 0.572415 -0.0033522)
(2.05342 0.571968 -0.00358204)
(2.05396 0.571515 -0.00380661)
(2.05451 0.571057 -0.00402718)
(2.05505 0.570597 -0.00424454)
(2.32256 0.936347 -0.108413)
(2.32295 0.936559 -0.108501)
(2.32312 0.936607 -0.108523)
(2.32319 0.936573 -0.108513)
(2.3232 0.936492 -0.108485)
(2.32317 0.93638 -0.108445)
(2.32311 0.936248 -0.108396)
(2.32303 0.936102 -0.108343)
(2.32294 0.935945 -0.108285)
(2.32285 0.93578 -0.108225)
(2.32312 0.937222 -0.108637)
(2.32365 0.93758 -0.108772)
(2.32394 0.937757 -0.108834)
(2.3241 0.937842 -0.108861)
(2.3242 0.937875 -0.108866)
(2.32426 0.937875 -0.108858)
(2.32428 0.937853 -0.108842)
(2.32429 0.937816 -0.10882)
(2.32428 0.937767 -0.108793)
(2.32426 0.937709 -0.108763)
(2.32315 0.937391 -0.108652)
(2.32376 0.937827 -0.108814)
(2.32411 0.938064 -0.108897)
(2.32433 0.938202 -0.10894)
(2.32447 0.938281 -0.108961)
(2.32456 0.938325 -0.108967)
(2.32462 0.938344 -0.108963)
(2.32466 0.938347 -0.108953)
(2.32469 0.938337 -0.108937)
(2.3247 0.938317 -0.108919)
)
;

boundaryField
{
    inlet
    {
        type            calculated;
        value           nonuniform 0();
    }
    outlet
    {
        type            calculated;
        value           nonuniform 0();
    }
    bottom
    {
        type            calculated;
        value           uniform (0 0 0);
    }
    top
    {
        type            symmetryPlane;
    }
    side1
    {
        type            symmetryPlane;
    }
    side2
    {
        type            symmetryPlane;
    }
    procBoundary4to3
    {
        type            processor;
        value           nonuniform List<vector> 
20
(
(2.04718 0.576807 -0.000958142)
(2.32365 0.937585 -0.109023)
(2.32373 0.937882 -0.109086)
(2.32351 0.937799 -0.109035)
(2.04773 0.5762 -0.00107796)
(2.32314 0.937121 -0.108857)
(2.32329 0.937515 -0.108949)
(2.32311 0.937464 -0.108907)
(2.04829 0.575576 -0.00118402)
(2.32264 0.936657 -0.108691)
(2.32286 0.937148 -0.108812)
(2.3227 0.93713 -0.10878)
(2.04883 0.574936 -0.00127633)
(2.32214 0.936195 -0.108526)
(2.32243 0.936782 -0.108675)
(2.3223 0.936798 -0.108654)
(2.04937 0.574278 -0.00135244)
(2.32164 0.935733 -0.108165)
(2.32201 0.936417 -0.108325)
(2.3219 0.936466 -0.108295)
)
;
    }
    procBoundary4to5
    {
        type            processor;
        value           nonuniform List<vector> 
20
(
(2.05342 0.572047 -0.0036645)
(2.32355 0.936582 -0.108853)
(2.32476 0.938211 -0.109327)
(2.32512 0.938722 -0.109474)
(2.05396 0.571568 -0.00386819)
(2.32335 0.93634 -0.108778)
(2.32463 0.93807 -0.109281)
(2.32502 0.938615 -0.109437)
(2.05451 0.571087 -0.00407091)
(2.32315 0.936097 -0.108704)
(2.3245 0.937929 -0.109235)
(2.32491 0.938507 -0.109401)
(2.05504 0.570606 -0.00427233)
(2.32294 0.935854 -0.108629)
(2.32437 0.937787 -0.109189)
(2.32481 0.938399 -0.109365)
(2.05558 0.570122 -0.00445577)
(2.32274 0.935609 -0.108162)
(2.32424 0.937645 -0.10873)
(2.3247 0.93829 -0.108897)
)
;
    }
    procBoundary4to12
    {
        type            processor;
        value           nonuniform List<vector> 
50
(
(2.32415 0.938303 -0.109231)
(2.3246 0.938622 -0.109363)
(2.32485 0.938795 -0.109436)
(2.32501 0.938895 -0.109481)
(2.32511 0.938953 -0.109509)
(2.32518 0.938984 -0.109526)
(2.32523 0.938997 -0.109536)
(2.32525 0.938998 -0.109541)
(2.32527 0.93899 -0.109543)
(2.32528 0.938975 -0.109542)
(2.32387 0.938073 -0.109144)
(2.32438 0.938437 -0.109294)
(2.32467 0.938637 -0.109378)
(2.32485 0.938755 -0.10943)
(2.32497 0.938826 -0.109463)
(2.32505 0.938866 -0.109484)
(2.32511 0.938887 -0.109497)
(2.32514 0.938895 -0.109505)
(2.32517 0.938891 -0.109508)
(2.32518 0.938881 -0.109509)
(2.3236 0.937843 -0.109057)
(2.32416 0.938252 -0.109224)
(2.32449 0.938479 -0.10932)
(2.32469 0.938615 -0.109379)
(2.32483 0.938698 -0.109417)
(2.32492 0.938749 -0.109442)
(2.32499 0.938778 -0.109458)
(2.32503 0.938791 -0.109468)
(2.32506 0.938793 -0.109474)
(2.32508 0.938786 -0.109476)
(2.32332 0.937614 -0.10897)
(2.32395 0.938067 -0.109155)
(2.32431 0.938321 -0.109261)
(2.32454 0.938475 -0.109328)
(2.32469 0.938571 -0.109371)
(2.3248 0.938632 -0.1094)
(2.32487 0.938668 -0.109419)
(2.32492 0.938687 -0.109432)
(2.32496 0.938694 -0.109439)
(2.32498 0.938691 -0.109443)
(2.32305 0.937385 -0.108614)
(2.32373 0.937882 -0.108799)
(2.32412 0.938163 -0.108898)
(2.32438 0.938335 -0.108953)
(2.32455 0.938444 -0.108983)
(2.32467 0.938514 -0.108998)
(2.32475 0.938558 -0.109002)
(2.32481 0.938583 -0.108999)
(2.32486 0.938594 -0.108991)
(2.32488 0.938596 -0.108978)
)
;
    }
}


// ************************************************************************* //
