/*--------------------------------*- C++ -*----------------------------------*\
| =========                 |                                                 |
| \\      /  F ield         | OpenFOAM: The Open Source CFD Toolbox           |
|  \\    /   O peration     | Version:  2.4.0                                 |
|   \\  /    A nd           | Web:      www.OpenFOAM.org                      |
|    \\/     M anipulation  |                                                 |
\*---------------------------------------------------------------------------*/
FoamFile
{
    version     2.0;
    format      ascii;
    class       volScalarField;
    location    "0.13";
    object      nut;
}
// * * * * * * * * * * * * * * * * * * * * * * * * * * * * * * * * * * * * * //

dimensions      [0 2 -1 0 0 0 0];

internalField   nonuniform List<scalar> 
200
(
4.23748e+07
7.42465e+07
3.03489e+07
6.94285e+07
4.23582e+07
6.96241e+07
3.57684e+07
6.34736e+07
1.17036e+08
9.74665e+07
3.80409e+07
5.99842e+07
6.57147e+07
4.22707e+07
5.71746e+07
8.70455e+07
9.41538e+07
6.37132e+07
3.06639e+07
1.12166e+08
3.76381e+07
4.54621e+07
7.23711e+07
5.74944e+07
1.47331e+08
1.98059e+08
6.47709e+07
5.86283e+07
8.25191e+07
5.19418e+07
3.00059e+07
4.89829e+07
4.24665e+07
1.18028e+08
3.6514e+08
8.53367e+07
2.0793e+08
6.12198e+07
7.24657e+07
6.84284e+07
1.21653e+08
1.02575e+08
1.58598e+08
6.17682e+07
3.68573e+07
1.07809e+08
1.00995e+07
2.13404e+07
6.80014e+07
5.80333e+07
2.7746e+07
1.27465e+08
3.93309e+07
1.21014e+08
8.4225e+07
5.4954e+07
5.60742e+07
3.85896e+07
5.76361e+07
4.81518e+07
3.27165e+07
5.32475e+07
1.13759e+08
4.58575e+07
6.67402e+07
1.02389e+08
7.80132e+07
6.42481e+07
5.85691e+07
9.99625e+07
1.20485e+07
4.89103e+07
1.13961e+08
9.06815e+07
1.15134e+08
1.48541e+08
6.89795e+07
5.87363e+07
8.6466e+07
1.03298e+08
3.14301e+07
3.89399e+07
4.96918e+07
6.05722e+07
3.70153e+07
4.46969e+07
5.47431e+07
6.5207e+07
5.23697e+07
4.71959e+07
2.4445e+07
2.73611e+07
5.3644e+07
3.53159e+07
4.54385e+07
4.5757e+07
4.17847e+07
1.77827e+07
4.84941e+07
4.25251e+07
2.49218e+07
3.0582e+07
4.61706e+07
5.65341e+07
4.11937e+07
5.44011e+07
3.19766e+07
5.69381e+07
3.14556e+07
7.46101e+07
4.24705e+07
8.1206e+07
3.17839e+07
3.27094e+07
1.00603e+08
3.20289e+07
7.41892e+07
3.62339e+07
8.77077e+07
8.4188e+07
1.74273e+07
2.03447e+07
3.72762e+07
2.69112e+07
3.97592e+07
6.91262e+07
6.96571e+07
8.9062e+07
4.85379e+07
8.58006e+07
2.22776e+07
2.44001e+07
2.65323e+07
2.66415e+07
1.90791e+07
3.5902e+07
5.99411e+07
4.98795e+07
2.01716e+07
3.90214e+07
3.121e+07
2.61279e+07
1.93468e+07
2.20564e+07
2.90506e+07
2.26489e+07
4.36616e+07
2.72315e+07
8.17726e+07
3.29265e+07
1.73964e+07
4.30458e+07
5.46181e+07
2.574e+07
1.93147e+07
5.1299e+07
2.53015e+07
5.44906e+07
2.60536e+07
1.05048e+08
4.37166e+07
3.85712e+07
4.55312e+07
2.96134e+07
3.92289e+07
4.06287e+07
6.32364e+07
4.6348e+07
1.32897e+08
1.40537e+08
2.88936e+07
2.00134e+07
1.33251e+07
4.54463e+07
2.55171e+07
3.81954e+07
5.59251e+07
4.55608e+07
1.17328e+08
1.0437e+08
2.01165e+07
2.9069e+07
4.40432e+07
3.13547e+07
3.68564e+07
4.54415e+07
3.68394e+07
8.10915e+07
3.51614e+07
1.6529e+08
2.87331e+07
2.92644e+07
3.20214e+07
1.71313e+07
8.977e+07
3.45465e+07
5.99599e+07
4.43165e+07
9.05229e+07
2.77829e+07
)
;

boundaryField
{
    inlet
    {
        type            calculated;
        value           nonuniform 0();
    }
    outlet
    {
        type            calculated;
        value           nonuniform 0();
    }
    bottom
    {
        type            calculated;
        value           nonuniform List<scalar> 
40
(
5.28147e-17
3.9555e-17
4.31014e-17
4.09896e-17
5.43466e-17
6.72665e-17
4.95499e-17
6.25806e-17
5.76514e-17
4.79828e-17
8.40913e-17
3.7518e-17
7.25831e-17
5.987e-17
4.56775e-17
1.01567e-16
6.22635e-17
5.96974e-17
1.31333e-16
3.36948e-16
8.9375e-17
1.00955e-16
2.03024e-16
1.51903e-16
5.65781e-17
9.41012e-17
1.04692e-16
1.56082e-16
6.19861e-17
8.30759e-17
8.456e-17
7.13462e-17
1.59624e-16
6.03453e-17
8.47755e-17
8.73047e-17
8.5522e-17
1.23213e-16
8.65732e-17
7.01556e-17
)
;
    }
    top
    {
        type            symmetryPlane;
    }
    side1
    {
        type            symmetryPlane;
    }
    side2
    {
        type            symmetryPlane;
    }
    procBoundary10to2
    {
        type            processor;
        value           nonuniform List<scalar> 
50
(
6.39114e+07
3.45183e+07
7.48916e+07
2.06738e+07
6.24727e+07
4.12251e+07
1.22768e+08
1.28347e+08
1.30778e+08
7.80175e+07
1.44139e+08
1.4479e+08
1.20563e+08
2.89798e+07
1.29808e+08
2.16494e+07
6.41396e+08
7.13502e+07
7.2767e+07
8.67362e+07
2.18443e+07
9.77202e+07
8.00056e+07
2.71824e+07
3.31636e+07
1.02528e+08
1.39903e+08
1.00999e+08
2.37835e+07
2.69104e+08
5.93615e+06
3.13054e+07
2.66837e+07
2.71225e+07
3.62192e+07
4.7488e+07
2.86463e+08
1.7598e+08
1.77951e+08
4.15551e+07
1.82769e+07
6.99485e+07
4.39978e+07
3.38678e+07
3.98421e+07
5.44174e+07
1.46892e+08
1.4862e+08
1.18709e+08
6.66296e+07
)
;
    }
    procBoundary10to9
    {
        type            processor;
        value           nonuniform List<scalar> 
20
(
4.08842e+07
2.54468e+07
4.50704e+07
4.02162e+07
1.79991e+07
1.33348e+07
2.82441e+07
6.37618e+07
1.40395e+07
2.27128e+07
2.63925e+07
6.94859e+06
1.45623e+07
2.10722e+07
3.19167e+07
3.4584e+07
1.67026e+07
1.80493e+07
1.87949e+07
1.98958e+07
)
;
    }
    procBoundary10to11
    {
        type            processor;
        value           nonuniform List<scalar> 
20
(
7.28723e+07
5.75986e+07
1.22114e+08
1.81668e+08
3.91473e+07
3.99019e+07
6.42355e+07
1.17027e+08
5.3427e+08
7.78485e+07
4.02812e+07
1.08641e+08
2.73829e+07
5.21827e+07
5.96471e+07
1.00222e+08
8.67936e+07
1.17177e+08
4.75585e+07
1.63596e+08
)
;
    }
    procBoundary10to18
    {
        type            processor;
        value           nonuniform List<scalar> 
50
(
4.17946e+07
4.0175e+07
1.00702e+08
4.00047e+08
1.53809e+08
3.20734e+08
9.55984e+07
6.92719e+07
1.06475e+08
1.32826e+08
4.27704e+07
8.57448e+07
1.03355e+08
1.21724e+08
1.75247e+08
1.10682e+08
9.26284e+07
8.37876e+07
1.36968e+08
1.06561e+08
8.62985e+07
2.48362e+07
3.34418e+07
1.10682e+08
3.99996e+07
2.53717e+07
6.54888e+07
9.02177e+07
1.37017e+08
1.32048e+08
4.72924e+07
6.78374e+07
2.9533e+07
2.94743e+07
1.09627e+08
2.65248e+07
4.7623e+07
6.55022e+07
8.13916e+07
2.4314e+08
2.74769e+07
5.31562e+07
3.96988e+07
2.08659e+08
2.1054e+07
9.34727e+07
3.61687e+07
5.19635e+07
6.84345e+07
8.53588e+07
)
;
    }
}


// ************************************************************************* //
