/*--------------------------------*- C++ -*----------------------------------*\
| =========                 |                                                 |
| \\      /  F ield         | OpenFOAM: The Open Source CFD Toolbox           |
|  \\    /   O peration     | Version:  2.4.0                                 |
|   \\  /    A nd           | Web:      www.OpenFOAM.org                      |
|    \\/     M anipulation  |                                                 |
\*---------------------------------------------------------------------------*/
FoamFile
{
    version     2.0;
    format      ascii;
    class       volScalarField;
    location    "0.13";
    object      nut;
}
// * * * * * * * * * * * * * * * * * * * * * * * * * * * * * * * * * * * * * //

dimensions      [0 2 -1 0 0 0 0];

internalField   nonuniform List<scalar> 
200
(
4.2314e+07
3.38269e+08
3.94687e+08
6.55959e+08
1.24933e+09
1.88795e+09
2.72691e+09
6.86318e+08
4.21255e+08
4.31913e+08
6.29281e+08
1.57848e+08
4.57754e+08
3.17597e+08
4.12916e+08
9.99673e+08
7.42038e+08
6.97969e+08
3.56046e+08
4.9474e+08
2.33855e+08
7.9162e+08
2.6411e+08
6.32269e+08
6.03408e+08
5.11799e+08
5.51163e+08
5.34129e+08
5.22675e+08
5.28692e+08
1.41632e+09
2.84252e+08
4.05206e+08
2.89414e+08
4.97186e+08
7.91899e+08
4.20356e+08
6.31109e+08
6.28024e+08
2.49636e+08
4.96495e+08
1.09831e+08
3.83778e+08
3.21868e+08
5.49103e+08
1.24064e+09
1.28204e+09
1.59765e+09
3.71903e+08
3.28912e+08
2.09577e+08
1.43524e+09
1.60027e+08
9.85769e+08
5.62327e+08
5.66708e+08
5.9596e+08
5.87562e+08
6.32509e+08
1.89371e+09
1.34355e+09
2.98569e+08
1.74463e+09
5.09639e+08
8.20118e+08
1.29393e+09
3.87441e+08
4.45957e+08
5.43264e+08
1.44949e+08
1.55626e+08
5.63543e+08
1.55383e+08
5.41081e+08
8.02033e+08
4.17751e+08
2.28858e+09
4.18253e+08
2.91038e+09
1.10714e+09
4.54246e+08
1.1164e+09
8.3735e+08
1.12009e+09
4.76297e+08
5.53419e+08
6.49599e+08
6.84479e+08
9.17305e+08
1.13405e+09
7.47244e+08
1.62975e+09
2.4832e+09
1.02058e+09
4.70338e+09
1.77927e+08
3.31877e+08
2.64316e+08
2.95408e+09
8.24078e+08
5.77823e+08
2.04467e+09
4.35368e+08
2.4073e+09
6.93705e+08
8.75507e+08
3.5795e+08
7.0686e+08
1.78555e+08
1.72994e+09
7.71702e+08
9.74734e+08
9.32523e+08
9.83007e+08
4.24386e+08
1.47013e+09
5.73112e+08
6.44813e+08
2.22717e+08
4.34204e+08
4.50745e+08
6.31607e+08
1.89879e+09
1.29097e+09
2.70855e+09
8.0876e+08
1.90662e+08
6.40226e+08
4.48265e+08
2.94851e+08
1.63179e+09
7.43225e+08
7.51351e+08
4.18577e+09
9.74693e+08
4.0059e+09
7.46003e+08
3.87987e+07
7.99255e+08
4.65328e+08
3.42942e+08
1.36073e+09
1.89385e+09
4.37766e+08
3.19833e+09
2.99711e+08
1.80295e+08
3.66688e+08
2.62581e+08
4.96245e+08
1.00031e+09
8.22887e+08
1.00783e+09
6.98952e+08
3.44865e+08
8.32772e+08
5.54357e+08
3.86995e+08
4.69728e+08
4.08557e+08
4.83163e+08
1.15397e+09
9.56298e+08
1.97643e+09
7.78589e+08
8.48035e+08
3.24809e+08
3.38199e+08
5.94945e+08
9.55336e+08
4.99299e+08
6.33782e+08
1.10883e+09
1.33493e+09
4.00152e+09
7.39117e+08
8.37413e+08
4.18259e+08
5.67513e+08
4.82687e+08
6.80805e+08
1.21129e+09
4.84858e+08
2.78567e+09
6.24762e+08
7.30217e+08
1.77077e+08
2.76612e+08
2.07814e+08
6.28688e+08
7.75944e+08
4.54893e+08
1.61303e+09
2.42665e+08
1.35843e+09
6.08021e+08
1.08468e+09
5.14508e+08
2.79001e+08
5.27553e+08
)
;

boundaryField
{
    inlet
    {
        type            calculated;
        value           nonuniform 0();
    }
    outlet
    {
        type            calculated;
        value           nonuniform 0();
    }
    bottom
    {
        type            calculated;
        value           nonuniform List<scalar> 
40
(
3.403e-17
3.02074e-16
2.39766e-16
1.01917e-15
4.88325e-16
2.21343e-16
3.78618e-16
4.0639e-16
1.7599e-16
6.34649e-16
4.07144e-16
4.21752e-16
1.80427e-15
3.99996e-16
6.82895e-16
3.95826e-16
8.00682e-16
9.90376e-16
6.75933e-16
5.06423e-16
4.74614e-15
9.51879e-16
5.22606e-16
8.84523e-16
2.12333e-15
9.16076e-16
5.6472e-16
8.22242e-16
7.98654e-16
5.91639e-16
6.61173e-16
4.87882e-16
6.6381e-16
5.31472e-16
6.57545e-16
8.09711e-16
6.93053e-16
7.66823e-16
6.67856e-16
3.6415e-16
)
;
    }
    top
    {
        type            symmetryPlane;
    }
    side1
    {
        type            symmetryPlane;
    }
    side2
    {
        type            symmetryPlane;
    }
    procBoundary5to4
    {
        type            processor;
        value           nonuniform List<scalar> 
20
(
5.38672e+08
1.92064e+09
1.06405e+09
5.23269e+08
3.24902e+08
7.57414e+08
8.22421e+07
3.29833e+08
4.55283e+08
4.91018e+08
4.41497e+08
6.13877e+08
9.89588e+08
1.51507e+08
1.16618e+09
5.81636e+08
3.40148e+08
5.17506e+08
2.94065e+08
3.17811e+08
)
;
    }
    procBoundary5to6
    {
        type            processor;
        value           nonuniform List<scalar> 
20
(
6.51997e+08
4.06225e+08
8.28338e+08
5.72125e+08
1.55381e+08
3.97504e+08
3.04045e+08
4.36865e+08
3.31107e+08
2.1943e+09
5.11272e+08
7.4324e+08
4.87234e+08
2.41861e+09
7.97813e+08
4.72727e+08
3.98294e+08
1.70221e+09
7.66509e+08
4.98486e+08
)
;
    }
    procBoundary5to13
    {
        type            processor;
        value           nonuniform List<scalar> 
50
(
8.5154e+08
2.37963e+09
3.88644e+08
1.43774e+09
2.29298e+08
4.90253e+08
3.13499e+08
4.80188e+08
1.42918e+09
9.04875e+08
6.29675e+08
6.99221e+08
7.83781e+08
9.74324e+08
1.65791e+08
1.7983e+09
7.89272e+08
3.98096e+09
1.60239e+09
2.39419e+09
9.85125e+08
9.52937e+08
1.23937e+09
5.51441e+08
1.36585e+09
8.89622e+08
6.64239e+08
1.55377e+09
9.55102e+08
5.55791e+08
7.12038e+08
1.17716e+09
3.39393e+08
8.19803e+08
6.72134e+08
7.92507e+08
1.03138e+09
5.71494e+08
1.09527e+09
5.50039e+08
3.4062e+08
5.04093e+08
4.28127e+08
5.11207e+08
4.83698e+08
6.79202e+08
6.18498e+08
4.71674e+08
3.52747e+08
6.13911e+08
)
;
    }
}


// ************************************************************************* //
