/*--------------------------------*- C++ -*----------------------------------*\
| =========                 |                                                 |
| \\      /  F ield         | OpenFOAM: The Open Source CFD Toolbox           |
|  \\    /   O peration     | Version:  2.4.0                                 |
|   \\  /    A nd           | Web:      www.OpenFOAM.org                      |
|    \\/     M anipulation  |                                                 |
\*---------------------------------------------------------------------------*/
FoamFile
{
    version     2.0;
    format      ascii;
    class       surfaceScalarField;
    location    "0.08";
    object      phib;
}
// * * * * * * * * * * * * * * * * * * * * * * * * * * * * * * * * * * * * * //

dimensions      [0 3 -1 0 0 0 0];

internalField   nonuniform List<scalar> 
490
(
0.0247112
0.349038
-0.0628087
-0.0013718
0.346217
-0.0146523
0.00514523
0.33031
-0.0824896
0.05494
0.288924
-0.0525418
0.0731182
0.315063
-0.0728403
0.122301
0.294617
-0.0429444
0.149416
0.32318
0.00746697
0.0790533
0.372401
0.0214483
0.0779687
0.324192
0.0487145
0.392707
0.0178265
-0.0151783
0.372023
-0.0077913
0.0234392
0.358143
-0.0505436
0.00279548
0.362931
-0.011977
0.0272992
0.337269
-0.0728484
0.0798878
0.316659
-0.0541847
0.116215
0.327099
-0.068809
0.177916
0.305594
-0.0441152
0.227699
0.328348
-0.00573048
0.197509
0.353365
0.001017
0.326042
0.0350131
-0.000632827
0.415641
-0.0429702
-0.0184883
0.377809
-0.00181051
0.00881873
0.376781
-0.0411574
0.0283164
0.341166
-0.0233949
0.0711258
0.336536
-0.0626865
0.139616
0.31164
-0.0530319
0.183107
0.322554
-0.0604509
0.250691
0.301542
-0.0407765
0.307237
0.321948
-0.0251289
0.331508
-0.000785846
-0.139959
0.0870644
-0.0553182
-0.0615675
-0.0285764
0.00828342
0.0468837
-0.0652225
0.105304
-0.034356
0.159551
-0.0584071
0.232218
-0.0428066
0.267892
-0.0457402
0.325181
-0.025807
-0.0236188
-0.0455486
0.358572
-0.0478286
-0.0561983
0.356204
-0.103044
-0.0421268
0.275146
-0.0997409
-0.0312833
0.29075
-0.126654
0.0288753
0.255137
-0.123252
0.100046
0.295772
-0.0989879
0.0596346
0.342495
-0.0464839
-0.0132334
0.263992
0.180635
-0.0448041
0.376747
0.0264968
0.299383
0.0471461
-0.0109077
0.422923
-0.0612196
-0.0739401
0.392138
-0.0234453
-0.0542302
0.351815
-0.108356
-0.00456377
0.283408
-0.115173
0.0258795
0.300227
-0.129718
0.119943
0.258652
-0.125752
0.217987
0.299805
-0.0994697
0.2273
0.30436
-0.055412
0.189804
0.272056
0.143205
0.343889
0.0139295
-0.114637
0.444378
0.0502275
-0.0528781
0.376071
-0.047502
-0.0797323
0.370777
-0.0332652
-0.0204215
0.316662
-0.11596
0.0426084
0.287634
-0.113123
0.0923031
0.270439
-0.114514
0.199444
0.247231
-0.115018
0.28504
0.268828
-0.0908405
0.364828
0.249373
-0.0822346
0.25464
0.126722
0.0691795
0.0600015
-0.0675323
0.056261
0.0306889
-0.0549559
0.0321358
-0.0597726
0.119449
-0.101068
0.186046
-0.102466
0.240699
-0.0948124
0.334962
-0.0967567
0.387252
-0.0730279
-0.073012
-0.00294021
0.362826
-0.147236
0.0104526
0.295537
-0.128758
0.00574278
0.28969
-0.169822
0.0891611
0.235432
-0.201068
0.157409
0.262804
-0.218645
0.238448
0.255905
-0.221139
0.0226143
0.227122
0.497942
-0.0352196
0.527884
0.155198
-0.224751
0.428289
0.185738
0.425221
0.0096958
-0.0413719
0.391551
-0.0485578
0.0044907
0.349819
-0.12359
0.0418485
0.292105
-0.14813
0.0554573
0.281389
-0.17474
0.15316
0.240836
-0.205453
0.241864
0.262126
-0.220678
0.357817
0.243367
-0.231668
0.185611
0.215138
0.42954
0.177712
0.467949
0.111444
0.407313
0.193348
0.0528663
0.397201
-0.00827383
-0.019014
0.388277
-0.0140799
0.0432954
0.319888
-0.123357
0.0940308
0.277789
-0.163095
0.114737
0.275068
-0.168062
0.230073
0.231277
-0.199
0.330468
0.237124
-0.209171
0.481815
0.201681
-0.228731
0.288477
0.180982
0.398071
0.401451
0.0794591
-0.0299019
0.0705603
0.0675802
-0.0288135
0.0664574
-0.0826673
0.0777266
-0.119181
0.140153
-0.153826
0.163761
-0.155078
0.288206
-0.187242
0.37407
-0.190391
0.564294
-0.234254
0.420163
-0.0304454
0.303408
-0.133017
-0.0958293
0.31008
-0.158276
-0.0767678
0.245912
-0.211579
-0.0930468
0.256163
-0.250561
-0.0546417
0.230636
-0.342129
-0.0492914
0.200202
0.484886
0.0354242
0.967692
0.321829
-0.483006
0.841381
0.370399
-0.434653
0.576543
0.06014
0.532374
0.125149
-0.012476
0.366914
-0.0995728
-0.0450262
0.329801
-0.110761
-0.0999957
0.30893
-0.156178
-0.0681585
0.260805
-0.211219
-0.0697301
0.275798
-0.249044
-0.00149879
0.258541
-0.347248
0.0850371
0.237676
0.411813
0.186448
0.918822
0.250687
-0.297401
0.800753
0.371083
0.576577
0.0638063
-0.0683916
0.399869
0.0271782
-0.0348243
0.365282
-0.0831281
-0.0295873
0.320002
-0.139666
-0.087906
0.30927
-0.153241
-0.0354927
0.258609
-0.203287
-0.00809134
0.274365
-0.242225
0.105357
0.251007
-0.33595
0.210841
0.225643
0.358965
0.328472
0.861656
0.219537
0.770626
0.354109
0.0397008
0.00253262
-0.0168813
-0.00715237
-0.0558266
-0.0914953
-0.0348096
-0.136515
-0.0755192
-0.144932
0.00460066
-0.195722
0.0561716
-0.23614
0.212572
-0.332856
0.237112
0.424565
0.21209
-0.230611
0.378673
-0.421051
0.310621
-0.704514
0.323829
-1.02098
0.336816
-0.612501
0.377857
-0.399493
1.24128
-0.370307
0.989161
-0.118535
0.834515
-0.346158
0.790236
0.574289
-0.123785
0.4029
-0.308197
0.384273
-0.474325
0.333779
-0.715182
0.366454
-0.97963
0.393261
-0.523185
0.437589
-0.329441
1.20723
-0.252445
1.00821
0.0204644
0.88841
0.812325
-0.0151798
0.445273
-0.132929
0.418894
-0.340616
0.401801
-0.466375
0.338972
-0.649118
0.372717
-0.849644
0.39589
-0.411855
0.433489
-0.200714
1.15603
-0.184544
1.09178
0.859207
-0.0285279
-0.0872551
-0.178911
-0.351548
-0.431742
-0.574345
-0.734519
-0.319225
-0.0534429
)
;

boundaryField
{
    inlet
    {
        type            fixedValue;
        value           nonuniform List<scalar> 
20
(
-1.5e-05
-1.5e-05
-1.5e-05
-1.5e-05
-1.5e-05
-1.5e-05
-1.5e-05
-1.5e-05
-1.5e-05
-1.5e-05
-1.5e-05
-1.5e-05
-1.5e-05
-1.5e-05
-1.5e-05
-1.5e-05
-1.5e-05
-1.5e-05
-1.5e-05
-1.5e-05
)
;
    }
    outlet
    {
        type            calculated;
        value           nonuniform 0();
    }
    bottom
    {
        type            fixedValue;
        value           uniform 0;
    }
    top
    {
        type            symmetryPlane;
        value           nonuniform List<scalar> 
40
(
-3.17253e-14
-2.6544e-14
-2.14006e-14
-1.95738e-14
-2.59101e-14
-2.44385e-14
-2.29101e-14
-2.06074e-14
-1.89746e-14
-2.03016e-14
-2.17372e-14
-2.27767e-14
-1.44172e-14
-1.6823e-14
-1.87427e-14
-2.10643e-14
-1.15057e-14
-1.30415e-14
-1.66596e-14
-1.92731e-14
-1.26417e-14
-1.07227e-14
-1.29571e-14
-1.77802e-14
-7.00199e-15
-7.82511e-15
-1.08327e-14
-1.38593e-14
-5.36995e-15
-5.53885e-15
-7.64505e-15
-1.17037e-14
-7.42282e-15
-5.46665e-15
-5.5244e-15
-9.27663e-15
-9.02437e-15
-7.83866e-15
-5.87043e-15
-6.8144e-15
)
;
    }
    side1
    {
        type            symmetryPlane;
        value           nonuniform 0();
    }
    side2
    {
        type            symmetryPlane;
        value           nonuniform 0();
    }
    procBoundary8to0
    {
        type            processor;
        value           nonuniform List<scalar> 
50
(
-0.310926
-0.305482
-0.254338
-0.286177
-0.260401
-0.300855
-0.357762
-0.323487
-0.371822
-0.336879
-0.327989
-0.257163
-0.271966
-0.227481
-0.264883
-0.3109
-0.248132
-0.35031
-0.322959
-0.376949
-0.260464
-0.283216
-0.214899
-0.244436
-0.235659
-0.214792
-0.555714
-0.444613
-0.397999
-0.37173
-0.287167
-0.215179
-0.223217
-0.19039
-0.145557
-0.911577
-0.876294
-0.538151
-0.499297
-0.508587
-0.281064
-0.278456
-0.251945
-0.270913
-1.12846
-0.969405
-0.696519
-0.715887
-0.502474
-0.516134
)
;
    }
    procBoundary8to9
    {
        type            processor;
        value           nonuniform List<scalar> 
20
(
0.00431407
0.229161
0.302557
0.374752
0.00344193
0.166382
0.32657
0.466897
-0.240791
0.0162025
0.341601
0.333903
-0.573894
-0.212063
-0.140227
0.394463
-0.279164
-0.153766
0.122684
-0.0433473
)
;
    }
    procBoundary8to16
    {
        type            processor;
        value           nonuniform List<scalar> 
50
(
0.46855
0.354736
0.341756
0.330928
0.312472
0.315799
0.292695
0.311607
0.290465
0.305556
0.402276
0.394954
0.335795
0.309766
0.267033
0.247902
0.244583
0.225582
0.244303
0.224388
0.416559
0.37587
0.348722
0.325929
0.2654
0.26028
0.205109
0.209452
0.151983
0.138667
0.428211
0.400202
0.367775
0.305587
0.290425
0.234889
0.248334
0.211707
0.178297
0.821348
0.476349
0.470468
0.401961
0.375095
0.307979
0.34277
0.357523
0.40788
1.25056
1.0612
)
;
    }
}


// ************************************************************************* //
