/*--------------------------------*- C++ -*----------------------------------*\
| =========                 |                                                 |
| \\      /  F ield         | OpenFOAM: The Open Source CFD Toolbox           |
|  \\    /   O peration     | Version:  2.4.0                                 |
|   \\  /    A nd           | Web:      www.OpenFOAM.org                      |
|    \\/     M anipulation  |                                                 |
\*---------------------------------------------------------------------------*/
FoamFile
{
    version     2.0;
    format      ascii;
    class       volScalarField;
    location    "0.04";
    object      alpha;
}
// * * * * * * * * * * * * * * * * * * * * * * * * * * * * * * * * * * * * * //

dimensions      [0 0 0 0 0 0 0];

internalField   nonuniform List<scalar> 
200
(
8.14991e-14
3.86232e-12
1.01732e-10
3.87164e-12
3.02307e-13
1.05727e-14
2.38266e-16
3.72503e-16
1.5888e-14
3.76771e-13
2.31056e-11
1.21693e-09
3.60643e-08
1.21869e-09
6.94508e-11
2.0836e-12
4.23295e-14
9.56275e-14
4.505e-12
1.18715e-10
4.86648e-09
2.88333e-07
9.7644e-06
2.88519e-07
1.03577e-08
2.46851e-10
4.41951e-12
1.80699e-11
9.48976e-10
2.81291e-08
5.76567e-07
3.90393e-05
0.00154223
3.90393e-05
5.76613e-07
6.49013e-09
8.56581e-11
1.89806e-09
1.12449e-07
3.80883e-06
3.87318e-16
1.73603e-14
4.71939e-13
4.52742e-12
1.18871e-10
4.51156e-12
9.64227e-14
8.26036e-14
3.84649e-12
1.01356e-10
9.79475e-14
4.75775e-12
1.36692e-10
9.51725e-10
2.8083e-08
9.47225e-10
1.8301e-11
2.32636e-11
1.21243e-09
3.59458e-08
1.82672e-11
9.72944e-10
3.00232e-08
1.13213e-07
3.80337e-06
1.12265e-07
1.95539e-09
4.87247e-09
2.87386e-07
9.73631e-06
1.89754e-09
1.12449e-07
3.80885e-06
1.13396e-07
2.99809e-08
1.03259e-09
6.48237e-09
5.74673e-07
3.89271e-05
0.00153843
3.76957e-15
3.24814e-13
2.30925e-11
1.21627e-09
3.60469e-08
1.21627e-09
2.30918e-11
3.25147e-13
1.9621e-14
3.76083e-13
6.47211e-13
6.13628e-11
4.84873e-09
2.87386e-07
9.73631e-06
2.87386e-07
4.84851e-09
6.14483e-11
5.14275e-12
1.18505e-10
6.13889e-11
6.46592e-09
5.7472e-07
3.89271e-05
0.00153843
3.89271e-05
5.74673e-07
6.48211e-09
1.00857e-09
2.80834e-08
4.29512e-12
2.52849e-10
1.05045e-08
2.87578e-07
9.73632e-06
2.87386e-07
4.87248e-09
1.95538e-09
1.12265e-07
3.80335e-06
2.04005e-17
1.54198e-15
9.66698e-14
4.51161e-12
1.1887e-10
4.51154e-12
9.51676e-14
1.47322e-15
5.45708e-17
7.75393e-16
3.53444e-15
2.78732e-13
1.85935e-11
9.47246e-10
2.80829e-08
9.4722e-10
1.79774e-11
2.52974e-13
1.21935e-14
2.1978e-13
4.28715e-13
3.23113e-11
2.11392e-09
1.12272e-07
3.80335e-06
1.12264e-07
1.89403e-09
2.40045e-11
2.00892e-12
4.62902e-11
4.10328e-11
2.1619e-09
6.40992e-08
3.10887e-09
2.81239e-08
9.47797e-10
1.80335e-11
3.76425e-12
1.85016e-10
5.48514e-09
2.36443e-16
1.01892e-14
2.41721e-13
1.94969e-14
2.21045e-13
9.31535e-15
2.1613e-16
3.64941e-18
1.09335e-19
1.17406e-18
8.12714e-14
3.85278e-12
1.01529e-10
5.6108e-12
4.64264e-11
1.75984e-12
3.71043e-14
5.74195e-16
2.12713e-17
3.02304e-16
2.31065e-11
1.21699e-09
3.60682e-08
1.40219e-09
5.51428e-09
1.85566e-10
3.52001e-12
4.95392e-14
2.98861e-15
5.72875e-14
4.86656e-09
2.88338e-07
9.76451e-06
2.8834e-07
4.91294e-09
6.33666e-11
6.87111e-13
1.14354e-14
2.28976e-13
6.03295e-12
)
;

boundaryField
{
    inlet
    {
        type            zeroGradient;
    }
    outlet
    {
        type            zeroGradient;
    }
    bottom
    {
        type            fixedValue;
        value           uniform 0;
    }
    top
    {
        type            symmetryPlane;
    }
    side1
    {
        type            symmetryPlane;
    }
    side2
    {
        type            symmetryPlane;
    }
    procBoundary1to0
    {
        type            processor;
        value           nonuniform List<scalar> 
20
(
1.26129e-15
3.24992e-13
6.16061e-11
6.48809e-09
6.42729e-18
1.49938e-15
2.55671e-13
2.40165e-11
3.81821e-17
6.00778e-15
5.18175e-13
5.74883e-14
2.36715e-19
3.98478e-17
5.06703e-15
5.76897e-13
3.99105e-18
1.25732e-15
3.24986e-13
6.1603e-11
)
;
    }
    procBoundary1to2
    {
        type            processor;
        value           nonuniform List<scalar> 
20
(
1.58879e-14
4.50498e-12
9.48974e-10
1.12449e-07
3.84648e-12
1.21243e-09
2.87386e-07
3.89271e-05
2.1894e-14
5.01332e-12
9.47227e-10
1.12264e-07
6.57955e-17
1.16072e-14
1.7562e-12
1.85012e-10
1.39373e-19
1.98105e-17
2.41505e-15
2.28967e-13
)
;
    }
    procBoundary1to9
    {
        type            processor;
        value           nonuniform List<scalar> 
50
(
4.86647e-09
2.88334e-07
9.76439e-06
2.88338e-07
4.96821e-09
6.54709e-11
9.84743e-13
1.80218e-11
9.48976e-10
2.8129e-08
1.80561e-11
9.50966e-10
2.81816e-08
9.55476e-10
1.36934e-10
5.41259e-12
6.14529e-11
4.84853e-09
2.87387e-07
9.73632e-06
2.15345e-11
1.13454e-09
3.36434e-08
2.34666e-09
3.59675e-08
1.21275e-09
2.35073e-11
1.8311e-11
9.47223e-10
2.80827e-08
6.74605e-09
3.99835e-07
1.35451e-05
3.9984e-07
6.86455e-09
8.98662e-11
9.96679e-13
4.69001e-14
1.75624e-12
4.62873e-11
5.76585e-07
3.90403e-05
0.00154226
3.90403e-05
5.76585e-07
6.48837e-09
6.16071e-11
5.20028e-13
6.43772e-15
5.73388e-14
)
;
    }
}


// ************************************************************************* //
