/*--------------------------------*- C++ -*----------------------------------*\
| =========                 |                                                 |
| \\      /  F ield         | OpenFOAM: The Open Source CFD Toolbox           |
|  \\    /   O peration     | Version:  2.4.0                                 |
|   \\  /    A nd           | Web:      www.OpenFOAM.org                      |
|    \\/     M anipulation  |                                                 |
\*---------------------------------------------------------------------------*/
FoamFile
{
    version     2.0;
    format      ascii;
    class       surfaceScalarField;
    location    "0.04";
    object      phia;
}
// * * * * * * * * * * * * * * * * * * * * * * * * * * * * * * * * * * * * * //

dimensions      [0 3 -1 0 0 0 0];

internalField   nonuniform List<scalar> 
490
(
-6.4313e-06
-4.29284e-05
5.05388e-06
-6.42246e-06
-4.29577e-05
5.05406e-06
-6.42246e-06
-4.29802e-05
5.05406e-06
-6.42121e-06
-4.30028e-05
5.05406e-06
-3.81986e-06
-4.29743e-05
5.05398e-06
7.49613e-06
-3.0937e-05
4.85082e-06
1.17179e-05
3.54321e-08
3.60891e-06
7.21805e-06
1.27376e-05
7.63001e-08
7.21206e-06
1.27691e-05
-1.44166e-08
1.27752e-05
-1.44343e-08
-6.43724e-06
-3.18082e-05
5.05375e-06
-6.42246e-06
-4.3174e-05
5.05406e-06
-6.42246e-06
-4.3171e-05
5.05406e-06
-6.41953e-06
-4.3142e-05
5.05406e-06
-8.90607e-07
-2.69929e-05
5.05389e-06
1.2076e-05
-1.58869e-05
4.71307e-06
1.33798e-05
-3.18794e-06
3.99983e-06
7.22768e-06
4.28875e-06
7.25562e-08
7.21216e-06
1.26793e-05
-1.4421e-08
1.28224e-05
-1.44357e-08
-4.5992e-05
-1.61919e-05
4.22747e-06
-6.42124e-06
-2.68132e-05
5.05353e-06
-6.38204e-06
-2.51454e-05
5.05354e-06
5.3948e-06
-2.41458e-05
5.0524e-06
1.9448e-05
-7.65344e-06
4.41665e-06
2.17464e-05
-4.49795e-06
4.16779e-06
2.16267e-05
-4.49671e-06
3.5324e-06
1.44798e-05
-4.35302e-06
3.46886e-06
7.33272e-06
4.03762e-06
4.80255e-08
1.15018e-05
-1.44071e-08
-2.03184e-05
3.80653e-06
1.85968e-05
4.29203e-06
2.05343e-05
4.34406e-06
2.1494e-05
4.30558e-06
2.17471e-05
3.82769e-06
2.17473e-05
3.53091e-06
2.17473e-05
3.53076e-06
2.17319e-05
3.53076e-06
1.55723e-05
3.52282e-06
5.54679e-07
-6.42246e-06
-4.29577e-05
5.05406e-06
-6.42246e-06
-4.29803e-05
5.05406e-06
-6.42246e-06
-4.30028e-05
5.05406e-06
-6.42246e-06
-4.30254e-05
5.05406e-06
-6.42241e-06
-4.30028e-05
5.05406e-06
-6.30936e-06
-4.298e-05
5.05405e-06
2.779e-07
-4.22794e-05
5.03101e-06
6.98217e-06
1.08941e-05
1.37754e-06
7.21198e-06
1.2762e-05
1.23962e-06
1.27683e-05
1.23984e-06
-6.42246e-06
-4.31836e-05
5.05405e-06
-6.42246e-06
-4.31843e-05
5.05406e-06
-6.42246e-06
-4.31843e-05
5.05406e-06
-6.42246e-06
-4.31843e-05
5.05406e-06
-6.42234e-06
-4.31831e-05
5.05406e-06
-6.14448e-06
-4.00178e-05
5.05405e-06
4.76509e-07
-2.34332e-05
5.01905e-06
7.016e-06
3.41658e-06
1.3679e-06
7.21208e-06
1.26613e-05
1.23997e-06
1.28221e-05
1.24021e-06
-6.42471e-06
-4.22033e-05
4.79e-06
-6.42246e-06
-4.28468e-05
4.96359e-06
-6.42246e-06
-4.318e-05
5.05399e-06
-6.42157e-06
-4.31714e-05
5.05406e-06
-4.11605e-06
-3.13805e-05
5.05398e-06
9.93723e-06
-2.06781e-05
4.86152e-06
2.15719e-05
-4.53878e-06
3.53653e-06
1.44704e-05
-4.34846e-06
3.47815e-06
7.34743e-06
4.02207e-06
1.27112e-06
1.13592e-05
1.22868e-06
-6.09963e-06
-2.10488e-06
-6.33485e-06
-1.91701e-06
-6.41004e-06
1.89206e-06
2.18077e-06
5.04855e-06
1.62533e-05
4.25405e-06
2.17443e-05
3.5313e-06
2.17472e-05
3.53076e-06
2.173e-05
3.53042e-06
1.56829e-05
2.92638e-06
9.30619e-07
-6.42246e-06
-4.29352e-05
5.0543e-06
-6.42246e-06
-4.29577e-05
5.05406e-06
-6.42246e-06
-4.29803e-05
5.05406e-06
-6.42246e-06
-4.30028e-05
5.05406e-06
-6.42242e-06
-4.29803e-05
5.05406e-06
-6.31754e-06
-4.29576e-05
5.05173e-06
6.95823e-06
-4.24907e-05
5.01547e-06
2.06534e-05
4.54884e-06
3.79289e-06
2.1177e-05
6.35054e-06
3.74525e-06
6.3538e-06
3.74637e-06
-6.42245e-06
-4.23759e-05
5.05505e-06
-6.42246e-06
-4.29086e-05
5.05405e-06
-6.42246e-06
-4.3184e-05
5.05406e-06
-6.42246e-06
-4.31843e-05
5.05406e-06
-6.42238e-06
-4.31835e-05
5.05406e-06
-6.23858e-06
-4.14605e-05
5.052e-06
7.08402e-06
-2.36691e-05
5.01247e-06
2.07004e-05
2.682e-07
3.79037e-06
2.11773e-05
6.30874e-06
3.74667e-06
6.35229e-06
3.74782e-06
-6.15204e-06
-2.14733e-05
7.93122e-06
-6.35405e-06
-2.20058e-05
4.78892e-06
-6.4224e-06
-3.355e-05
5.05381e-06
-6.42191e-06
-4.31619e-05
5.05406e-06
-5.16686e-06
-3.46921e-05
5.05401e-06
8.84107e-06
-2.21267e-05
4.93917e-06
2.16344e-05
-4.60155e-06
4.11364e-06
2.13515e-05
-4.30586e-06
4.21501e-06
2.09694e-05
2.65532e-06
3.70769e-06
4.63336e-06
3.67435e-06
4.00504e-06
2.33487e-06
1.15032e-06
-8.49185e-06
-4.0235e-06
-2.4198e-06
-2.31748e-07
5.03738e-06
1.38365e-05
4.45222e-06
2.174e-05
3.51796e-06
2.1745e-05
3.47723e-06
1.78212e-05
2.26703e-06
1.03615e-05
1.71347e-06
1.26383e-06
-6.42025e-06
-4.29037e-05
5.04826e-06
-6.42246e-06
-4.29352e-05
5.0478e-06
-6.42246e-06
-4.29577e-05
5.04833e-06
-6.42211e-06
-4.29802e-05
5.04882e-06
-4.89306e-06
-4.29571e-05
5.02109e-06
1.58434e-05
-3.99158e-05
5.00991e-06
3.50979e-05
-1.45982e-07
4.98376e-06
3.51443e-05
-5.3699e-08
4.98672e-06
3.51428e-05
-5.37176e-08
4.98971e-06
-5.37479e-08
4.9925e-06
-6.41434e-06
-2.42132e-05
5.05133e-06
-6.42245e-06
-4.2619e-05
5.04832e-06
-6.42246e-06
-4.31837e-05
5.04886e-06
-6.42219e-06
-4.31843e-05
5.04935e-06
-5.02364e-06
-4.3183e-05
5.02345e-06
1.57172e-05
-3.91217e-05
5.01224e-06
3.51023e-05
-5.32411e-07
4.98686e-06
3.51445e-05
-3.76391e-08
4.98985e-06
3.51433e-05
-2.91531e-08
4.99285e-06
-5.09093e-09
4.99569e-06
1.74467e-05
-2.36907e-06
8.84183e-06
-6.25996e-06
-2.16933e-05
4.60798e-06
-6.42232e-06
-2.99735e-05
5.04783e-06
-6.42165e-06
-4.31428e-05
5.04881e-06
-4.1758e-06
-3.65264e-05
5.00827e-06
1.52062e-05
-2.12148e-05
4.94595e-06
3.35368e-05
-2.57803e-06
4.80991e-06
3.46658e-05
1.06924e-06
4.93391e-06
3.44085e-05
1.25256e-06
4.92131e-06
1.46035e-06
4.87795e-06
2.86302e-05
8.76538e-06
2.48551e-06
-7.02824e-06
-3.08226e-06
-3.91049e-06
-1.58195e-06
4.82281e-06
1.23877e-05
2.61398e-06
2.1302e-05
2.12551e-06
1.32389e-05
2.1213e-06
5.6428e-06
9.58846e-07
6.26899e-06
1.06793e-06
1.22992e-06
-6.41502e-06
-4.28345e-05
-6.41793e-06
-4.29106e-05
-6.40053e-06
-4.29289e-05
8.44204e-06
-4.29243e-05
2.92057e-05
-1.2736e-05
3.51436e-05
-5.72192e-08
3.51451e-05
-5.37219e-08
3.51446e-05
-5.3749e-08
3.51434e-05
-5.37762e-08
-5.38011e-08
-6.40472e-06
-1.709e-05
-6.41895e-06
-4.20178e-05
-6.40597e-06
-4.31768e-05
8.02198e-06
-4.31506e-05
2.87905e-05
-1.27676e-05
3.51439e-05
-4.89292e-08
3.51453e-05
-4.32586e-08
3.51449e-05
-3.97143e-08
3.51438e-05
-3.26761e-08
-1.19157e-08
-4.61088e-06
1.12627e-05
-6.29334e-06
-1.91379e-05
-6.40032e-06
-2.70724e-05
8.38163e-06
-4.11261e-05
2.90029e-05
-5.48136e-06
3.48419e-05
8.0462e-07
3.47982e-05
9.05455e-07
3.47136e-05
1.02868e-06
3.4491e-05
1.18891e-06
1.41353e-06
-1.30398e-05
-2.91584e-06
-3.4485e-06
-8.7018e-07
3.91764e-06
4.25206e-06
4.67932e-06
5.25114e-06
6.02744e-06
)
;

boundaryField
{
    inlet
    {
        type            calculated;
        value           nonuniform 0();
    }
    outlet
    {
        type            calculated;
        value           nonuniform 0();
    }
    bottom
    {
        type            calculated;
        value           uniform 0;
    }
    top
    {
        type            symmetryPlane;
        value           uniform 0;
    }
    side1
    {
        type            symmetryPlane;
        value           uniform 0;
    }
    side2
    {
        type            symmetryPlane;
        value           nonuniform 0();
    }
    procBoundary1to0
    {
        type            processor;
        value           nonuniform List<scalar> 
20
(
3.94702e-05
4.87766e-05
0.000104823
9.10481e-05
6.42415e-06
6.42528e-06
2.29816e-05
2.5456e-05
6.42328e-06
6.42343e-06
2.88744e-06
-2.20062e-05
-1.68752e-06
-1.06294e-05
-4.43302e-05
-5.27813e-05
-6.55797e-06
-1.05032e-05
-1.03444e-05
8.89953e-06
)
;
    }
    procBoundary1to2
    {
        type            processor;
        value           nonuniform List<scalar> 
20
(
6.6915e-06
6.60451e-06
6.69129e-06
8.23651e-06
6.75645e-06
6.69117e-06
6.75634e-06
8.59643e-06
1.99868e-05
1.98357e-05
1.47259e-05
7.299e-06
3.29184e-05
3.25931e-05
2.13617e-05
7.21659e-06
3.26029e-05
3.2173e-05
2.13606e-05
7.11638e-06
)
;
    }
    procBoundary1to9
    {
        type            processor;
        value           nonuniform List<scalar> 
50
(
-6.69756e-06
-5.97182e-06
-6.02829e-06
-4.71057e-06
-4.21284e-06
-4.17205e-06
-4.11798e-06
-4.17204e-06
-4.18776e-06
8.32613e-06
-2.1304e-05
-2.19387e-05
-3.18879e-05
-4.31029e-05
-1.52256e-05
-4.21821e-06
-4.17203e-06
-4.21257e-06
-4.21613e-06
7.8217e-06
-1.37382e-06
-1.35894e-06
-1.26281e-05
-2.2575e-05
-1.47821e-05
-4.25529e-06
-4.21261e-06
-4.23804e-06
3.23466e-07
2.62346e-06
5.05939e-07
-1.33178e-06
-9.05085e-06
-2.23892e-05
-1.61344e-05
-4.18132e-06
-3.78418e-06
2.16376e-06
2.38825e-06
2.59259e-06
1.48838e-05
2.87673e-06
-5.23681e-06
-1.98405e-05
1.25478e-06
1.57661e-06
1.75225e-06
1.96715e-06
2.23894e-06
2.59516e-06
)
;
    }
}


// ************************************************************************* //
