/*--------------------------------*- C++ -*----------------------------------*\
| =========                 |                                                 |
| \\      /  F ield         | OpenFOAM: The Open Source CFD Toolbox           |
|  \\    /   O peration     | Version:  2.4.0                                 |
|   \\  /    A nd           | Web:      www.OpenFOAM.org                      |
|    \\/     M anipulation  |                                                 |
\*---------------------------------------------------------------------------*/
FoamFile
{
    version     2.0;
    format      ascii;
    class       volVectorField;
    location    "0.07";
    object      A_Source;
}
// * * * * * * * * * * * * * * * * * * * * * * * * * * * * * * * * * * * * * //

dimensions      [1 -2 -2 0 0 0 0];

internalField   nonuniform List<vector> 
200
(
(2.02943e-78 -1.02146e-77 2.20855e-78)
(9.23707e-81 -4.63948e-80 1.00523e-80)
(4.1948e-83 -2.1025e-82 4.56504e-83)
(1.90093e-85 -9.50776e-85 2.06871e-85)
(8.59706e-88 -4.29093e-87 9.35585e-88)
(3.88073e-90 -1.93288e-89 4.22325e-90)
(1.74865e-92 -8.69125e-92 1.90299e-92)
(7.86611e-95 -3.90146e-94 8.56039e-95)
(3.53283e-97 -1.74855e-96 3.84464e-97)
(1.58423e-99 -7.82462e-99 1.72406e-99)
(9.57674e-80 -5.05341e-79 1.0422e-79)
(4.45124e-82 -2.34635e-81 4.84411e-82)
(2.06332e-84 -1.08648e-83 2.24543e-84)
(9.53981e-87 -5.0181e-86 1.03818e-86)
(4.40011e-89 -2.3121e-88 4.78847e-89)
(2.02485e-91 -1.06287e-90 2.20357e-91)
(9.29786e-94 -4.87546e-93 1.01185e-93)
(4.26068e-96 -2.2318e-95 4.63674e-96)
(1.94862e-98 -1.01964e-97 2.12061e-98)
(8.89527e-101 -4.64969e-100 9.68038e-101)
(2.34568e-81 -1.25741e-80 2.55272e-81)
(1.11324e-83 -5.96336e-83 1.21149e-83)
(5.26671e-86 -2.81929e-85 5.73156e-86)
(2.48428e-88 -1.32891e-87 2.70355e-88)
(1.16853e-90 -6.24643e-90 1.27167e-90)
(5.48174e-93 -2.92824e-92 5.96557e-93)
(2.56505e-95 -1.36924e-94 2.79145e-95)
(1.19737e-97 -6.38716e-97 1.30305e-97)
(5.5765e-100 -2.97261e-99 6.06869e-100)
(2.59141e-102 -1.38041e-101 2.82014e-102)
(3.92778e-83 -2.12215e-82 4.27445e-83)
(1.90269e-85 -1.02747e-84 2.07063e-85)
(9.18428e-88 -4.95699e-87 9.99491e-88)
(4.41832e-90 -2.38343e-89 4.80829e-90)
(2.11875e-92 -1.14234e-91 2.30576e-92)
(1.01294e-94 -5.45849e-94 1.10234e-94)
(4.82873e-97 -2.60072e-96 5.25492e-97)
(2.29555e-99 -1.23572e-98 2.49816e-99)
(1.08843e-101 -5.85604e-101 1.18449e-101)
(5.14773e-104 -2.76817e-103 5.60208e-104)
(3.79787e-80 -1.90755e-79 4.13308e-80)
(1.7658e-82 -8.85046e-82 1.92165e-82)
(8.18774e-85 -4.09523e-84 8.91041e-85)
(3.78683e-87 -1.89007e-86 4.12107e-87)
(1.74719e-89 -8.70223e-89 1.9014e-89)
(8.04283e-92 -3.99751e-91 8.75271e-92)
(3.69435e-94 -1.83235e-93 4.02042e-94)
(1.69346e-96 -8.38172e-96 1.84293e-96)
(7.74752e-99 -3.82657e-98 8.43133e-99)
(3.53782e-101 -1.7437e-100 3.85008e-101)
(1.83012e-81 -9.647e-81 1.99165e-81)
(8.68535e-84 -4.57344e-83 9.45193e-84)
(4.10892e-86 -2.16137e-85 4.47158e-86)
(1.93811e-88 -1.01841e-87 2.10917e-88)
(9.11601e-91 -4.78514e-90 9.92061e-91)
(4.27635e-93 -2.24237e-92 4.65378e-93)
(2.00097e-95 -1.04814e-94 2.17758e-95)
(9.34028e-98 -4.88745e-97 1.01647e-97)
(4.34994e-100 -2.27379e-99 4.73387e-100)
(2.02138e-102 -1.0555e-101 2.19979e-102)
(4.57698e-83 -2.45179e-82 4.98095e-83)
(2.21692e-85 -1.18673e-84 2.41259e-85)
(1.06998e-87 -5.72365e-87 1.16442e-87)
(5.14682e-90 -2.75126e-89 5.60109e-90)
(2.46782e-92 -1.31826e-91 2.68563e-92)
(1.17969e-94 -6.29728e-94 1.28381e-94)
(5.62299e-97 -2.9995e-96 6.11928e-97)
(2.67283e-99 -1.42479e-98 2.90874e-99)
(1.26718e-101 -6.7501e-101 1.37902e-101)
(5.99245e-104 -3.18988e-103 6.52136e-104)
(7.82257e-85 -4.22425e-84 8.513e-85)
(3.86583e-87 -2.08649e-86 4.20703e-87)
(1.90291e-89 -1.02651e-88 2.07086e-89)
(9.33174e-92 -5.0313e-91 1.01554e-91)
(4.55994e-94 -2.45725e-93 4.96241e-94)
(2.22066e-96 -1.19604e-95 2.41666e-96)
(1.07796e-98 -5.80279e-98 1.1731e-98)
(5.21658e-101 -2.80667e-100 5.677e-101)
(2.51704e-103 -1.35353e-102 2.7392e-103)
(1.21106e-105 -6.509e-105 1.31795e-105)
(3.65396e-82 -1.8314e-81 3.97646e-82)
(1.73487e-84 -8.6771e-84 1.88799e-84)
(8.21115e-87 -4.09828e-86 8.93588e-87)
(3.87482e-89 -1.92991e-88 4.21681e-89)
(1.82338e-91 -9.06259e-91 1.98431e-91)
(8.55742e-94 -4.24432e-93 9.31272e-94)
(4.00598e-96 -1.98273e-95 4.35956e-96)
(1.87081e-98 -9.23999e-98 2.03593e-98)
(8.71669e-101 -4.29619e-100 9.48604e-101)
(4.05244e-103 -1.99314e-102 4.41012e-103)
(1.79746e-83 -9.4648e-83 1.9561e-83)
(8.70717e-86 -4.5801e-85 9.47568e-86)
(4.20291e-88 -2.20848e-87 4.57387e-88)
(2.0219e-90 -1.06132e-89 2.20036e-90)
(9.69577e-93 -5.08409e-92 1.05515e-92)
(4.63537e-95 -2.42807e-94 5.0445e-95)
(2.2097e-97 -1.15625e-96 2.40473e-97)
(1.05048e-99 -5.49098e-99 1.14319e-99)
(4.9808e-102 -2.60081e-101 5.42042e-102)
(2.35568e-104 -1.22877e-103 2.5636e-104)
(4.58849e-85 -2.45623e-84 4.99348e-85)
(2.26763e-87 -1.21302e-86 2.46777e-87)
(1.11624e-89 -5.96688e-89 1.21476e-89)
(5.47407e-92 -2.92414e-91 5.95722e-92)
(2.67496e-94 -1.42791e-93 2.91105e-94)
(1.30272e-96 -6.94913e-96 1.4177e-96)
(6.32384e-99 -3.37099e-98 6.882e-99)
(3.06037e-101 -1.63022e-100 3.33048e-101)
(1.47669e-103 -7.86064e-103 1.60703e-103)
(7.10518e-106 -3.77955e-105 7.73229e-106)
(8.00215e-87 -4.31895e-86 8.70844e-87)
(4.03326e-89 -2.1757e-88 4.38924e-89)
(2.02405e-91 -1.09128e-90 2.20269e-91)
(1.01157e-93 -5.45111e-93 1.10085e-93)
(5.03582e-96 -2.71226e-95 5.48029e-96)
(2.4976e-98 -1.34448e-97 2.71804e-98)
(1.23433e-100 -6.64101e-100 1.34327e-100)
(6.0794e-103 -3.26917e-102 6.61598e-103)
(2.98457e-105 -1.60409e-104 3.24799e-105)
(1.46064e-107 -7.84628e-107 1.58956e-107)
(2.39762e-84 -1.19918e-83 2.60924e-84)
(1.16201e-86 -5.79965e-86 1.26457e-86)
(5.61172e-89 -2.79497e-88 6.10702e-89)
(2.70096e-91 -1.34242e-90 2.93935e-91)
(1.29585e-93 -6.42705e-93 1.41022e-93)
(6.19825e-96 -3.06773e-95 6.74532e-96)
(2.95618e-98 -1.46005e-97 3.2171e-98)
(1.40604e-100 -6.92986e-100 1.53014e-100)
(6.67002e-103 -3.28052e-102 7.25873e-103)
(3.15616e-105 -1.54904e-104 3.43473e-105)
(1.20352e-85 -6.33063e-85 1.30974e-85)
(5.94862e-88 -3.12576e-87 6.47366e-88)
(2.92862e-90 -1.53726e-89 3.1871e-90)
(1.43641e-92 -7.53196e-92 1.5632e-92)
(7.02019e-95 -3.67724e-94 7.63981e-95)
(3.41937e-97 -1.78922e-96 3.72117e-97)
(1.66012e-99 -8.67763e-99 1.80665e-99)
(8.03519e-102 -4.19567e-101 8.74439e-102)
(3.87771e-104 -2.02267e-103 4.21996e-104)
(1.86606e-106 -9.72342e-106 2.03076e-106)
(3.13478e-87 -1.67687e-86 3.41146e-87)
(1.58008e-89 -8.44635e-89 1.71954e-89)
(7.92992e-92 -4.23599e-91 8.62983e-92)
(3.96341e-94 -2.11568e-93 4.31323e-94)
(1.97318e-96 -1.05256e-95 2.14734e-96)
(9.7869e-99 -5.21698e-98 1.06507e-98)
(4.83701e-101 -2.57661e-100 5.26394e-101)
(2.38251e-103 -1.26824e-102 2.59279e-103)
(1.16972e-105 -6.22219e-105 1.27296e-105)
(5.72491e-108 -3.04318e-107 6.2302e-108)
(5.57634e-89 -3.0081e-88 6.06852e-89)
(2.8655e-91 -1.54495e-90 3.11842e-91)
(1.46558e-93 -7.89762e-93 1.59493e-93)
(7.46235e-96 -4.01915e-95 8.12098e-96)
(3.78348e-98 -2.03668e-97 4.11741e-98)
(1.91048e-100 -1.02789e-99 2.07911e-100)
(9.60975e-103 -5.16758e-102 1.04579e-102)
(4.81584e-105 -2.58833e-104 5.2409e-105)
(2.40488e-107 -1.29185e-106 2.61714e-107)
(1.19683e-109 -6.42575e-109 1.30246e-109)
(1.21041e-86 -6.04106e-86 1.30647e-86)
(5.98617e-89 -2.98139e-88 6.46019e-89)
(2.94883e-91 -1.46558e-90 3.18181e-91)
(1.44717e-93 -7.17742e-93 1.56125e-93)
(7.07692e-96 -3.50252e-95 7.63355e-96)
(3.44902e-98 -1.70342e-97 3.71969e-98)
(1.67551e-100 -8.25773e-100 1.8067e-100)
(8.11444e-103 -3.99082e-102 8.74837e-103)
(3.91827e-105 -1.92303e-104 4.22368e-105)
(1.88669e-107 -9.24022e-107 2.03342e-107)
(6.1978e-88 -3.25665e-87 6.68859e-88)
(3.12474e-90 -1.64018e-89 3.37163e-90)
(1.56858e-92 -8.22488e-92 1.69224e-92)
(7.84171e-95 -4.10751e-94 8.45852e-95)
(3.90493e-97 -2.04327e-96 4.2114e-97)
(1.9373e-99 -1.01263e-98 2.08899e-99)
(9.57708e-102 -5.00073e-101 1.03253e-101)
(4.7184e-104 -2.46116e-103 5.08621e-104)
(2.31711e-106 -1.20736e-105 2.49732e-106)
(1.13433e-108 -5.90436e-108 1.22235e-108)
(1.64665e-89 -8.8021e-89 1.77675e-89)
(8.46287e-92 -4.52064e-91 9.13003e-92)
(4.32904e-94 -2.31084e-93 4.66955e-94)
(2.20457e-96 -1.17597e-95 2.37758e-96)
(1.11791e-98 -5.95904e-98 1.20544e-98)
(5.64579e-101 -3.0074e-100 6.08688e-101)
(2.84027e-103 -1.5119e-102 3.06168e-103)
(1.4236e-105 -7.57264e-105 1.53432e-105)
(7.11012e-108 -3.77948e-107 7.66185e-108)
(3.53902e-110 -1.8799e-109 3.81302e-110)
(2.98689e-91 -1.61039e-90 3.22235e-91)
(1.56442e-93 -8.43019e-93 1.68747e-93)
(8.15252e-96 -4.39084e-95 8.79233e-96)
(4.22804e-98 -2.27598e-97 4.55912e-98)
(2.1827e-100 -1.17434e-99 2.35323e-100)
(1.12189e-102 -6.03283e-102 1.20934e-102)
(5.74231e-105 -3.08625e-104 6.18892e-105)
(2.92744e-107 -1.57255e-106 3.1546e-107)
(1.48671e-109 -7.98206e-109 1.60181e-109)
(7.52249e-112 -4.03666e-111 8.10356e-112)
)
;

boundaryField
{
    inlet
    {
        type            zeroGradient;
    }
    outlet
    {
        type            zeroGradient;
    }
    bottom
    {
        type            zeroGradient;
    }
    top
    {
        type            symmetryPlane;
    }
    side1
    {
        type            symmetryPlane;
    }
    side2
    {
        type            symmetryPlane;
    }
    procBoundary4to3
    {
        type            processor;
        value           nonuniform List<vector> 
20
(
(6.14769e-76 -3.10023e-75 6.69029e-76)
(2.84463e-77 -1.50249e-76 3.0957e-77)
(6.83268e-79 -3.66503e-78 7.43574e-79)
(1.12232e-80 -6.06674e-80 1.22138e-80)
(1.1278e-77 -5.67549e-77 1.22734e-77)
(5.33109e-79 -2.81285e-78 5.80163e-79)
(1.30797e-80 -7.01101e-80 1.42341e-80)
(2.1937e-82 -1.18519e-81 2.38732e-82)
(1.06397e-79 -5.34301e-79 1.15788e-79)
(5.13614e-81 -2.70713e-80 5.58947e-81)
(1.28674e-82 -6.89241e-82 1.40032e-82)
(2.2029e-84 -1.18953e-83 2.39734e-84)
(6.8482e-82 -3.43177e-81 7.45263e-82)
(3.3746e-83 -1.7768e-82 3.67245e-83)
(8.62934e-85 -4.61903e-84 9.39098e-85)
(1.50742e-86 -8.13556e-86 1.64047e-86)
(3.3922e-84 -1.6963e-83 3.66197e-84)
(1.70576e-85 -8.97163e-85 1.84111e-85)
(4.45071e-87 -2.38065e-86 4.80309e-87)
(7.9306e-89 -4.27788e-88 8.55709e-89)
)
;
    }
    procBoundary4to5
    {
        type            processor;
        value           nonuniform List<vector> 
20
(
(3.8819e-102 -1.91389e-101 4.22452e-102)
(2.2122e-103 -1.15532e-102 2.40745e-103)
(6.54121e-105 -3.48235e-104 7.11855e-105)
(1.31862e-106 -7.08768e-106 1.43501e-106)
(8.80057e-104 -4.32986e-103 9.57733e-104)
(5.10219e-105 -2.66183e-104 5.55252e-105)
(1.53485e-106 -8.16542e-106 1.67032e-106)
(3.14711e-108 -1.6907e-107 3.42488e-108)
(1.02326e-105 -5.02378e-105 1.11357e-105)
(6.03413e-107 -3.1447e-106 6.56671e-107)
(1.84641e-108 -9.81599e-108 2.00938e-108)
(3.85022e-110 -2.06734e-109 4.19004e-110)
(8.08777e-108 -3.96239e-107 8.80161e-108)
(4.84983e-109 -2.52483e-108 5.27788e-109)
(1.50914e-110 -8.01731e-110 1.64234e-110)
(3.19955e-112 -1.71706e-111 3.48195e-112)
(4.90578e-110 -2.39835e-109 5.28657e-110)
(2.99078e-111 -1.55535e-110 3.22241e-111)
(9.46223e-113 -5.02326e-112 1.01934e-112)
(2.03929e-114 -1.09382e-113 2.19651e-114)
)
;
    }
    procBoundary4to12
    {
        type            processor;
        value           nonuniform List<vector> 
50
(
(1.26969e-85 -6.89661e-85 1.38175e-85)
(6.14821e-88 -3.33807e-87 6.69086e-88)
(3.02548e-90 -1.64174e-89 3.29252e-90)
(1.50655e-92 -8.17014e-92 1.63952e-92)
(7.56127e-95 -4.09786e-94 8.22864e-95)
(3.81209e-97 -2.0646e-96 4.14855e-97)
(1.92543e-99 -1.0421e-98 2.09537e-99)
(9.72322e-102 -5.25909e-101 1.05814e-101)
(4.90209e-104 -2.64975e-103 5.33476e-104)
(2.46487e-106 -1.33153e-105 2.68242e-106)
(2.55661e-87 -1.38811e-86 2.78226e-87)
(1.26261e-89 -6.8523e-89 1.37405e-89)
(6.33547e-92 -3.43645e-91 6.89465e-92)
(3.21608e-94 -1.74337e-93 3.49994e-94)
(1.64503e-96 -8.91149e-96 1.79022e-96)
(8.4497e-99 -4.57432e-98 9.19549e-99)
(4.34672e-101 -2.35155e-100 4.73036e-101)
(2.23488e-103 -1.20826e-102 2.43213e-103)
(1.1468e-105 -6.19607e-105 1.24802e-105)
(5.86701e-108 -3.16794e-107 6.38484e-108)
(2.64395e-89 -1.43494e-88 2.87731e-89)
(1.33136e-91 -7.22244e-91 1.44887e-91)
(6.81026e-94 -3.69244e-93 7.41134e-94)
(3.52346e-96 -1.90918e-95 3.83444e-96)
(1.83635e-98 -9.94364e-98 1.99843e-98)
(9.60797e-101 -5.19909e-100 1.0456e-100)
(5.03294e-103 -2.7216e-102 5.47716e-103)
(2.63416e-105 -1.4235e-104 2.86666e-105)
(1.37551e-107 -7.42844e-107 1.49691e-107)
(7.15881e-110 -3.86371e-109 7.79065e-110)
(1.86238e-91 -1.01035e-90 2.02676e-91)
(9.55873e-94 -5.18333e-93 1.04024e-93)
(4.98289e-96 -2.70053e-95 5.42268e-96)
(2.62666e-98 -1.42265e-97 2.85849e-98)
(1.39442e-100 -7.54739e-100 1.51749e-100)
(7.42931e-103 -4.01842e-102 8.08503e-103)
(3.96172e-105 -2.14138e-104 4.31139e-105)
(2.11015e-107 -1.13981e-106 2.2964e-107)
(1.121e-109 -6.05123e-109 1.21994e-109)
(5.9336e-112 -3.201e-111 6.45731e-112)
(1.00826e-93 -5.46754e-93 1.08764e-93)
(5.27321e-96 -2.85826e-95 5.68746e-96)
(2.80063e-98 -1.51719e-97 3.02015e-98)
(1.50379e-100 -8.14135e-100 1.62139e-100)
(8.12977e-103 -4.3984e-102 8.76408e-103)
(4.40976e-105 -2.38413e-104 4.75302e-105)
(2.39333e-107 -1.29306e-106 2.5792e-107)
(1.29704e-109 -7.00288e-109 1.39753e-109)
(7.00859e-112 -3.78157e-111 7.55036e-112)
(3.77225e-114 -2.03408e-113 4.06317e-114)
)
;
    }
}


// ************************************************************************* //
