/*--------------------------------*- C++ -*----------------------------------*\
| =========                 |                                                 |
| \\      /  F ield         | OpenFOAM: The Open Source CFD Toolbox           |
|  \\    /   O peration     | Version:  2.4.0                                 |
|   \\  /    A nd           | Web:      www.OpenFOAM.org                      |
|    \\/     M anipulation  |                                                 |
\*---------------------------------------------------------------------------*/
FoamFile
{
    version     2.0;
    format      ascii;
    class       volSymmTensorField;
    location    "0.05";
    object      B;
}
// * * * * * * * * * * * * * * * * * * * * * * * * * * * * * * * * * * * * * //

dimensions      [0 2 -2 0 0 0 0];

internalField   nonuniform List<symmTensor> 
200
(
(2446.71 -120.74 -422.054 1694.76 33.8104 2035.5)
(1687.7 37.7058 -64.8848 951.03 -84.4717 1048.41)
(2796.23 87.1001 84.1755 1915.65 -531.795 1365.96)
(1113 -24.2763 -29.1555 590.7 -165.995 850.83)
(5108.79 583.242 -450.193 5260.35 -1144.1 4695.96)
(1227.16 120.449 -91.2269 57.679 -110.091 277.526)
(2463.2 365.406 15.5187 1722.74 -529.995 1507.75)
(1388.94 241.731 39.9772 753.492 -88.5763 745.137)
(1545.86 285.164 366.572 1014.06 -285.704 852.991)
(3161.76 391.828 217.316 2418.65 -160.285 2321.28)
(2106.57 73.6594 -125.242 1732.16 -40.3842 1771.07)
(2530.97 433.969 -76.7691 2462.65 -463.392 1058.82)
(1041.51 22.0229 51.5919 584.839 -44.8599 566.359)
(3594.87 284.024 156.545 3572.24 -666.811 2644.23)
(781.719 82.3067 47.6922 377.341 -56.2988 306.72)
(2593.65 297.821 257.975 2074.85 -343.291 1484.59)
(1045.43 184.413 134.323 694.733 -91.1199 440.221)
(2654.29 292.808 396.153 2129.47 -274.299 1450.91)
(1970.08 214.593 211.686 1532.36 -106.655 1207.83)
(7016.2 -1101.86 1339.43 7026.72 -370.048 6397.71)
(2441.39 316.14 173.528 2364.82 -251.628 1519.34)
(1225.47 151.955 249.292 594.738 39.6968 289.695)
(2354.32 147.587 229.13 2396.07 -200.585 1655.01)
(689.123 105.027 165.45 522.965 -15.3351 239.524)
(2692.97 157.926 348.432 2598.66 -227.486 1858.27)
(1108.92 135.749 197.036 924.591 -43.0361 575.438)
(3420.28 160.041 592.327 2990.79 -268.471 2139.61)
(1078.96 193.678 253.553 831.934 -59.8952 430.631)
(4188.7 189.845 660.71 3402.27 -255.277 2466.08)
(1500.72 147.079 302.456 1156.89 -53.3363 772.16)
(4284.39 221.882 853.372 3093.18 29.146 2407)
(2349.3 277.417 369.309 2111.58 -158.937 1787.86)
(1941.15 243.434 713.011 1399.88 170.224 802.452)
(2162.88 153.174 513.544 2158.5 -116.738 1652.64)
(950.688 115.415 341.98 923.238 72.4129 516.296)
(2573.43 34.7886 611.967 2577.56 -143.049 1891.13)
(1066.49 85.9597 282.51 975.721 31.6216 542.238)
(3813.24 -32.4738 794.243 3501.36 -206.994 2538.87)
(1001.92 95.8719 287.698 837.226 24.6707 423.873)
(5416.41 -181.598 810.969 4566.29 -203.827 3351.34)
(20515.5 -293.437 -1019.42 19900.5 -258.249 20186.9)
(4763.1 -843.608 -653.115 4241.51 47.4751 4766.98)
(1392.59 -29.7392 159.576 839.705 -161.628 925.071)
(4144.6 -461.223 900.146 3144.66 -964.205 2120.63)
(695.765 176.377 -129.404 804.569 -238.776 930.634)
(9434.08 1726.39 -796.045 12572.5 -2018.51 11274.9)
(1990.57 477.93 -368.571 506.543 -112.878 1054.61)
(10007.3 1667.31 -1050.42 8721.7 -1004.19 7610.21)
(2190.57 388.611 -360.23 1230.3 -240.645 1604.94)
(1345.12 242.706 -111.833 896.741 -353.629 1180.05)
(9986.14 -3148.38 -1194.58 10321 223.465 11541)
(14311.9 217.259 -263.945 12586.7 -128.066 12495.8)
(2959.96 106.475 402.583 3004.9 -906.491 1214.7)
(558.446 170.747 44.7808 81.0154 -189.362 173.709)
(7493.16 831.641 -166.885 8682.67 -1093.28 7166.42)
(1406.76 295.695 -167.47 588.963 -109.372 700.825)
(4384.1 792.149 -289.988 3995.09 -663.875 3355.47)
(1380.13 340.513 -254.892 873.298 -122.665 1041.67)
(1129.94 286.646 -151.143 854.866 -345.201 937.105)
(1085.82 190.732 -339.308 886.944 -256.039 893.143)
(37934.6 545.684 -668.985 34058.5 -184.747 33428.3)
(3017.72 327.233 162.43 2563.46 -15.8127 1494.16)
(1253.88 257.598 123.479 727.377 87.6691 436.315)
(2949.38 356.135 34.3856 3215.75 -170.598 2354.47)
(573.63 237.761 -47.6078 398.259 25.5277 168.724)
(2276.43 410.014 -131.334 2169.56 -181.902 1673.57)
(768.726 256.151 -104.325 680.126 -88.059 401.43)
(2070.65 383.438 -10.0535 1818.72 -297.265 1475.6)
(1103.28 302.875 -193.549 1037 -66.2653 903.338)
(529.286 -57.2272 -133.986 812.257 -279.278 569.18)
(698.405 69.1288 428.616 671.213 -147.725 -33.3692)
(4825.32 403.34 595.662 3398.75 297.937 2008.67)
(3386.63 388.001 272.312 2901.59 -11.25 2214.63)
(936.516 319.58 175.288 745.582 272.121 81.795)
(1464.39 261.031 119.611 1478.78 58.5772 1101.08)
(752.992 228.505 -84.3823 828.141 188.619 507.038)
(1290 241.911 -76.4556 1297.38 2.93577 1065.91)
(536.896 253.692 -122.96 715.799 -83.7684 255.63)
(1444.77 218.716 -138.669 1458.62 -252.794 1039.37)
(962.933 211.72 -211.953 1077.69 -32.0394 931.014)
(4766.64 -3304.04 -1227.86 17854.9 -0.366627 14795.1)
(26245.8 -537.584 -676.352 23195.3 -1331.31 23733)
(7701.42 -3194.7 -922.488 6741.53 -895.736 9064)
(5076.81 220.802 815.542 4307.01 -506.891 4146.44)
(3085.1 -766.387 1391.28 2861.27 -770.596 1730.46)
(3457.61 163.774 -182.494 3785.96 -302.024 3851.52)
(13378.5 1707.38 -1693.21 17820.7 -1509.77 15595.5)
(470.146 -27.5891 41.6446 111.112 -31.9757 399.792)
(6469.46 1222.55 512.399 6431.8 833.167 4866.62)
(534.437 23.5208 63.5587 1415.91 -240.507 1367.95)
(37391.8 1369.16 -369.493 27184.7 -3173.43 26208.9)
(4416.01 -6384.83 -1324.33 5797.11 -2114.58 9765.75)
(9530.13 916.389 1458.07 8333.15 -598.124 7208.24)
(9382.94 1110.8 1434.2 10842.1 -1239.14 9268.92)
(494.905 343.636 -185.547 1086.44 -462.721 1096.64)
(8144.3 1106.86 -435.005 11682.8 -1167.85 9921.22)
(621.013 266.349 165.335 168.588 -31.9212 533.582)
(3711.44 790.742 143.264 3784.72 -95.8064 3018.22)
(273.955 158.751 -112.306 300.385 -139.516 673.239)
(1674.74 529.399 -273.984 2029.79 -300.223 1728.23)
(2394.31 -6166.74 -3831.53 -3766.54 -2898.79 5086.07)
(19358.2 3505.28 3504.45 12674.6 -666.052 10028.1)
(5306.75 355.83 834.107 6783.74 -138.865 5903.03)
(465.908 532.602 458.756 919.75 -208.386 493.71)
(4746.52 626.038 159.437 7352.81 -317.774 5902.34)
(462.995 356.924 102.341 1035.98 93.8818 760.454)
(3632.22 905.364 83.8525 3892.95 40.0013 3689.28)
(385.868 342.645 77.414 -424.458 -185.158 476.24)
(1168.28 345.742 -404.383 297.715 -601.945 565.289)
(1369.71 825.099 -279.807 1231.38 -94.8123 1385.06)
(66433.8 3012.46 -194.537 45079.3 730.965 41735.7)
(1471.69 397.192 1079.81 1522.15 -89.6094 2038.62)
(8362.06 1640.65 3274.83 6560.61 576.092 8261.77)
(2425.69 1166.87 1059.86 3033.84 -1.68328 2854.19)
(1851.91 1068.6 525.068 2747.88 468.971 2580.72)
(1942.08 503.966 328.094 3820.24 44.4436 3653.97)
(871.201 -579.363 -413.78 4224.42 316.076 3220.42)
(1783.13 340.09 -970.679 6210.98 0.266755 5603.19)
(7022.54 1640.73 -38.4667 7289.93 -6.10237 6702.56)
(5237.86 -157.967 103.244 1233.52 170.989 4392.76)
(32071.5 2829.91 13639.5 23645.8 -5555.27 12774.6)
(347.38 -3780.36 -1778.86 3879.01 -2263.66 7584.35)
(6635.55 1638.42 2108.91 5477.78 -2292.55 2696.25)
(-1041.85 -70.7251 -63.0048 338.946 125.811 1724.92)
(4907.63 845.603 1318.42 5401.01 -570.438 4924.41)
(-810.251 106.939 293.924 235.159 736.555 -601.844)
(5347.83 761.672 -125.077 6187.89 -600.631 6246.07)
(147.179 1896.24 -3811.5 7039.75 -1096.74 1984.95)
(5276.83 -444.241 305.374 4326.74 -103.061 4995.56)
(18152.7 2075.44 2570.57 17472.6 853.964 15330.7)
(13948.9 -6786.7 -3883.45 10682.1 -3101.69 19957.7)
(14998.1 3136.73 1175.22 7834.73 -1179.89 3146.08)
(837.581 -892.153 554.974 4278.62 -232.476 6428.51)
(4618.76 362.061 1126.94 5016.03 -156.352 4731.57)
(624.546 839.597 22.9112 2590.11 48.3945 3095.9)
(1211.84 553.739 247.947 1808.02 -384.978 1907.06)
(2021.13 1332.7 -930.293 6511.1 -334.004 5342.96)
(822.782 -76.8061 266.525 587.161 -82.218 902.628)
(7220.67 1592.23 1136.01 8606.56 614.211 7379.34)
(1430.96 78.2248 -78.2656 1820.39 -78.1243 1697.54)
(41586.2 2156.82 4576.84 25243.6 2653.55 16703.9)
(-4033.93 -860.336 370.8 -343.157 -315.924 3538.88)
(4977.24 1049.51 1147.73 4859.72 1482.27 5089.74)
(4953.67 215.665 291.055 7451.41 -105.457 7816.55)
(461.189 487.691 267.307 1221.95 170.572 1354.41)
(3961.15 976.825 284.089 5925.73 526.051 6614.33)
(149.419 120.906 450.922 254.8 147.316 848.779)
(4201.26 1149.45 60.6608 5015.82 894.585 5600.76)
(57.736 243.071 -56.2339 662.53 79.1947 1082.96)
(1919.84 457.629 288.094 2157.72 209.34 2590.57)
(-3576.29 -2004.81 7921.1 -5041.11 -5283.36 -11276.6)
(37301.7 -517.988 8189.86 33333.4 4176.64 37222.2)
(-1863.47 1111.26 79.0993 482.447 -191.827 1244.84)
(1337.11 1571.02 -1233.84 5276.75 2305.18 6253.17)
(1797.17 400.043 513.073 3120.38 148.753 2862.87)
(1973.17 588.284 -404.986 5412.96 1022.59 5475.64)
(2459.01 577.836 -124.67 4409.46 303.362 3897.22)
(6188.96 729.474 445.67 9341.29 1360.87 9402.3)
(3351.42 662.095 161.447 2276.84 1034.29 3962.84)
(1513.87 776.559 68.2683 2894.2 1464.8 4301.77)
(1076.73 -5070.9 -6714.72 8580.96 -4064.95 15175.7)
(22458.3 3615.32 9461.86 17762 -1839.51 12116.1)
(2974.09 -877.003 -1612.1 4203.04 -448.4 6739.42)
(14593.9 1144.17 4615.29 15299.4 1140.57 14466)
(338.31 151.436 -979.706 2109.86 460.097 1499.7)
(3374.29 520.436 185.395 3815.96 -399.37 3570.93)
(4040.78 1919.49 -3530.85 10378 1661.37 7426.82)
(4463.69 -262.734 -317.042 4829.3 -520.972 6498.67)
(5999.3 2638.3 963.546 10937.3 5058.08 12571.7)
(6428.91 -59.0596 -1495.95 7961.43 -538.24 9529.93)
(48066.8 3971.57 21366.8 50205.9 5055.15 40984.5)
(10925.2 -4575.27 -4708.46 14744.5 -3628.05 23263.6)
(16996.7 132.418 5128.55 16983.9 1648.06 18044.9)
(620.941 4.3512 -1036.23 2692.53 625.359 3943.71)
(1612.21 773.474 730.096 1718.01 -403.873 1648.65)
(3990 191.111 -540.857 6079.22 778.828 5944.69)
(690.625 -0.771903 164.139 1128.67 -201.492 1530.63)
(7123.12 707.928 358.98 9934.57 1890.17 10354.6)
(1522.24 313.209 -493.859 4408.89 137.965 3972.63)
(13769.1 435.204 656.11 14380.8 457.071 14384.7)
(51574.7 -13532.7 -16752.7 52107.4 -18900.8 75797.3)
(39627 -4854.47 11816 39399.9 10299.5 46111.5)
(2481.25 -322.385 4048.44 4665.5 -3273.9 11768.3)
(3755.63 381.626 1910.34 5635.39 2557.21 5020.59)
(1280.03 143.886 -41.469 1860.48 -194.017 2763.77)
(1427.18 335.12 409.355 2052.5 874.747 2268.3)
(2121.16 443.647 79.2168 3048.3 226.13 3355.75)
(2024.08 859.523 712.779 4591.09 1129.83 3793.06)
(3187.4 501.268 146.716 4252.83 379.326 4062.98)
(3066.89 177.225 -281.947 5603.43 1024.56 4679.64)
(137258 -19250.4 26793.8 143725 25842.2 189161)
(32736.2 1032.65 40451.7 29404.8 -16672.7 43029)
(11549.6 -1566.86 -1554.45 16553.1 9383.94 14732.5)
(-934.305 837.938 1729.72 877.59 -2944.09 2664.24)
(7019.01 -648.276 18.4498 8632.82 2504.93 8129.08)
(179.25 271.277 170.058 689.588 -367.944 336.117)
(4172.7 587.334 204.685 6087.06 1968.95 6014.93)
(886.827 306.61 320.482 1472.79 -109.353 1005.51)
(2901.61 901.204 56.5833 4355.59 1323.09 4052.78)
(818.286 148.352 381.734 1235.37 4.57864 701.165)
)
;

boundaryField
{
    inlet
    {
        type            calculated;
        value           nonuniform 0();
    }
    outlet
    {
        type            calculated;
        value           nonuniform 0();
    }
    bottom
    {
        type            calculated;
        value           nonuniform List<symmTensor> 
40
(
(1.55877 -0.428016 -2.08001 -1.10686 -0.197445 -0.252985)
(2.19756 0.737215 -0.590537 -1.54977 -0.784249 -3.15544)
(1.20983 1.00023 1.60129 0.967568 -1.84188 -0.270427)
(2.37437 0.511171 2.5053 -0.369921 0.937195 -4.13681)
(2.24228 0.206191 -0.49819 -1.78614 -1.03829 -1.76867)
(1.16715 0.861803 0.118449 1.03148 -1.28541 -0.685367)
(1.52372 0.580463 1.31763 -0.885643 0.963586 -3.90452)
(1.15805 1.06888 2.96573 0.242126 -2.02925 2.03219)
(1.79893 0.170822 0.537839 0.0719051 -0.603109 0.200348)
(1.88371 0.167459 0.717067 -1.58875 -0.443619 -3.57382)
(1.05245 0.542369 2.31522 1.20588 -2.13776 0.611125)
(1.15279 0.530795 2.2099 -0.0274267 1.65309 -3.54975)
(1.35601 -0.141634 0.274535 -1.69122 -1.51446 -0.694822)
(1.17829 0.708709 1.37826 1.12183 -2.46616 -0.00315159)
(0.810229 0.607655 1.58459 -0.151108 0.71587 -4.08414)
(0.746154 0.485904 3.41171 0.732284 -1.83208 2.26626)
(0.688827 1.12732 -0.11511 0.981768 -1.98078 -0.22533)
(1.45505 0.519803 1.05416 -1.09877 -0.0806895 -3.78597)
(1.27151 0.529299 2.89608 0.955425 -2.34975 0.51563)
(0.453279 0.464381 2.27431 0.342834 1.58237 -3.64897)
(1.64631 0.345959 0.665046 -1.71273 -0.226877 -3.37211)
(1.64428 0.811055 2.34447 0.231446 -2.24847 -0.319274)
(1.03693 0.73155 2.19397 0.0435987 0.585552 -4.07759)
(0.8728 0.0996783 3.63696 0.884652 -1.8996 1.49547)
(1.5111 0.83711 1.86852 -0.185225 -2.15984 -0.751021)
(1.23576 0.836666 1.88556 -0.355325 0.15543 -3.85611)
(1.69372 0.422242 3.61378 0.560582 -2.15124 -0.0431537)
(0.738353 0.404549 2.63144 0.311161 1.21525 -3.89332)
(1.65096 1.03747 1.55098 -1.0763 -0.204105 -3.66269)
(1.62771 0.746877 3.01483 0.289043 -1.88679 -1.12609)
(0.972494 0.810373 2.90669 -0.0611068 0.566459 -3.89698)
(1.5286 -0.0804695 4.10096 0.755766 -1.88108 0.253757)
(1.12305 0.854879 3.32782 -0.471191 -1.78128 -1.42296)
(1.71143 0.96454 2.84381 -0.256034 0.110578 -4.18122)
(2.13505 0.419258 3.79399 0.398267 -1.6465 -1.46657)
(0.832824 0.419298 3.29185 0.112521 1.04967 -4.13134)
(2.06651 1.38158 2.44092 -0.553663 -0.245187 -2.88464)
(0.279914 -2.91332 6.26121 0.307712 -1.58079 -2.08059)
(1.32471 0.683599 4.19398 -0.273359 0.456658 -4.78539)
(2.38342 -0.372933 4.08454 0.637617 -1.48576 -1.72538)
)
;
    }
    top
    {
        type            symmetryPlane;
    }
    side1
    {
        type            symmetryPlane;
    }
    side2
    {
        type            symmetryPlane;
    }
    procBoundary22to14
    {
        type            processor;
        value           nonuniform List<symmTensor> 
50
(
(20.4766 9.37082 -269.269 -241.111 7.98196 188.099)
(408.588 -199.537 -269.12 -348.136 25.1894 -47.5766)
(384.927 -108.255 36.8585 -360.695 -36.5728 -151.107)
(598.889 -153.748 224.682 -158.507 -195.418 -35.0309)
(-1.94489 7.34593 -99.6601 -209.186 -210.895 150.897)
(-225.909 531.898 -409.947 281.872 -737.134 207.193)
(471.729 131.979 -216.966 -530.196 -77.1063 -123.395)
(705.898 508.011 -174.3 -229.769 -448.782 -135.977)
(628.289 438.191 -85.0746 -487.722 -102.967 -249.896)
(709.399 235.336 31.5111 -373.292 -193.701 -137.82)
(-312.135 -346.085 -1125.14 440.544 199.535 491.645)
(-260.079 98.229 -783.484 -334.846 -154.112 413.9)
(532.485 -668.61 -487.576 -816.553 -163.027 143.395)
(418.143 -414.462 492.225 -513.746 -162.896 -46.8528)
(1305.41 -765.638 715.937 -394.905 -456.294 -616.71)
(-240.253 111.819 -168.531 60.8493 -187.962 94.9538)
(-1614.72 1045.27 -857.376 1711.02 -1648.38 343.22)
(168.905 114.889 -174.358 -185.516 -62.5804 -93.3786)
(923.628 1059.07 -758.766 512.251 -593.14 -1656.03)
(138.317 253.187 -112.474 -113.344 -298.062 -107.848)
(2867.17 -2040.91 -1604.6 -7937.73 -4983.47 -322.092)
(-1279.48 -586.944 -1331.02 1977.39 -279.31 1212.62)
(160.393 -454.329 -815.823 -350.892 -527.24 356.981)
(659.857 -1331.05 -673.447 -978.006 -245.185 321.689)
(412.253 -145.267 607.834 -425.568 -690.602 416.929)
(1713.7 -2021.27 549.346 -88.7957 513.953 -1715.05)
(-646.099 450.215 -751.146 138.87 -774.222 576.719)
(-6394.72 2094.29 -6397.49 4888.88 -2994.95 -395.958)
(650.871 -684.742 32.4466 -454.854 -77.7517 222.159)
(1778.96 1016.43 1838.83 -507.723 1333.34 -712.825)
(-2696.47 -601.203 -1743.52 4036.74 1780.74 1845.48)
(2095.47 -37.6736 -323.451 -1877.67 -1780.79 -1775.66)
(-1071.97 -559.367 -871.781 318.054 234.29 949.739)
(643.62 199.765 426.493 32.4288 -351.402 -960.542)
(-86.5585 -68.5374 -505.475 -364.045 331.947 74.6289)
(218.25 1218.4 668.652 749.135 -542.776 214.421)
(1247.06 -611.212 156.98 -2330.67 1778.74 -2118.77)
(-237.314 1133.54 -671.628 555.353 -828.696 950.218)
(-446.72 2795.69 -3643.19 -1463.36 1174.49 -1107.4)
(823.422 -1272.35 110.554 -1535.68 -8.09201 1253.07)
(1870.38 1597.39 10640.2 2343.27 -4233.41 -7474.6)
(-687.634 -734.345 -1379.69 494.529 93.8595 212.757)
(1173.02 1446.81 -386.558 80.5665 -2065.94 -1877.96)
(-1890.68 -289.7 -1557.25 433.619 442.676 1389.75)
(785.743 763.345 2925.46 367.154 -230.197 -503.759)
(-4.49522 -384.831 -1444.54 -414.326 631.753 -363.768)
(158.199 1752.63 -483.046 923.256 -1243.22 99.5916)
(-4729.21 2582.53 -8789.64 2137.21 940.371 -684.399)
(-1725.43 408.455 819.471 -2613.54 -2504.67 6089.01)
(2807.57 2681.85 -8910.6 -5706.68 7795.72 1855.98)
)
;
    }
    procBoundary22to21
    {
        type            processor;
        value           nonuniform List<symmTensor> 
20
(
(-378.592 -17.7191 -790.616 -332.778 -73.0638 531.34)
(75.4668 53.1376 -394.879 -81.9934 372.661 205.533)
(290.334 92.8512 -160.498 -193.691 -63.7627 -205.527)
(434.299 428.021 168.908 19.1585 -115.239 -577.638)
(-2563.11 -948.824 -1912 3100.56 826.673 854.991)
(2055.89 -718.775 -2675.78 -503.901 -898.815 -476.421)
(-1264.48 -3898.75 -2078.31 -3725.36 -156.89 525.061)
(6975.64 1062.44 -2115 -961.511 -1019.48 -882.949)
(3349.66 -1409.71 -5431.88 -604.005 -3104.57 -6236.11)
(-4543.25 -11017.1 -9417.53 -6462.26 -2698.96 3922.33)
(24090 1401.88 -8480.92 -1687.26 -339.761 -5291.22)
(-1081.33 -10279.9 -8716.38 -5527.4 -3318.14 -2126.09)
(-7013.11 -4159.68 -5750.67 6931.62 -1721.41 4859.76)
(22603.6 3160.79 19080.1 3679.91 4652.35 -23352)
(-4701.75 -18294.1 -10999.2 -14161.9 -6893.31 6774.36)
(34905.5 -2011.35 3151.3 10142.9 13501.2 -9762.78)
(-6523.42 4372.16 39140.9 -513.963 -2326.59 2757.77)
(-18251.6 -11113.8 -10645.8 1012.7 -6010.12 13525.6)
(6059.93 7241.78 26942.6 16778.2 15158 -1892.58)
(-15378.5 -25826 -52884.8 -23158.8 -36608.6 17502.8)
)
;
    }
    procBoundary22to23
    {
        type            processor;
        value           nonuniform List<symmTensor> 
20
(
(1045.38 138.509 -0.907259 -1301.13 116.485 -146.171)
(768.138 53.1308 180.761 -110.532 -602.729 -133.688)
(-878.352 -2585.57 2601.44 2019.78 -1053.33 -881.865)
(185.885 43.1335 421.768 -17.2462 28.6405 -558.929)
(417.563 572.597 -392.647 -493.587 -384.78 -15.4947)
(506.377 -395.07 410.671 -258.99 -45.8143 -215.584)
(106.182 -202.103 -196.477 231.237 -135.363 -26.8855)
(-937.949 -560.418 -121.482 799.775 -327.508 133.431)
(404.995 250.965 -160.241 -1.64363 19.6786 210.778)
(-125.668 254.164 -5.52397 48.571 -18.7683 42.6734)
(-1332.66 15.7692 55.8979 145.385 -22.8948 158.286)
(195.323 463.119 -736.274 -344.997 26.4925 325.733)
(-404.461 228.099 -50.9571 299.949 -102.146 -66.605)
(544.345 124.87 35.567 -646.872 -101.73 554.081)
(-365.969 127.489 13.0516 -160.536 33.1607 197.558)
(-212.403 64.7452 352.368 -277.079 524.954 492.19)
(-232.315 678.58 3787.23 479.161 2444.83 242.75)
(-499.443 188.612 179.51 403.922 380.834 -151.296)
(-614.877 -344.128 173.837 -161.11 -267.987 294.376)
(-1308.23 -727.104 -1277.9 1063.61 586.308 178.043)
)
;
    }
    procBoundary22to30
    {
        type            processor;
        value           nonuniform List<symmTensor> 
50
(
(295.594 328.592 428.96 38.1494 -295.517 -422.62)
(1012.65 194.741 1356.01 -214.437 97.8413 -889.62)
(185.789 279.427 765.8 -6.04846 -283.646 -130.618)
(298.21 221.858 708.005 -143.821 168.286 -297.949)
(208.844 166.193 967.021 119.238 -192.883 -114.154)
(31.2413 132.127 443.208 7.24933 127.329 -207.326)
(209.328 17.7977 930.759 293.72 -133.998 -223.028)
(62.4111 75.6788 342.942 63.8948 130.476 -281.668)
(464.355 -96.4028 901.898 369.076 -92.3592 -580.675)
(130.306 53.1849 317.602 76.4996 160.308 -403.032)
(1199.21 148.037 914.944 47.264 -49.0756 -1027.46)
(820.591 480.245 896.608 -152.371 -323.614 -806.805)
(2365.04 74.7395 1163.98 -430.871 616.737 -2246.23)
(391.369 265.579 335.844 -40.5532 -65.8101 -313.875)
(334.784 282.305 145.725 -63.6893 306.55 -497.831)
(191.528 171.249 208.096 111.043 18.8478 -118.345)
(-15.0818 202.388 -16.8862 22.3744 235.001 -160.839)
(67.9149 159.943 -80.8859 142.556 162.585 -6.17548)
(-115.997 210.929 -135.556 120.831 126.012 -165.246)
(-112.816 99.4804 -177.104 243.609 -456.135 108.775)
(-194.423 -838.195 1526.77 -1233.4 -1052.82 -1298.49)
(5349.56 3.06833 5961.7 -1554.17 1363.65 705.378)
(34.6812 661.207 1498.38 -752.23 -311.988 -79.9545)
(934.235 885.862 1818.58 -741.475 872.267 817.685)
(18.5775 533.81 650.996 -288.16 -53.0628 306.486)
(18.9352 769.742 195.691 -218.418 521.657 437.063)
(-518.3 596.702 122.891 320.389 73.0114 224.278)
(-1102.23 351.468 -281.436 1292.56 526.975 344.621)
(-3091.58 -2040.83 -174.661 1456.1 -109.349 1005.26)
(-2541.53 260.425 -388.864 2672.29 339.233 594.483)
(2169.42 -7220.2 4180.49 15.628 7824.54 13039.3)
(-1292.3 1333.77 4320.15 -1676.5 -2237.57 -4733.19)
(812.281 136.339 1788.71 595.062 3816.61 6201.64)
(-862.061 984.563 595.119 -318.964 -228.864 -388.87)
(-1472.75 1005.88 -289.602 683.856 1945.66 2095.87)
(-766.242 482.354 -93.0886 424.055 -235.367 -110.336)
(-1950.4 907.601 -925.044 1491.6 1413.56 1651.27)
(-2105.03 -893.875 704.185 1271.71 -189.677 -88.163)
(-3886.8 171.102 -781.599 2795.75 1497.21 1977.76)
(108.007 2028.12 123.665 -1314.77 2204.84 90.1241)
(-24802.7 3800.49 100923 -11818.4 -9356.5 661.905)
(-7346.36 -7310.49 -15547.2 6703.69 12713.2 32558.4)
(-5860.46 2171.44 13763.6 -2121.09 -4067.53 -973.883)
(1350.7 -2863.69 -690.428 2143.34 4804.51 2835.23)
(-532.33 479.174 641.694 356.522 -1176.8 -1205.13)
(180.249 -619.664 -983.733 1303.73 2369.35 517.648)
(-331.074 295.777 172.918 297.027 -580.069 -507.042)
(-70.6882 370.665 -460.218 669.345 1210.46 329.321)
(34.5696 102.206 416.794 360.546 21.8395 -778.898)
(44.9746 183.009 -569.855 192.888 720.446 201.174)
)
;
    }
}


// ************************************************************************* //
