/*--------------------------------*- C++ -*----------------------------------*\
| =========                 |                                                 |
| \\      /  F ield         | OpenFOAM: The Open Source CFD Toolbox           |
|  \\    /   O peration     | Version:  2.4.0                                 |
|   \\  /    A nd           | Web:      www.OpenFOAM.org                      |
|    \\/     M anipulation  |                                                 |
\*---------------------------------------------------------------------------*/
FoamFile
{
    version     2.0;
    format      ascii;
    class       volVectorField;
    location    "0.05";
    object      Ub;
}
// * * * * * * * * * * * * * * * * * * * * * * * * * * * * * * * * * * * * * //

dimensions      [0 1 -1 0 0 0 0];

internalField   nonuniform List<vector> 
200
(
(86.2085 -19.4407 8.43283)
(45.3016 57.9519 58.9557)
(-7.22001 10.4425 -6.67826)
(-29.6537 76.02 23.1607)
(-63.7203 66.9124 7.511)
(-58.3549 4.44688 112.404)
(-132.317 113.31 25.034)
(-121.317 4.72091 122.09)
(-201.106 89.0958 47.4319)
(-168.111 -0.0650444 96.1546)
(19.0194 52.0507 105.181)
(-19.0534 57.2159 22.8456)
(-29.612 35.0517 119.127)
(-97.5413 119.22 0.105053)
(-78.7074 15.2588 126.199)
(-158.169 140.491 10.6425)
(-147.219 -0.923798 128.537)
(-209.658 122.662 37.5363)
(-215.041 -7.95341 139.374)
(-280.968 80.0425 69.3531)
(-95.6493 109.707 9.01423)
(-64.3342 -28.0049 130.151)
(-159.138 142.839 -20.3708)
(-108.186 -17.4658 136.138)
(-192.897 158.477 -17.1877)
(-161.166 -14.8403 135.92)
(-236.103 142.92 1.43846)
(-231.737 -19.366 129.899)
(-276.623 110.432 48.8858)
(-320.698 -25.7077 159.513)
(-92.833 -28.58 137.894)
(-182.061 131.02 -67.7398)
(-141.085 -65.4381 118.325)
(-230.093 131.812 -75.5421)
(-172.175 -64.36 121.632)
(-248.98 136.858 -49.8489)
(-208.542 -47.639 129.777)
(-279.745 127.755 -8.45855)
(-272.233 -41.1423 137.711)
(-314.446 102.822 57.5128)
(102.93 -142.935 -21.9083)
(97.672 20.1581 108.192)
(77.7408 148.622 140.83)
(29.6081 82.457 -0.019967)
(10.1841 262.23 7.03619)
(72.1547 37.1621 31.7668)
(91.8408 87.7486 65.3327)
(3.89041 61.1097 26.1976)
(-8.94938 20.6807 79.7762)
(-57.7531 85.131 23.4456)
(233.841 54.8009 49.5191)
(15.0801 74.2673 211.332)
(-2.23059 77.8183 111.443)
(-29.2533 143.712 159.068)
(-35.3315 119.073 79.7708)
(-36.6581 71.1856 172.826)
(-101.351 148.917 72.7997)
(-94.4823 51.4193 154.701)
(-140.5 133.464 89.2542)
(-117.641 79.494 111.367)
(-6.3428 50.2524 218.642)
(-95.5766 132.504 143.302)
(-84.5635 55.0139 222.701)
(-157.264 162.161 102.663)
(-117.815 52.1453 220.659)
(-181.592 173.472 109.145)
(-161.368 43.98 223.246)
(-203.001 159.787 102.129)
(-207.24 42.5641 173.678)
(-218.568 110.758 115.357)
(-134.684 146.273 122.206)
(-134.767 15.2253 201.759)
(-248.53 145.533 59.0195)
(-214.911 5.6345 191.866)
(-276.971 151.189 50.9703)
(-244.668 13.3142 194.135)
(-278.459 141.464 100.745)
(-270.477 18.4234 225.693)
(-274.409 127.713 88.3272)
(-298.237 23.8866 190.144)
(362.253 23.1552 -52.713)
(68.6958 -268.601 -23.268)
(113.967 155.971 105.247)
(101.935 259.43 140.377)
(38.3298 178.235 -41.2596)
(66.1366 416.391 14.0611)
(117.75 88.758 101.471)
(224.993 181.888 247.446)
(88.8887 162.796 78.7407)
(170.289 162.144 69.3607)
(-198.133 -467.257 47.329)
(68.9479 139.883 251.891)
(-4.01944 223.015 284.301)
(-39.9846 140.112 82.3068)
(-35.0646 247.789 188.328)
(39.9888 131.531 170.009)
(82.2451 138.956 247.608)
(22.4945 138.233 101.354)
(43.5468 115.686 141.763)
(41.2175 180.775 107.357)
(-0.705636 119.485 370.408)
(-188.767 -1.83977 402.516)
(-172.502 124.896 256.994)
(-131.219 76.7493 285.509)
(-143.474 166.933 203.35)
(-54.4686 110.309 260.435)
(-80.4042 210.679 167.492)
(-65.62 88.868 205.128)
(-81.7732 193.118 121.578)
(-94.1854 94.0016 177.489)
(-369.104 0.451824 431.793)
(-290.277 128.444 301.863)
(-320.864 6.73674 316.864)
(-338.967 106.604 161.685)
(-304.757 -20.3802 216.736)
(-292.285 61.1917 114.41)
(-229.26 65.6238 164.811)
(-100.804 322.822 163.709)
(-33.1696 142.213 232.046)
(-134.017 191.797 112.169)
(-247.952 -485.286 -261.248)
(43.4622 166.268 151.939)
(-63.5295 59.5042 -35.2144)
(-20.0699 201.241 53.6941)
(103.417 236.608 43.8744)
(-16.2117 172.853 -111.651)
(145.39 352.346 49.6861)
(21.4827 72.3246 -19.5782)
(280.734 245.204 342.954)
(-62.9091 282.903 -81.0964)
(-25.4567 105.646 315.546)
(-370.514 -11.8662 79.6887)
(-187.674 133.707 342.595)
(-101.439 239.211 74.8008)
(-144.087 156.362 56.9624)
(-13.6455 248.045 113.777)
(-65.1472 78.7094 65.3342)
(146.488 184.488 267.325)
(-62.8452 185.259 -23.0264)
(170.492 80.8139 89.888)
(-515.815 -40.2791 165.921)
(-289.963 158.472 335.441)
(-308.986 102.61 192.806)
(-281.78 169.693 186.577)
(-120.122 171.213 167.06)
(-179.148 159.415 147.767)
(-36.9022 151.404 169.693)
(-113.343 196.991 64.3217)
(5.55509 83.2144 174.982)
(-41.909 154.597 91.2213)
(-429.751 43.3438 348.395)
(-524.011 118.053 157.402)
(-541.294 168.613 -85.4391)
(-331.899 76.9169 154.989)
(-401.206 145.051 9.14105)
(-238.159 148.877 19.2226)
(-209.208 180.289 69.066)
(-74.509 142.776 44.2072)
(-92.259 186.052 53.6715)
(-75.8044 78.0472 51.6552)
(-1.02429 61.2514 651.997)
(-226.137 -173.885 -304.704)
(-126.193 99.9557 419.867)
(-116.406 59.4068 -88.2318)
(-122.095 120.855 -33.3011)
(-39.5363 193.287 117.504)
(-89.942 56.5065 -90.0881)
(112.34 137.672 481.459)
(-18.4367 181.14 -51.2262)
(187.539 93.3541 526.17)
(-425.865 -390.517 -377.363)
(-183.841 13.1714 571.018)
(-243.87 -34.7942 -141.598)
(-203.66 77.0182 167.847)
(-168.777 31.7061 -15.5228)
(-214.799 70.4661 102.974)
(-63.5358 71.0155 143.061)
(-129.342 138.056 43.6226)
(60.5118 86.6209 180.109)
(24.0432 139.867 86.6879)
(-247.096 -175.26 660.429)
(-366.022 -48.4607 132.878)
(-275.613 61.3743 254.775)
(-250.197 21.4084 -100.476)
(-262.794 88.0588 124.918)
(-185.803 34.0079 -47.1913)
(-224.569 70.3727 59.1988)
(-112.721 0.840113 -7.10324)
(-125.58 10.8682 -35.177)
(-47.0319 -14.9107 -2.7795)
(-437.064 79.2384 1280.7)
(-304.262 -35.6092 -48.2686)
(-348.104 76.5805 244.725)
(-304.968 -15.4106 -60.7098)
(-254.348 38.7232 117.854)
(-290.434 43.3479 -108.405)
(-205.063 -0.0160482 87.7565)
(-237.475 -3.15095 -132.359)
(-158.462 -48.189 35.7824)
(-189.716 -55.9503 -119.114)
)
;

boundaryField
{
    inlet
    {
        type            fixedValue;
        value           nonuniform 0();
    }
    outlet
    {
        type            zeroGradient;
    }
    bottom
    {
        type            fixedValue;
        value           uniform (0 0 0);
    }
    top
    {
        type            symmetryPlane;
    }
    side1
    {
        type            symmetryPlane;
    }
    side2
    {
        type            symmetryPlane;
    }
    procBoundary22to14
    {
        type            processor;
        value           nonuniform List<vector> 
50
(
(106.474 -40.1872 23.6721)
(75.0781 -91.6295 -5.32348)
(34.9945 41.0437 44.7153)
(-8.20705 -21.7148 -62.2557)
(-33.9675 97.0728 -36.6496)
(-7.71447 -2.23629 -16.0531)
(-7.15289 -16.3592 51.837)
(-85.174 32.9709 15.321)
(-82.1326 -47.2194 65.2345)
(-150.503 33.9039 28.3261)
(55.576 -45.4201 -173.505)
(158.901 -11.1572 31.9578)
(96.1491 -29.7641 59.907)
(102.993 175.879 75.1639)
(47.6628 87.5199 -85.6486)
(35.9773 291.086 -62.6449)
(134.766 -6.77714 13.0008)
(160.792 102.869 30.8975)
(97.1313 22.5117 17.9149)
(73.3664 17.8435 17.034)
(147.26 -124.307 -166.687)
(110.406 0.429107 -211.946)
(224.368 32.1929 -3.46296)
(92.2808 138.441 -44.8705)
(171.794 303.752 64.6628)
(67.6503 179.816 -126.214)
(117.662 477.429 -33.0597)
(147.737 47.3892 81.9005)
(421.882 218.659 566.835)
(62.0072 261.349 78.1614)
(316.512 107.148 -112.321)
(149.956 -114.877 -201.895)
(151.536 165.635 -69.1832)
(228.394 143.258 -6.85363)
(75.5404 229.281 -165.36)
(237.631 260.881 110.716)
(64.6939 185.795 -215.758)
(188.979 380.474 91.1763)
(81.7443 58.2974 -75.7235)
(199.74 142.63 323.845)
(-25.3528 -414.355 -366.23)
(135.341 106.476 235.405)
(8.49276 -104.161 -225.845)
(77.7534 142.702 318.061)
(140.8 122.555 39.178)
(16.2491 158.808 -160.314)
(140.991 288.496 231.458)
(8.45598 72.6033 -136.565)
(239.003 186.209 652.197)
(59.5042 123.104 -234.198)
)
;
    }
    procBoundary22to21
    {
        type            processor;
        value           nonuniform List<vector> 
20
(
(110.25 -21.4436 -6.61762)
(72.5114 27.7216 -2.59158)
(-13.9244 -0.578503 144.03)
(-83.1283 130.406 24.9938)
(196.201 -32.541 -298.278)
(-112.988 -572.221 -81.0927)
(271.994 64.6133 30.3049)
(-124.575 -51.5441 234.954)
(-173.371 -650.088 -210.51)
(386.571 56.5349 144.378)
(-248.408 -436.085 26.6136)
(99.5205 128.019 202.401)
(215.479 110.328 592.904)
(-467.91 -665.607 -288.919)
(-25.7538 17.8406 388.983)
(-627.255 -2.93319 469.537)
(-390.566 -580.256 -500.47)
(-97.4977 8.63866 1083.43)
(-611.989 -617.436 -480.57)
(-389.966 -498.832 563.55)
)
;
    }
    procBoundary22to23
    {
        type            processor;
        value           nonuniform List<vector> 
20
(
(-287.211 39.1968 54.1603)
(-226.704 311.117 -31.1837)
(-331.82 70.2043 100.26)
(-371.543 -32.4317 190.39)
(-40.1628 49.0222 4.97301)
(-157.76 156.188 91.189)
(-196.137 148.599 139.737)
(-264.944 82.8546 133.062)
(188.61 165.719 60.1613)
(41.6876 151.861 101.437)
(-88.0115 140.578 113.902)
(-138.101 121.644 147.472)
(194.681 -76.7172 -79.27)
(55.8795 101.29 55.8485)
(34.3711 90.1706 87.0995)
(-40.968 154.405 65.0257)
(134.03 209.976 151.801)
(171.007 -30.3444 -127.28)
(-30.5394 90.7854 9.31813)
(-151.084 2.63596 -17.9463)
)
;
    }
    procBoundary22to30
    {
        type            processor;
        value           nonuniform List<vector> 
50
(
(-182.071 140.534 -75.7351)
(-168.764 -48.1821 140.811)
(-249.189 145.124 -132.291)
(-191.326 -78.4895 111.954)
(-280.386 129.907 -120.015)
(-211.221 -88.5613 110.374)
(-285.32 116.99 -82.0052)
(-231.319 -82.3465 124.026)
(-296.642 101.055 -23.2041)
(-275.964 -78.8424 150.083)
(-178.438 37.45 282.89)
(-225.464 137.131 47.8732)
(-253.671 12.4182 183.051)
(-321.986 151.106 -12.2107)
(-304.107 -12.0795 154.813)
(-358.427 138.22 -5.58689)
(-330.314 -10.0609 150.53)
(-355.003 104.593 39.4831)
(-341.692 -16.8664 201.853)
(-330.866 74.9416 90.3183)
(-226.218 136.175 380.225)
(-375.372 83.5848 377.512)
(-360.946 154.952 161.061)
(-377.96 30.5319 241.391)
(-403.098 113.38 53.3859)
(-379.746 -24.2958 162.191)
(-405.008 18.75 34.8475)
(-308.826 -105.006 127.337)
(-278.797 89.2843 86.8236)
(-6.94864 468.403 93.7419)
(-589.037 227.859 561.396)
(-485.07 147.71 -8.9745)
(-533.682 162.823 202.143)
(-502.566 113.952 -130.27)
(-451.193 49.1782 60.5297)
(-425.399 29.5193 -146.623)
(-326.398 -30.4805 52.3268)
(-315.08 19.9028 -86.7917)
(-125.038 291.654 -112.255)
(-116.291 134.82 -13.6305)
(-291.116 -152.062 -546.59)
(-410.092 209.12 1026.29)
(-219.384 -94.3185 -266.404)
(-289.25 84.8373 360.464)
(-253.654 -40.522 -298.03)
(-256.466 -6.76638 219.695)
(-261.605 -35.6253 -264.03)
(-213.269 -94.1014 154.324)
(-257.075 -84.8732 -236.862)
(-218.111 -97.7527 78.8261)
)
;
    }
}


// ************************************************************************* //
