/*--------------------------------*- C++ -*----------------------------------*\
| =========                 |                                                 |
| \\      /  F ield         | OpenFOAM: The Open Source CFD Toolbox           |
|  \\    /   O peration     | Version:  2.4.0                                 |
|   \\  /    A nd           | Web:      www.OpenFOAM.org                      |
|    \\/     M anipulation  |                                                 |
\*---------------------------------------------------------------------------*/
FoamFile
{
    version     2.0;
    format      ascii;
    class       volScalarField;
    location    "0.16";
    object      alpha;
}
// * * * * * * * * * * * * * * * * * * * * * * * * * * * * * * * * * * * * * //

dimensions      [0 0 0 0 0 0 0];

internalField   nonuniform List<scalar> 
200
(
2.37776e-44
1.2333e-46
6.33738e-49
3.22865e-51
1.63192e-53
8.18853e-56
4.08112e-58
2.0213e-60
9.95291e-63
4.87418e-65
6.43294e-46
3.46295e-48
1.84428e-50
9.72586e-53
5.08254e-55
2.6338e-57
1.35425e-59
6.91307e-62
3.50521e-64
1.7661e-66
9.11701e-48
5.08838e-50
2.80608e-52
1.53047e-54
8.26271e-57
4.41894e-59
2.34265e-61
1.23184e-63
6.42831e-66
3.33076e-68
8.95307e-50
5.17458e-52
2.9516e-54
1.66327e-56
9.26808e-59
5.11085e-61
2.79121e-63
1.51069e-65
8.10779e-68
4.31716e-70
2.53489e-46
1.36501e-48
7.27204e-51
3.83616e-53
2.00535e-55
1.03952e-57
5.34677e-60
2.73027e-62
1.38481e-64
6.97963e-67
7.11701e-48
3.97203e-50
2.19039e-52
1.19463e-54
6.44941e-57
3.44909e-59
1.82845e-61
9.6143e-64
5.01706e-66
2.59947e-68
1.04566e-49
6.04285e-52
3.44646e-54
1.94191e-56
1.08195e-58
5.9657e-61
3.2577e-63
1.76297e-65
9.46069e-68
5.03697e-70
1.06326e-51
6.35553e-54
3.74509e-56
2.17794e-58
1.25121e-60
7.10712e-63
3.99465e-65
2.22328e-67
1.22608e-69
6.70342e-72
1.40808e-48
7.86216e-51
4.3376e-53
2.36681e-55
1.27835e-57
6.83965e-60
3.62754e-62
1.90831e-64
9.96284e-67
5.16441e-69
4.09754e-50
2.36822e-52
1.35083e-54
7.61211e-57
4.24161e-59
2.33901e-61
1.27741e-63
6.91376e-66
3.71056e-68
1.97577e-70
6.234e-52
3.72638e-54
2.19587e-56
1.27703e-58
7.3366e-61
4.16743e-63
2.34242e-65
1.30374e-67
7.18995e-70
3.9311e-72
6.55675e-54
4.04936e-56
2.46282e-58
1.47684e-60
8.74044e-63
5.11022e-65
2.95403e-67
1.68961e-69
9.56871e-72
5.36873e-74
5.41249e-51
3.12975e-53
1.78609e-55
1.00698e-57
5.61386e-60
3.09728e-62
1.69237e-64
9.1642e-67
4.92082e-69
2.6215e-71
1.63044e-52
9.74739e-55
5.74474e-57
3.34139e-59
1.91992e-61
1.09074e-63
6.13168e-66
3.41326e-68
1.88265e-70
1.02949e-72
2.56565e-54
1.5846e-56
9.63808e-59
5.77982e-61
3.4209e-63
2.00019e-65
1.15631e-67
6.61411e-70
3.74596e-72
2.10188e-74
2.78818e-56
1.77733e-58
1.11466e-60
6.8861e-63
4.19499e-65
2.52256e-67
1.4986e-69
8.80266e-72
5.11605e-74
2.9439e-76
1.62073e-53
9.69498e-56
5.71722e-58
3.32735e-60
1.91299e-62
1.08744e-64
6.11679e-67
3.407e-69
1.88031e-71
1.02882e-73
5.04842e-55
3.11875e-57
1.89739e-59
1.13811e-61
6.73775e-64
3.9405e-66
2.27855e-68
1.30365e-70
7.38514e-73
4.14485e-75
8.20829e-57
5.23318e-59
3.28251e-61
2.02816e-63
1.23574e-65
7.43197e-68
4.41588e-70
2.59425e-72
1.508e-74
8.67873e-77
9.20801e-59
6.05315e-61
3.91135e-63
2.48744e-65
1.55867e-67
9.63332e-70
5.87782e-72
3.54355e-74
2.11237e-76
1.24594e-78
)
;

boundaryField
{
    inlet
    {
        type            zeroGradient;
    }
    outlet
    {
        type            zeroGradient;
    }
    bottom
    {
        type            fixedValue;
        value           uniform 0;
    }
    top
    {
        type            symmetryPlane;
    }
    side1
    {
        type            symmetryPlane;
    }
    side2
    {
        type            symmetryPlane;
    }
    procBoundary2to1
    {
        type            processor;
        value           nonuniform List<scalar> 
20
(
4.67885e-42
1.21872e-43
1.66473e-45
1.57761e-47
4.80091e-44
1.29958e-45
1.84275e-47
1.81045e-49
2.57008e-46
7.2203e-48
1.06146e-49
1.07993e-51
9.53297e-49
2.77579e-50
4.22555e-52
4.44674e-54
2.75771e-51
8.3127e-53
1.30891e-54
1.4233e-56
)
;
    }
    procBoundary2to3
    {
        type            processor;
        value           nonuniform List<scalar> 
20
(
2.03466e-67
7.56933e-69
1.46512e-70
1.94785e-72
2.99226e-69
1.1434e-70
2.27236e-72
3.09997e-74
2.27255e-71
8.91424e-73
1.81794e-74
2.54348e-76
1.18329e-73
4.76149e-75
9.95826e-77
1.42804e-78
4.76095e-76
1.96417e-77
4.21048e-79
6.18552e-81
)
;
    }
    procBoundary2to10
    {
        type            processor;
        value           nonuniform List<scalar> 
50
(
3.17073e-52
1.84425e-54
1.09744e-56
6.58566e-59
3.94662e-61
2.34809e-63
1.3827e-65
8.04753e-68
4.62771e-70
2.62973e-72
3.85834e-54
2.31887e-56
1.42502e-58
8.8245e-61
5.4523e-63
3.34142e-65
2.0249e-67
1.21178e-69
7.15897e-72
4.1762e-74
2.43671e-56
1.51179e-58
9.5859e-61
6.12058e-63
3.8959e-65
2.45756e-67
1.53161e-69
9.4184e-72
5.71314e-74
3.41945e-76
1.0606e-58
6.78628e-61
4.43579e-63
2.91768e-65
1.9117e-67
1.24029e-69
7.94359e-72
5.01599e-74
3.12207e-76
1.91606e-78
3.58352e-61
2.36273e-63
1.59074e-65
1.07706e-67
7.25899e-70
4.84053e-72
3.18395e-74
2.06329e-76
1.31703e-78
8.2836e-81
)
;
    }
}


// ************************************************************************* //
