/*--------------------------------*- C++ -*----------------------------------*\
| =========                 |                                                 |
| \\      /  F ield         | OpenFOAM: The Open Source CFD Toolbox           |
|  \\    /   O peration     | Version:  2.4.0                                 |
|   \\  /    A nd           | Web:      www.OpenFOAM.org                      |
|    \\/     M anipulation  |                                                 |
\*---------------------------------------------------------------------------*/
FoamFile
{
    version     2.0;
    format      ascii;
    class       volScalarField;
    location    "0.01";
    object      alpha;
}
// * * * * * * * * * * * * * * * * * * * * * * * * * * * * * * * * * * * * * //

dimensions      [0 0 0 0 0 0 0];

internalField   nonuniform List<scalar> 
42
(
1.95045e-101
1.18147e-103
4.66702e-90
2.71546e-92
1.59541e-94
9.38084e-97
5.49166e-99
2.47936e-92
1.43963e-94
8.42584e-97
4.95195e-99
2.91169e-101
1.18642e-94
7.01785e-97
4.167e-99
2.47984e-101
1.47624e-103
5.22464e-97
3.15932e-99
1.91346e-101
1.15357e-103
6.93652e-106
2.11973e-92
1.24489e-94
7.4084e-97
4.43384e-99
2.65352e-101
1.18084e-94
6.9182e-97
4.06515e-99
2.39725e-101
1.41733e-103
5.81823e-97
3.48785e-99
2.08065e-101
1.23805e-103
7.35735e-106
2.6171e-99
1.60853e-101
9.80843e-104
5.94329e-106
3.5838e-108
)
;

boundaryField
{
    inlet
    {
        type            zeroGradient;
    }
    outlet
    {
        type            zeroGradient;
    }
    bottom
    {
        type            fixedValue;
        value           nonuniform 0();
    }
    top
    {
        type            symmetryPlane;
    }
    side1
    {
        type            symmetryPlane;
    }
    side2
    {
        type            symmetryPlane;
    }
    procBoundary102to38
    {
        type            processor;
        value           nonuniform List<scalar> 
23
(
1.39181e-98
7.91342e-101
5.93121e-87
3.36339e-89
1.94405e-91
1.13447e-93
6.63634e-96
3.24683e-89
1.8284e-91
1.03405e-93
5.88026e-96
3.36038e-98
1.55988e-91
9.00704e-94
5.17143e-96
2.95989e-98
2.95989e-98
1.6918e-100
1.6918e-100
6.82984e-94
4.04944e-96
2.3798e-98
2.3798e-98
)
;
    }
    procBoundary102to86
    {
        type            processor;
        value           nonuniform List<scalar> 10(6.55857e-87 3.65909e-89 2.05267e-91 1.1554e-93 6.5125e-96 3.06913e-89 1.73929e-91 9.80411e-94 5.50371e-96 3.07959e-98);
    }
    procBoundary102to101
    {
        type            processor;
        value           nonuniform List<scalar> 8(5.34202e-87 2.49606e-89 1.13388e-91 4.87937e-94 2.3348e-89 1.07534e-91 4.96415e-94 2.19452e-96);
    }
    procBoundary102to103
    {
        type            processor;
        value           nonuniform List<scalar> 9(1.7316e-106 2.7987e-102 1.60827e-104 1.2985e-106 5.00743e-109 1.39671e-104 8.26839e-107 4.57897e-109 2.20388e-111);
    }
    procBoundary102to118
    {
        type            processor;
        value           nonuniform List<scalar> 
12
(
2.84052e-104
1.32065e-106
1.74495e-100
1.29833e-102
9.93239e-105
6.54683e-107
4.04136e-109
8.4544e-103
5.49778e-105
3.64631e-107
2.40237e-109
1.55937e-111
)
;
    }
}


// ************************************************************************* //
