/*--------------------------------*- C++ -*----------------------------------*\
| =========                 |                                                 |
| \\      /  F ield         | OpenFOAM: The Open Source CFD Toolbox           |
|  \\    /   O peration     | Version:  2.4.0                                 |
|   \\  /    A nd           | Web:      www.OpenFOAM.org                      |
|    \\/     M anipulation  |                                                 |
\*---------------------------------------------------------------------------*/
FoamFile
{
    version     2.0;
    format      ascii;
    class       volVectorField;
    location    "0.08";
    object      gradp;
}
// * * * * * * * * * * * * * * * * * * * * * * * * * * * * * * * * * * * * * //

dimensions      [1 -2 -2 0 0 0 0];

internalField   nonuniform List<vector> 
200
(
(-3.63016e+14 6.82033e+13 -1.35502e+14)
(-3.3624e+14 3.95632e+13 -2.15102e+14)
(-6.65265e+14 1.30955e+14 -2.27024e+14)
(-6.15602e+14 1.22293e+14 -1.37516e+14)
(-8.02828e+14 5.61295e+14 -1.65698e+14)
(-1.05807e+15 9.99621e+14 -1.599e+12)
(-8.59471e+14 8.67221e+14 2.77102e+13)
(-5.1906e+14 4.99574e+14 9.78987e+13)
(-1.85567e+14 2.69948e+14 3.78471e+13)
(-1.29987e+14 1.55754e+14 1.28522e+13)
(-3.10599e+14 -6.57523e+13 -1.50048e+14)
(-3.81945e+14 -7.31774e+13 -1.56541e+14)
(-4.88151e+14 -1.28674e+14 -1.57166e+14)
(-6.43118e+14 6.7101e+12 -1.10279e+14)
(-6.60892e+14 -3.52548e+13 -7.84364e+13)
(-6.09321e+14 1.7088e+14 -5.51161e+13)
(-6.50976e+14 1.58866e+14 -8.83184e+13)
(-6.94562e+14 2.69604e+14 -2.97039e+13)
(-6.49873e+14 1.17371e+14 -4.38074e+13)
(-1.25099e+14 1.59061e+14 6.02292e+13)
(-2.91866e+14 -8.99319e+13 -9.55986e+13)
(-4.62084e+14 -6.38371e+13 -1.12808e+14)
(-5.0549e+14 -9.61599e+13 -5.66317e+13)
(-4.28763e+14 -7.16013e+13 -6.60052e+13)
(-4.74489e+14 -3.87034e+13 -8.67978e+13)
(-6.69832e+14 -2.26305e+13 -1.03877e+14)
(-6.62022e+14 -3.03683e+13 -7.96054e+13)
(-6.02049e+14 -2.24016e+13 -1.48773e+14)
(-4.06654e+14 8.22006e+13 -6.33629e+13)
(-1.70534e+14 2.26863e+14 -1.10685e+14)
(-2.87067e+14 -6.29647e+13 -5.2059e+13)
(-3.94401e+14 -7.28776e+13 -4.8726e+13)
(-5.03679e+14 -3.47415e+13 -5.09548e+13)
(-5.28205e+14 -7.00222e+13 -2.6895e+13)
(-5.62951e+14 -9.44423e+13 -3.59195e+13)
(-5.92651e+14 -1.2683e+14 -5.50885e+13)
(-6.50518e+14 -8.82822e+13 -9.81682e+13)
(-4.69424e+14 -4.91276e+13 -6.13328e+13)
(-1.51344e+14 5.3512e+13 -1.48945e+14)
(6.0383e+13 2.0675e+14 -1.21405e+14)
(-5.81315e+14 6.84141e+13 -2.76406e+14)
(-6.29109e+14 1.79118e+14 -2.83783e+14)
(-4.16991e+14 1.1707e+14 -3.32437e+14)
(-4.19359e+14 1.84545e+14 -2.04549e+14)
(-3.67893e+14 6.65862e+13 -2.09468e+14)
(-4.39167e+14 1.60957e+14 -1.43867e+13)
(-5.41078e+14 1.0842e+14 4.82065e+13)
(-4.86622e+14 1.65006e+14 1.61391e+14)
(-4.57716e+14 1.09241e+14 1.04989e+14)
(-2.41767e+14 1.07103e+14 1.63437e+14)
(-5.40732e+14 -1.9062e+12 -1.88977e+14)
(-4.04722e+14 9.04923e+13 -2.18862e+14)
(-3.40112e+14 1.43953e+14 -1.98051e+14)
(-3.91183e+14 1.21127e+14 -1.90048e+14)
(-4.84372e+14 9.09852e+13 -1.12392e+14)
(-6.40944e+14 7.23537e+12 -9.31848e+13)
(-5.69658e+14 -1.28393e+13 -2.23654e+13)
(-5.52126e+14 -1.25071e+14 1.6568e+13)
(-3.62086e+14 -4.45648e+13 1.32854e+14)
(-1.85983e+14 -3.85983e+13 1.9007e+14)
(-4.10187e+14 6.68507e+13 -1.28163e+14)
(-3.3739e+14 1.08666e+14 -1.22168e+14)
(-3.55721e+14 7.37778e+13 -1.10619e+14)
(-5.25294e+14 6.18124e+13 -8.15167e+13)
(-5.95677e+14 2.93236e+13 -9.74499e+13)
(-6.46816e+14 -2.25864e+13 -5.77558e+13)
(-8.05691e+14 -4.61279e+13 -2.58407e+13)
(-5.50073e+14 -7.30078e+13 3.22466e+13)
(-2.84771e+14 -8.60201e+13 7.32558e+13)
(-9.26839e+13 -6.37517e+13 1.07931e+14)
(-3.27486e+14 6.36345e+13 -5.97721e+13)
(-3.90868e+14 8.79287e+13 -7.71196e+13)
(-4.3382e+14 4.19831e+13 -4.79233e+13)
(-4.80092e+14 4.11006e+13 -5.27615e+13)
(-6.5317e+14 -7.09867e+12 -2.0036e+13)
(-7.91847e+14 -5.39122e+13 -1.29451e+13)
(-6.70501e+14 -1.04837e+13 7.53587e+12)
(-6.31911e+14 5.95375e+13 4.67932e+13)
(-3.43574e+14 5.05847e+13 6.95473e+13)
(-8.22421e+13 -2.22023e+13 4.69806e+13)
(-5.96021e+14 4.42552e+14 -1.70832e+14)
(-5.15542e+14 3.43799e+14 -2.00914e+14)
(-4.11715e+14 3.68579e+14 -1.78114e+14)
(-2.221e+14 7.27158e+13 -1.58608e+14)
(-1.94309e+14 9.78991e+13 -6.08023e+13)
(-2.33514e+14 -3.97237e+13 -5.11526e+13)
(-2.96982e+14 1.09764e+14 1.52867e+13)
(-3.37356e+14 2.82551e+14 9.22276e+13)
(-1.79021e+14 2.75188e+14 1.96957e+14)
(1.02407e+14 2.0158e+14 2.67339e+14)
(-5.05792e+14 1.71436e+14 -5.73366e+13)
(-4.10984e+14 1.85407e+14 -3.41053e+13)
(-3.95944e+14 2.26235e+14 -9.30129e+13)
(-3.69009e+14 2.03561e+14 -5.29123e+13)
(-3.50931e+14 1.43974e+14 -7.38209e+13)
(-3.21235e+14 1.01489e+14 1.07262e+13)
(-2.99768e+14 4.03902e+13 8.29209e+13)
(-1.97858e+14 6.29729e+13 1.78512e+14)
(-9.46664e+13 6.65981e+13 2.85859e+14)
(-9.40553e+13 7.02512e+13 2.89615e+14)
(-3.77861e+14 1.16796e+14 4.08381e+13)
(-4.05944e+14 1.62951e+14 8.94175e+12)
(-3.75405e+14 1.44045e+14 1.59374e+13)
(-3.86622e+14 1.48056e+14 -8.05629e+12)
(-3.98454e+14 1.09067e+14 6.97963e+13)
(-4.40682e+14 1.05753e+14 6.72349e+13)
(-3.74015e+14 1.74737e+13 1.93603e+14)
(-2.8494e+14 2.59588e+13 2.9125e+14)
(-1.64464e+14 -1.90907e+13 3.37527e+14)
(-1.96005e+13 -2.08014e+12 3.92646e+14)
(-3.57408e+14 1.05457e+14 4.32435e+13)
(-3.56485e+14 1.01736e+14 6.50041e+13)
(-4.25733e+14 1.29733e+14 4.73922e+13)
(-4.38965e+14 7.53148e+13 9.48772e+13)
(-4.35538e+14 3.71817e+13 8.88754e+13)
(-5.04421e+14 -2.51028e+13 1.95878e+14)
(-4.59356e+14 -2.9012e+13 2.34383e+14)
(-2.70987e+14 -9.50973e+13 3.30723e+14)
(-1.50744e+14 -3.37553e+13 4.18909e+14)
(-1.84684e+14 -1.04026e+14 3.8328e+14)
(-7.49678e+14 7.30623e+14 1.45972e+13)
(-6.52413e+14 1.38251e+15 1.94948e+13)
(-2.81611e+14 7.83517e+14 6.66483e+13)
(-4.39595e+13 3.88647e+14 2.60706e+13)
(-2.40359e+13 -1.59362e+13 6.63896e+13)
(-1.95682e+14 8.86964e+13 5.28346e+13)
(-8.22618e+13 1.67129e+14 1.31519e+14)
(9.47233e+13 4.10893e+14 1.27844e+14)
(1.02642e+14 3.04548e+14 1.99114e+14)
(7.94109e+13 1.60698e+14 2.06343e+14)
(-5.61265e+14 3.36766e+14 5.87996e+13)
(-5.18886e+14 4.26262e+14 7.95114e+13)
(-4.00295e+14 4.54436e+14 8.1243e+13)
(-3.29769e+14 3.6201e+14 1.18797e+14)
(-2.80729e+14 2.99943e+14 1.1426e+14)
(-1.3937e+14 1.96655e+14 1.70648e+14)
(-3.27433e+13 2.72466e+14 1.45884e+14)
(9.72751e+13 1.93365e+14 2.324e+14)
(-6.55731e+12 1.80346e+14 2.26988e+14)
(2.18213e+13 1.61893e+14 2.89937e+14)
(-4.61535e+14 2.27779e+14 9.14511e+13)
(-4.17072e+14 2.67241e+14 1.05035e+14)
(-4.10115e+14 2.98426e+14 1.24484e+14)
(-3.52946e+14 2.98276e+14 1.47111e+14)
(-3.54746e+14 2.89638e+14 1.82346e+14)
(-2.50635e+14 2.73657e+14 2.06777e+14)
(-8.88421e+13 1.96211e+14 2.74399e+14)
(-8.95168e+13 1.7053e+14 2.87133e+14)
(3.96969e+13 1.2686e+14 3.68163e+14)
(-1.20536e+14 8.61129e+13 3.57308e+14)
(-2.76923e+14 6.29925e+13 1.26081e+14)
(-3.77592e+14 1.32925e+14 1.45595e+14)
(-3.38226e+14 1.34898e+14 1.77001e+14)
(-3.47345e+14 1.94685e+14 2.14166e+14)
(-3.29966e+14 1.44191e+14 2.62752e+14)
(-3.26223e+14 1.84328e+14 2.92088e+14)
(-2.38998e+14 7.91048e+13 3.59092e+14)
(-4.14284e+13 8.78965e+13 3.98454e+14)
(-1.75391e+14 -8.13054e+12 4.19453e+14)
(-6.75914e+13 6.90503e+12 4.6595e+14)
(-4.58988e+14 5.83634e+14 4.45259e+13)
(-3.48979e+14 6.02581e+14 1.51728e+14)
(-3.90673e+14 8.87561e+14 1.39349e+14)
(-2.22928e+14 5.07995e+14 1.17646e+14)
(-1.08664e+14 3.19535e+14 8.34217e+13)
(-2.51004e+13 2.4838e+14 9.11995e+13)
(-5.69511e+13 3.66358e+14 1.36728e+14)
(-1.21053e+14 7.84135e+14 9.91091e+13)
(7.21733e+13 6.52244e+14 6.92985e+13)
(1.67014e+14 3.01087e+14 8.95877e+13)
(-3.84333e+14 2.94402e+14 7.72073e+13)
(-3.39165e+14 3.2227e+14 5.12951e+13)
(-2.70229e+14 3.18771e+14 1.3337e+14)
(-2.63354e+14 3.97225e+14 9.19406e+13)
(-1.8501e+14 3.29504e+14 1.54125e+14)
(-2.20037e+14 3.47797e+14 1.21853e+14)
(-1.02159e+14 2.68998e+14 1.28917e+14)
(6.1672e+13 3.17834e+14 1.0016e+14)
(8.94514e+13 3.37077e+14 1.17791e+14)
(-4.51971e+13 3.11796e+14 1.30163e+14)
(-2.87722e+14 2.24446e+14 1.80487e+13)
(-3.0024e+14 2.68685e+14 8.67329e+13)
(-2.40763e+14 2.97258e+14 5.45589e+13)
(-2.01463e+14 3.00647e+14 1.39655e+14)
(-2.07521e+14 3.46653e+14 1.01897e+14)
(-1.46112e+14 3.00057e+14 1.85663e+14)
(-1.16876e+14 3.58606e+14 1.34561e+14)
(1.51048e+13 2.91645e+14 1.76902e+14)
(6.00976e+13 2.88854e+14 1.67255e+14)
(-6.37467e+13 2.79541e+14 1.83278e+14)
(-1.95721e+14 1.33659e+14 7.5124e+13)
(-1.9354e+14 1.47783e+14 5.21972e+13)
(-2.06305e+14 1.86992e+14 1.3264e+14)
(-1.64564e+14 1.90617e+14 9.34225e+13)
(-1.86189e+14 2.08253e+14 1.8976e+14)
(-1.96132e+14 2.13707e+14 1.38353e+14)
(-1.18984e+14 2.00625e+14 2.30413e+14)
(-7.78312e+13 1.91095e+14 1.75857e+14)
(6.52441e+13 1.47143e+14 2.19037e+14)
(-1.33588e+14 1.12966e+14 2.51056e+14)
)
;

boundaryField
{
    inlet
    {
        type            zeroGradient;
    }
    outlet
    {
        type            zeroGradient;
    }
    bottom
    {
        type            zeroGradient;
    }
    top
    {
        type            symmetryPlane;
    }
    side1
    {
        type            symmetryPlane;
    }
    side2
    {
        type            symmetryPlane;
    }
    procBoundary12to4
    {
        type            processor;
        value           nonuniform List<vector> 
50
(
(-3.82729e+14 1.24368e+14 -1.5018e+14)
(-5.07448e+14 2.59093e+14 -2.43763e+14)
(-6.53611e+14 4.57818e+14 -1.48488e+14)
(-1.5038e+15 1.01373e+15 -1.49186e+14)
(-2.41555e+15 2.86092e+15 2.30757e+14)
(-1.22117e+15 2.14037e+15 4.69049e+14)
(3.49117e+14 1.83197e+15 3.85932e+14)
(4.99984e+14 4.65303e+14 1.79401e+14)
(3.77679e+13 3.69419e+14 5.66347e+13)
(-1.14101e+14 2.43712e+14 9.06361e+13)
(-6.95369e+14 3.3335e+14 -4.22945e+14)
(-5.02033e+14 1.92758e+14 -4.0901e+14)
(-3.50965e+14 5.69282e+14 -3.46566e+14)
(-2.90216e+14 2.63958e+14 -1.59062e+14)
(-4.37196e+14 2.58376e+14 1.7723e+14)
(-7.24611e+14 3.63489e+14 5.56406e+14)
(-5.77756e+14 2.72995e+14 4.51045e+14)
(-5.53769e+14 2.08874e+14 1.52208e+14)
(-2.4628e+14 8.92113e+13 1.29579e+14)
(-1.306e+14 2.13491e+14 1.61428e+14)
(-7.55766e+14 1.03684e+15 -4.71217e+14)
(-2.63037e+14 7.97968e+14 -7.86225e+14)
(1.46223e+14 2.73087e+14 -5.09542e+14)
(1.72351e+14 5.35802e+14 -1.80476e+14)
(-1.26052e+14 1.24755e+14 -2.22444e+13)
(-3.44965e+14 1.14888e+14 5.5889e+13)
(-9.44316e+14 2.28987e+14 4.62274e+13)
(-5.28707e+14 1.99681e+14 2.48326e+13)
(6.7274e+13 3.54787e+14 1.63792e+14)
(3.12541e+14 1.58467e+14 2.56118e+14)
(-2.26893e+15 3.39636e+15 -2.93769e+13)
(-6.24674e+14 2.67209e+15 -8.22269e+13)
(1.58743e+15 2.41122e+15 -2.43121e+14)
(1.26914e+15 5.54596e+14 -1.53252e+14)
(3.19172e+14 2.59397e+14 -2.42621e+13)
(-5.05501e+14 5.82941e+14 -9.41721e+12)
(-6.77137e+14 4.37389e+14 -1.44866e+13)
(-1.77561e+14 3.78934e+14 -8.10897e+13)
(4.93834e+14 2.11511e+14 -8.67232e+12)
(4.31298e+14 2.73382e+14 2.27745e+14)
(-6.39198e+14 1.52209e+15 1.69075e+14)
(-9.47018e+14 2.97319e+15 5.38751e+14)
(-8.10582e+13 2.17904e+15 6.83428e+13)
(8.72699e+14 1.48955e+15 1.73479e+13)
(3.3422e+14 2.85147e+14 -5.55442e+13)
(-3.13683e+14 1.43115e+14 2.20504e+13)
(-1.17367e+15 1.15241e+15 4.3988e+12)
(-5.10101e+14 1.17489e+15 -1.33116e+14)
(1.05555e+15 1.29121e+15 -9.95198e+13)
(1.13016e+15 5.21977e+14 4.24193e+13)
)
;
    }
    procBoundary12to11
    {
        type            processor;
        value           nonuniform List<vector> 
20
(
(-2.26008e+14 3.49834e+12 -1.46883e+14)
(-1.96037e+14 -1.08752e+14 -8.4624e+13)
(-2.18595e+14 -7.56034e+13 -7.58329e+13)
(-2.39929e+14 -4.9211e+13 -3.60951e+13)
(-4.28115e+14 1.018e+14 -2.10969e+14)
(-4.51172e+14 4.92815e+12 -1.57865e+14)
(-3.4782e+14 2.04301e+12 -9.52946e+13)
(-3.03486e+14 3.83385e+13 -5.51378e+13)
(-6.081e+14 2.18812e+14 -1.48301e+14)
(-4.52735e+14 7.63266e+13 -2.76887e+13)
(-3.79113e+14 8.87594e+13 2.49882e+13)
(-2.99177e+14 6.86197e+13 4.92033e+13)
(-7.19249e+14 5.28677e+14 -2.3328e+13)
(-5.90179e+14 2.82191e+14 4.15557e+13)
(-3.4e+14 1.2507e+14 7.68663e+13)
(-2.69829e+14 4.8729e+13 9.50675e+13)
(-4.70036e+14 4.75148e+14 6.0887e+13)
(-3.67681e+14 2.36638e+14 -3.99607e+12)
(-2.62148e+14 1.74378e+14 3.24164e+13)
(-1.22051e+14 8.5495e+13 2.68215e+13)
)
;
    }
    procBoundary12to13
    {
        type            processor;
        value           nonuniform List<vector> 
20
(
(-1.8691e+13 2.64449e+14 2.91585e+12)
(7.30094e+13 9.70975e+13 -6.28337e+13)
(3.32201e+13 1.74942e+14 -3.90347e+13)
(7.56126e+13 1.84484e+14 -1.93516e+14)
(-6.15042e+13 8.15493e+13 1.77612e+14)
(-1.8736e+14 2.99767e+13 1.42556e+14)
(-2.31687e+13 -3.41494e+13 1.20423e+14)
(1.6941e+14 6.22009e+13 -7.03625e+12)
(3.4061e+12 7.18902e+13 2.97325e+14)
(1.65976e+13 5.59407e+12 3.50798e+14)
(-1.55668e+14 -6.44053e+13 3.28823e+14)
(-1.27654e+14 -9.70483e+13 4.23487e+14)
(1.27627e+14 9.9809e+13 2.19303e+14)
(-7.69311e+13 8.03728e+13 2.42256e+14)
(-1.72922e+13 8.21532e+13 3.54367e+14)
(-1.76664e+14 -8.80446e+13 4.35421e+14)
(-7.61619e+13 6.45636e+13 9.66744e+13)
(-1.42313e+14 2.21697e+14 9.68473e+13)
(-3.7205e+14 2.44659e+14 1.85002e+14)
(-3.3246e+14 1.41127e+14 1.98413e+14)
)
;
    }
    procBoundary12to20
    {
        type            processor;
        value           nonuniform List<vector> 
50
(
(-3.39199e+14 -4.65532e+12 -1.64742e+13)
(-4.05638e+14 -2.65656e+13 -1.23041e+13)
(-4.99779e+14 -3.74625e+13 -8.67884e+12)
(-5.48165e+14 -5.95466e+13 3.44651e+12)
(-5.88104e+14 -9.6465e+13 -3.2208e+13)
(-6.57511e+14 -1.08274e+14 -5.83034e+13)
(-5.06618e+14 -1.0963e+14 -3.09813e+13)
(-3.1846e+14 -9.40199e+13 -8.08575e+13)
(1.05101e+14 -3.54416e+13 -6.51925e+13)
(9.14099e+13 -4.41584e+14 -2.5378e+14)
(-3.11006e+14 6.28145e+13 -2.28996e+13)
(-3.80693e+14 4.57008e+13 -1.30345e+13)
(-4.49377e+14 4.43935e+13 -7.82242e+12)
(-6.23458e+14 -1.16139e+13 9.31897e+12)
(-7.85703e+14 -2.76256e+13 -1.51849e+13)
(-6.53586e+14 3.25221e+13 5.82348e+12)
(-5.78791e+14 6.56117e+13 1.12032e+13)
(-4.27936e+14 1.60115e+14 3.51553e+12)
(-4.48251e+14 1.22565e+14 1.87138e+13)
(-6.94516e+13 2.54955e+14 -8.63039e+13)
(-3.11628e+14 8.63192e+13 4.04369e+13)
(-3.57391e+14 1.15892e+14 3.70644e+13)
(-4.28248e+14 5.21031e+13 7.40091e+13)
(-5.71724e+14 5.43714e+13 8.79336e+13)
(-5.99289e+14 -7.50814e+12 1.64352e+14)
(-5.7307e+14 -3.22601e+13 2.16135e+14)
(-5.14004e+14 -4.10024e+13 2.49596e+14)
(-2.94427e+14 -4.19463e+13 3.08975e+14)
(-1.82322e+14 -6.533e+13 3.0083e+14)
(-1.46187e+14 -6.10102e+13 4.10838e+14)
(-2.93144e+14 2.41477e+13 1.09077e+14)
(-2.73262e+14 5.61582e+12 1.33814e+14)
(-2.86595e+14 6.5594e+13 1.6027e+14)
(-3.34359e+14 -7.33519e+12 2.19174e+14)
(-3.75459e+14 2.25792e+13 2.89265e+14)
(-3.80808e+14 -7.86665e+13 3.56033e+14)
(-2.81705e+14 -2.64031e+11 4.17922e+14)
(-2.63988e+14 -1.41737e+14 4.66003e+14)
(-1.22286e+14 -8.8931e+13 4.81224e+14)
(-2.80364e+14 -2.33182e+14 4.92929e+14)
(-1.63146e+14 -2.34563e+13 6.2215e+13)
(-1.93573e+14 1.05703e+13 9.60194e+13)
(-1.55096e+14 -7.38807e+12 8.71178e+13)
(-1.58941e+14 3.5773e+13 1.37113e+14)
(-1.61341e+14 -1.06349e+13 1.41936e+14)
(-1.61368e+14 3.81197e+13 2.04025e+14)
(-1.621e+14 -1.49236e+13 2.10511e+14)
(-9.18594e+13 6.88507e+12 2.41401e+14)
(-9.61597e+13 -8.72147e+13 2.64301e+14)
(-7.57799e+13 -1.32671e+14 2.49566e+14)
)
;
    }
}


// ************************************************************************* //
