/*--------------------------------*- C++ -*----------------------------------*\
| =========                 |                                                 |
| \\      /  F ield         | OpenFOAM: The Open Source CFD Toolbox           |
|  \\    /   O peration     | Version:  2.4.0                                 |
|   \\  /    A nd           | Web:      www.OpenFOAM.org                      |
|    \\/     M anipulation  |                                                 |
\*---------------------------------------------------------------------------*/
FoamFile
{
    version     2.0;
    format      ascii;
    class       volScalarField;
    location    "0.05";
    object      p;
}
// * * * * * * * * * * * * * * * * * * * * * * * * * * * * * * * * * * * * * //

dimensions      [1 -1 -2 0 0 0 0];

internalField   nonuniform List<scalar> 
200
(
-22111.7
-24421.8
-27128.6
-29274.9
-30604.3
-30857
-28993.2
-27666.7
-24761.1
-24052.4
-27139.2
-30620.1
-33352.5
-35802.5
-37291.6
-38184.9
-37339.7
-33386.8
-27319.9
-24265.9
-30517.8
-33594.3
-36280.4
-37609.5
-38168.6
-36640.8
-32616.7
-26027.1
-19619.3
-13889.1
-32224.4
-35105.6
-36881.8
-37382.4
-35787.1
-30790.4
-22419.8
-15498.3
-3917.29
2157.93
-39514.7
-44809.3
-50652.7
-56190.9
-65008.6
-72379.2
-102234
-107392
-74090.8
-61507.7
-47434.1
-53771.6
-60696.9
-67872
-77142.6
-93178.1
-114590
-95197.7
-65712.8
-43688.9
-52098.3
-60029.8
-69563.3
-79617.4
-92133.7
-110302
-88085.3
-53089.5
-25295.5
-21093.7
-57193.9
-68301.3
-80439.6
-96343
-122477
-102153
-57536.3
-21612.1
-20140.8
13799.2
-56790.7
-68779.9
-81600.5
-106746
-129533
-223774
-359886
-275147
-258619
-172699
-66512
-79929.4
-99605.5
-125446
-170008
-245739
-290956
-344901
-195805
-140636
-68685.8
-86129.2
-106745
-137468
-194548
-274810
-388462
-265117
-169486
-69931.1
-78722.1
-97751.1
-127021
-173255
-234369
-351074
-274808
-214694
-84509.7
-78356.6
-58488.5
-70257.4
-103310
-116946
-242884
-447931
-501166
-532743
-394809
-412149
-55752.1
-69639.6
-88944.1
-144623
-233766
-336382
-464011
-483098
-530772
-320165
-53358.1
-65463.5
-90119.8
-115108
-206117
-315031
-476254
-581400
-323153
-302649
-58693.6
-80548.7
-100456
-151924
-246892
-348279
-455477
-295866
-271283
-124881
-44930.7
-68735
-63985.1
-100078
-131634
-93884.2
-144334
-91793.4
-227279
-81409.1
-28045
-24795.4
-27539.9
-35158.6
-55872.4
-42026.6
-42141.8
-171124
-46707.1
-1139.69
-17259.9
-17018.5
-5972.67
-13667.5
-6843.28
-27273.4
-11124.8
34310
165121
403855
-23603.2
-20049
-28446
-20315.5
-36123.5
-105321
36476.9
245454
545684
498379
)
;

boundaryField
{
    inlet
    {
        type            zeroGradient;
    }
    outlet
    {
        type            fixedValue;
        value           nonuniform 0();
    }
    bottom
    {
        type            zeroGradient;
    }
    top
    {
        type            symmetryPlane;
    }
    side1
    {
        type            symmetryPlane;
    }
    side2
    {
        type            symmetryPlane;
    }
    procBoundary29to21
    {
        type            processor;
        value           nonuniform List<scalar> 
50
(
-16503.6
-17850.2
-18901.4
-19964.8
-20678
-19947.4
-17802.9
-14724.3
-15247.3
-18542.8
-31360.5
-34645.6
-36943.7
-39971.8
-39425.3
-42725.9
-32503.9
-61016
-65260.3
-44754.1
-44179.7
-50394.3
-61024.1
-63891
-96294.3
-79596.2
-173136
-274788
-197936
-179721
-46145.2
-64864.3
-74748
-163807
-129138
-281434
-530841
-477775
-467188
-323776
-63315
-55438.2
-159620
-178410
-241158
-253640
-206987
-248555
-127596
-215758
)
;
    }
    procBoundary29to28
    {
        type            processor;
        value           nonuniform List<scalar> 
20
(
-19289.2
-23970.1
-26767.9
-28916.9
-35187
-41508.8
-45425.7
-49052.4
-47462
-54741.3
-57329.5
-61531.9
-46063.8
-46279.3
-43681.9
-48438.7
-43098.1
-27084.1
-19852.6
-22071.6
)
;
    }
    procBoundary29to30
    {
        type            processor;
        value           nonuniform List<scalar> 
20
(
-24147.6
-22053.7
-12018
6656.11
-48815.8
-36796.9
-8404.09
11530.4
-137899
-76578.1
-70822.3
9119.63
-275646
-278997
-161660
-155675
-88036.3
115796
185804
364892
)
;
    }
}


// ************************************************************************* //
