/*--------------------------------*- C++ -*----------------------------------*\
| =========                 |                                                 |
| \\      /  F ield         | OpenFOAM: The Open Source CFD Toolbox           |
|  \\    /   O peration     | Version:  2.4.0                                 |
|   \\  /    A nd           | Web:      www.OpenFOAM.org                      |
|    \\/     M anipulation  |                                                 |
\*---------------------------------------------------------------------------*/
FoamFile
{
    version     2.0;
    format      ascii;
    class       volVectorField;
    location    "0.05";
    object      Ua;
}
// * * * * * * * * * * * * * * * * * * * * * * * * * * * * * * * * * * * * * //

dimensions      [0 1 -1 0 0 0 0];

internalField   nonuniform List<vector> 
200
(
(-23.4105 14.8229 30.0552)
(-23.4105 14.8229 30.0552)
(-23.4105 14.8229 30.0552)
(-23.4105 14.8229 30.0552)
(-23.4105 14.8229 30.0552)
(-23.4105 14.8229 30.0552)
(-23.4105 14.8229 30.0552)
(-23.4105 14.8229 30.0552)
(-23.4104 14.8229 30.0552)
(-23.4103 14.8229 30.0552)
(-23.4105 14.8229 30.0552)
(-23.4105 14.8229 30.0552)
(-23.4105 14.8229 30.0552)
(-23.4105 14.8229 30.0552)
(-23.4105 14.8229 30.0552)
(-23.4105 14.8229 30.0552)
(-23.4105 14.8229 30.0552)
(-23.4105 14.8229 30.0552)
(-23.4104 14.8229 30.0552)
(-23.4103 14.8229 30.0552)
(-23.4105 14.8229 30.0552)
(-23.4105 14.8229 30.0552)
(-23.4105 14.8229 30.0552)
(-23.4105 14.8229 30.0552)
(-23.4105 14.8229 30.0552)
(-23.4105 14.8229 30.0552)
(-23.4105 14.8229 30.0552)
(-23.4105 14.8229 30.0552)
(-23.4104 14.8229 30.0552)
(-23.4102 14.8229 30.0552)
(-23.4097 14.6054 30.0551)
(-23.4097 14.6208 30.0551)
(-23.4098 14.6363 30.0551)
(-23.4098 14.6517 30.0551)
(-23.4098 14.6672 30.0551)
(-23.4097 14.6827 30.055)
(-23.4096 14.6982 30.055)
(-23.4091 14.7136 30.0549)
(-22.0903 14.4541 29.6755)
(-20.8192 14.2038 29.3098)
(-23.4069 14.8222 30.0542)
(-23.4068 14.8222 30.0542)
(-23.4067 14.8222 30.0542)
(-23.4066 14.8222 30.0542)
(-23.4063 14.8221 30.0541)
(-23.4058 14.822 30.0539)
(-23.4047 14.8218 30.0536)
(-23.401 14.8212 30.0525)
(-17.9914 13.8122 28.4963)
(-13.3522 12.9468 27.1616)
(-23.4057 14.822 30.0539)
(-23.4056 14.822 30.0539)
(-23.4056 14.822 30.0539)
(-23.4055 14.822 30.0538)
(-23.4052 14.8219 30.0538)
(-23.4047 14.8218 30.0536)
(-23.4034 14.8216 30.0532)
(-23.3992 14.8208 30.052)
(-15.5796 13.3622 27.8024)
(-9.3213 12.1945 26.002)
(-23.4021 14.8213 30.0529)
(-23.4022 14.8213 30.0529)
(-23.4022 14.8213 30.0529)
(-23.4021 14.8213 30.0529)
(-23.4018 14.8213 30.0528)
(-23.401 14.8211 30.0525)
(-23.3991 14.8208 30.052)
(-23.3929 14.8196 30.0502)
(-9.30544 12.1911 25.9974)
(0.0869689 10.438 23.2954)
(0.113626 10.2658 23.2878)
(2.243 9.88537 22.6752)
(4.79808 9.42585 21.9401)
(7.92067 8.86088 21.0417)
(11.8235 8.1509 19.9189)
(16.8406 7.23383 18.4756)
(23.5287 6.00619 16.5515)
(32.8889 4.2819 13.8587)
(46.9189 1.68964 9.82243)
(46.9251 1.68493 9.82063)
(24.8777 5.81242 16.1634)
(26.8456 5.44582 15.5973)
(28.9814 5.04797 14.9829)
(31.3073 4.61471 14.3137)
(33.8499 4.14107 13.5822)
(36.6411 3.62114 12.7792)
(39.719 3.0478 11.8937)
(43.13 2.41242 10.9124)
(46.9299 1.70459 9.81925)
(46.9325 1.70322 9.81853)
(30.5299 4.75473 14.5374)
(32.147 4.45381 14.0721)
(33.8649 4.13415 13.5779)
(35.6931 3.79395 13.0519)
(37.6428 3.43117 12.491)
(39.7264 3.04347 11.8916)
(41.9581 2.62821 11.2496)
(44.3542 2.18236 10.5602)
(46.9329 1.70253 9.81838)
(46.9342 1.7011 9.81801)
(37.669 3.41546 12.4835)
(38.6888 3.22655 12.1901)
(39.7442 3.03107 11.8865)
(40.8368 2.82869 11.5722)
(41.9687 2.61903 11.2465)
(43.1422 2.40168 10.9089)
(44.3594 2.17622 10.5588)
(45.6229 1.94219 10.1953)
(46.935 1.69915 9.81778)
(46.9355 1.69727 9.81764)
(46.9339 1.66215 9.81811)
(46.9345 1.66555 9.81794)
(46.935 1.66897 9.81779)
(46.9354 1.67242 9.81768)
(46.9357 1.67589 9.81758)
(46.936 1.67938 9.81751)
(46.9362 1.68289 9.81746)
(46.9363 1.68642 9.81742)
(46.9364 1.68997 9.81739)
(46.9364 1.68641 9.81739)
(37.663 3.43032 12.4739)
(38.6835 3.2399 12.1859)
(39.7379 3.04275 11.8857)
(40.8294 2.83873 11.5732)
(41.9613 2.62757 11.2483)
(43.1358 2.40888 10.9107)
(44.3549 2.18219 10.56)
(45.6204 1.94703 10.196)
(46.9337 1.70297 9.81815)
(46.9351 1.7019 9.81785)
(40.4802 2.90023 11.6722)
(41.2157 2.76239 11.4616)
(41.9708 2.62141 11.2451)
(42.746 2.47716 11.0226)
(43.5416 2.32946 10.7939)
(44.3581 2.17815 10.5591)
(45.1956 2.02306 10.3182)
(46.0543 1.86403 10.0711)
(46.9349 1.70096 9.8178)
(46.9356 1.69967 9.81764)
(43.5582 2.31519 10.7883)
(43.9593 2.24129 10.6734)
(44.3666 2.16651 10.5564)
(44.7802 2.0908 10.4376)
(45.1998 2.01413 10.3169)
(45.6253 1.93646 10.1945)
(46.0564 1.85776 10.0705)
(46.4932 1.77801 9.94487)
(46.9358 1.69722 9.81756)
(46.9361 1.69539 9.8175)
(46.9353 1.65836 9.81766)
(46.9354 1.66182 9.8176)
(46.9357 1.66529 9.81755)
(46.9358 1.66878 9.8175)
(46.936 1.67228 9.81747)
(46.9361 1.6758 9.81744)
(46.9363 1.67932 9.81742)
(46.9363 1.68286 9.8174)
(46.9364 1.6864 9.81739)
(46.9364 1.68285 9.81739)
(42.0014 2.62162 11.1617)
(42.5789 2.51459 11.0096)
(43.1629 2.40493 10.8506)
(43.7574 2.293 10.6855)
(44.365 2.179 10.515)
(44.987 2.06296 10.3395)
(45.6232 1.94482 10.1597)
(46.2728 1.82448 9.97575)
(46.9347 1.70188 9.78822)
(46.9359 1.70088 9.78537)
(43.58 2.32346 10.7288)
(43.9728 2.24861 10.6203)
(44.374 2.17294 10.509)
(44.7833 2.09642 10.3949)
(45.2005 2.01901 10.2782)
(45.625 1.94068 10.1591)
(46.056 1.86136 10.038)
(46.4929 1.78102 9.91517)
(46.9354 1.69966 9.7907)
(46.9362 1.69841 9.78792)
(45.2171 2.00482 10.2641)
(45.4228 1.96697 10.2084)
(45.6319 1.9289 10.1514)
(45.844 1.89062 10.0935)
(46.0586 1.8521 10.0346)
(46.2755 1.81333 9.97495)
(46.4941 1.77429 9.91483)
(46.7142 1.73497 9.85426)
(46.936 1.69538 9.79324)
(46.9362 1.69358 9.79051)
(46.9364 1.65481 9.77455)
(46.9362 1.65827 9.77718)
(46.9362 1.66175 9.77982)
(46.9362 1.66524 9.78247)
(46.9362 1.66874 9.78512)
(46.9362 1.67225 9.78778)
(46.9362 1.67577 9.79045)
(46.9363 1.6793 9.79314)
(46.9364 1.68284 9.79582)
(46.9364 1.6793 9.79313)
)
;

boundaryField
{
    inlet
    {
        type            calculated;
        value           nonuniform 0();
    }
    outlet
    {
        type            calculated;
        value           nonuniform 0();
    }
    bottom
    {
        type            calculated;
        value           uniform (0 0 0);
    }
    top
    {
        type            symmetryPlane;
    }
    side1
    {
        type            symmetryPlane;
    }
    side2
    {
        type            symmetryPlane;
    }
    procBoundary29to21
    {
        type            processor;
        value           nonuniform List<vector> 
50
(
(-23.4106 14.823 30.0552)
(-23.4102 14.8228 30.0552)
(-23.4102 14.8228 30.0552)
(-23.4102 14.8228 30.0552)
(-23.4103 14.8228 30.0552)
(-23.4103 14.8228 30.0552)
(-23.4103 14.8228 30.0552)
(-23.4103 14.8228 30.0552)
(-23.4104 14.8229 30.0553)
(-23.4104 14.8229 30.0555)
(-23.4087 14.8232 30.0551)
(-23.4081 14.8228 30.055)
(-23.4079 14.8227 30.0549)
(-23.4077 14.8226 30.0548)
(-23.4073 14.8225 30.0546)
(-23.4066 14.8223 30.0544)
(-23.4054 14.822 30.054)
(-23.4018 14.8213 30.0529)
(-19.2673 14.0501 28.8637)
(-15.5995 13.3721 27.8048)
(20.3717 6.6957 17.3989)
(22.5408 6.28601 16.7991)
(24.9273 5.83293 16.1275)
(27.5729 5.33088 15.3756)
(30.5285 4.77214 14.5311)
(33.8558 4.14627 13.5776)
(37.6307 3.43949 12.4937)
(41.9478 2.63383 11.2525)
(46.9256 1.70623 9.82041)
(46.9318 1.7048 9.81925)
(-9.90655 -2.16834 -1.7723)
(-6.62517 -1.69356 -0.93499)
(0.859253 -0.783391 1.15319)
(19.7545 1.17295 6.42707)
(40.4712 2.91125 11.6557)
(41.9778 2.63183 11.2409)
(43.5417 2.33706 10.7933)
(45.1927 2.02832 10.3191)
(46.9324 1.70436 9.81865)
(46.9756 1.70482 9.81822)
(-11.5171 -2.48101 -2.23027)
(-9.09514 -2.14132 -1.75019)
(-3.68238 -1.5495 -0.50218)
(13.5704 -0.015304 3.65644)
(43.8671 2.3484 10.7209)
(44.6327 2.19506 10.5118)
(45.3732 2.03417 10.2786)
(46.1522 1.87074 10.0362)
(46.9738 1.70476 9.7859)
(47.083 1.70776 9.783)
)
;
    }
    procBoundary29to28
    {
        type            processor;
        value           nonuniform List<vector> 
20
(
(-23.4106 14.823 30.0552)
(-23.4105 14.8229 30.0552)
(-23.4105 14.8229 30.0552)
(-23.4104 14.5904 30.0554)
(-23.4079 14.8229 30.0547)
(-23.4064 14.8225 30.0543)
(-23.4026 14.8217 30.0532)
(-1.69502 10.6277 23.7815)
(23.0351 6.13088 16.4018)
(28.9684 5.02398 14.7799)
(36.6483 3.59115 12.667)
(46.9332 1.65878 9.81827)
(36.5586 3.58667 12.3973)
(39.6657 3.018 11.6477)
(43.1038 2.38066 10.7916)
(46.9365 1.65497 9.81783)
(41.6993 2.72531 10.9471)
(43.4792 2.4024 10.6025)
(45.3208 2.05154 10.2087)
(47.2711 1.66312 9.77197)
)
;
    }
    procBoundary29to30
    {
        type            processor;
        value           nonuniform List<vector> 
20
(
(-23.4101 14.8228 30.0554)
(-23.4104 14.823 30.0553)
(-23.41 14.8228 30.0551)
(-19.5933 13.9624 28.9571)
(-9.33729 12.205 26.0024)
(-4.20035 11.2391 24.5289)
(6.79514 9.18545 21.3655)
(46.9271 1.68104 9.82009)
(46.934 1.70221 9.81835)
(46.935 1.69984 9.81792)
(46.9357 1.69546 9.8176)
(46.9364 1.68285 9.81739)
(46.9651 1.70201 9.81789)
(46.9357 1.69844 9.81768)
(46.9365 1.69361 9.81751)
(46.9364 1.67931 9.81739)
(47.0941 1.70567 9.78284)
(46.9763 1.69864 9.78535)
(46.9372 1.69182 9.78788)
(46.9365 1.67577 9.79044)
)
;
    }
}


// ************************************************************************* //
