/*--------------------------------*- C++ -*----------------------------------*\
| =========                 |                                                 |
| \\      /  F ield         | OpenFOAM: The Open Source CFD Toolbox           |
|  \\    /   O peration     | Version:  2.4.0                                 |
|   \\  /    A nd           | Web:      www.OpenFOAM.org                      |
|    \\/     M anipulation  |                                                 |
\*---------------------------------------------------------------------------*/
FoamFile
{
    version     2.0;
    format      ascii;
    class       volVectorField;
    location    "0.05";
    object      Ur;
}
// * * * * * * * * * * * * * * * * * * * * * * * * * * * * * * * * * * * * * //

dimensions      [0 1 -1 0 0 0 0];

internalField   nonuniform List<vector> 
200
(
(13.3769 -57.9631 190.458)
(27.5073 -88.6563 -24.0067)
(1.81777 -111.926 148.55)
(15.8149 -119.459 -27.1695)
(14.2646 -155.04 92.8621)
(36.4311 -136.469 -32.0546)
(29.7136 -178.548 -2.46801)
(50.6019 -86.1695 -74.7559)
(48.0524 -113.481 -52.0117)
(100.075 20.79 -129.511)
(13.8642 -68.4619 -31.1726)
(-33.3993 -69.2477 153.713)
(-13.2531 -94.0044 -69.5646)
(-31.9311 -119.16 90.5884)
(-1.44322 -123.581 -87.1928)
(-0.535197 -151.835 35.908)
(43.3821 -124.511 -110.538)
(41.2998 -133.783 -40.0498)
(125.269 13.2658 -84.1653)
(120.107 -65.0232 35.4508)
(-43.4547 -20.0128 162.371)
(-23.9685 -56.9684 -57.196)
(-64.0563 -58.7553 94.5196)
(-27.1235 -82.643 -121.732)
(-49.7056 -89.4638 47.1546)
(-0.879601 -90.7413 -149.573)
(-9.421 -99.3888 9.70585)
(62.4815 -72.1477 -140.82)
(34.1352 -42.7991 1.7731)
(180.095 61.6 -212.566)
(-38.4214 -27.6924 -30.7265)
(-82.7906 -0.244442 70.6745)
(-47.0051 -41.1508 -115.757)
(-83.054 -20.7527 25.2653)
(-35.1608 -45.0447 -144.984)
(-69.5761 -36.5197 3.25376)
(-11.5633 -48.3781 -163.242)
(-35.4721 -35.0681 29.6053)
(53.7616 -23.3724 -207.151)
(82.6299 -58.0019 89.3536)
(58.2839 -63.0896 -2.81168)
(28.8767 -92.3943 170.633)
(13.2738 -111.142 -7.51181)
(-15.7588 -175.635 77.8174)
(2.27039 -189.792 -35.8862)
(-189.428 -225.677 -7.28614)
(74.0973 215.061 149.09)
(-302.275 -107.569 86.2366)
(125.845 87.6297 -107.653)
(45.8054 -172.411 -260.685)
(-2.62704 -21.6644 193.619)
(-12.0157 -38.8574 -50.9922)
(-75.9642 -67.9719 95.5975)
(-86.5399 -89.2199 -139.477)
(-145.833 -158.762 -49.8815)
(-113.081 -185.01 -224.131)
(-139.654 -166.722 -110.901)
(6.73073 -79.2444 -254.526)
(-23.4157 -155.148 -160.674)
(166.705 -57.7294 -308.743)
(10.2865 -4.5 -11.7321)
(-61.7402 -6.7605 160.792)
(-29.4403 -6.73912 -82.5608)
(-148.516 -41.7161 66.129)
(-126.039 -63.8529 -172.497)
(-146.438 -39.7946 -64.2329)
(-53.4525 -91.6555 -344.065)
(-71.8462 -39.7912 -100.685)
(137.481 -91.9075 -424.339)
(112.705 -77.4437 -79.1026)
(-55.4391 30.5657 137.074)
(1.44814 16.3674 -69.2158)
(-139.2 30.0645 61.1078)
(-85.2018 6.00594 -143.524)
(-139.9 6.52965 -23.5374)
(-3.83621 -28.6169 -288.238)
(-23.5037 7.34248 -75.6706)
(262.335 -67.7803 -606.311)
(237.287 -57.5341 -66.9368)
(415.994 -49.359 -665.574)
(123.911 -64.7034 221.629)
(78.513 -82.3563 60.4313)
(3.40311 -160.206 136.161)
(31.2302 -213.996 60.808)
(-476.625 -149.01 225.221)
(120.242 665.978 468.205)
(-528.508 108.642 -38.8682)
(247.94 661.225 218.707)
(-18.4576 -23.3012 -318.718)
(435.336 56.6214 -444.048)
(97.0252 29.3369 31.067)
(-0.257644 35.5758 209.401)
(-45.7936 46.9625 -17.7325)
(-259.778 48.636 123.404)
(-302.111 0.0903554 -91.6074)
(-468.269 83.5978 -4.08791)
(-222.155 -49.3373 -485.934)
(-151.323 127.615 -155.587)
(221.256 -76.0116 -478.328)
(235.859 -35.6809 -275.326)
(112.5 57.5717 257.081)
(148.886 73.8945 35.8927)
(15.8045 88.4663 215.284)
(19.8167 124.352 24.1183)
(-167.177 327.235 92.6989)
(59.9029 -250.346 -1110.73)
(-28.4052 285.451 -117.591)
(186.454 -195.799 -833.936)
(306.368 59.2543 -188.655)
(567.577 -215.014 -981.764)
(199.617 35.9947 41.7987)
(83.7178 80.7228 206.215)
(199.414 118.596 5.92361)
(68.98 275.854 113.708)
(225.603 -363.742 -1155.7)
(100.752 284.561 -138.956)
(317.499 -211.767 -1209.89)
(377.366 162.806 -228.661)
(639.363 -211.93 -1403.89)
(485.607 -88.3806 -66.1682)
(186.67 -34.8492 92.2539)
(113.267 -82.8412 175.873)
(197.831 -115.999 121.567)
(-467.688 105.715 510.518)
(318.523 954.215 687.24)
(-374.24 386.526 -374.57)
(183.35 919.505 454.369)
(23.4043 439.948 -90.7642)
(530.6 -103.736 -971.071)
(483.817 218.369 -146.641)
(167.267 95.3229 266.25)
(141.775 127.433 104.702)
(-39.9664 192.41 318.367)
(-0.68552 226.746 169.234)
(-202.338 483.92 195.06)
(-114.899 561.701 236.458)
(11.4838 628.756 3.46705)
(333.897 -566.223 -1979.27)
(444.72 324.972 31.563)
(663.648 -302.493 -1136.59)
(309.62 109.967 101.819)
(266.492 158.18 322.908)
(349.269 225.619 152.853)
(145.194 401.452 392.043)
(440.649 493.493 261.275)
(448.522 771.464 14.203)
(587.994 -1048.4 -3010.63)
(412.906 252.351 124.177)
(753.595 -422.958 -1915.07)
(584.226 114.141 288.029)
(321.572 76.2191 292.391)
(460.187 99.8498 113.832)
(376.767 187.751 331.5)
(675.932 275.095 123.955)
(644.1 629.459 351.147)
(774.705 -587.885 -1867.52)
(576.144 568.253 -1.26214)
(790.542 -457.083 -2291.79)
(593.481 241.984 56.8415)
(801.673 -242.343 -1755.67)
(248.04 30.5208 163.934)
(396.382 51.648 57.4919)
(-31.9859 386.927 535.032)
(699.95 1047.21 592.407)
(209.132 610.654 -708.448)
(914.57 1208.69 768.24)
(413.318 569.025 -1190.71)
(768.048 1039.71 613.339)
(643.584 817.69 -345.792)
(630.406 -235.193 -2520.56)
(405.018 177.926 62.9651)
(354.03 278.354 278.047)
(489.65 300.228 154.943)
(509.276 584.753 -10.7454)
(937.605 976.676 589.677)
(704.669 686.629 -1176.64)
(863.064 986.554 500.859)
(933.226 964.965 -75.0179)
(823.452 -488.505 -3528.46)
(333.769 310.113 916.284)
(515.976 179.033 253.969)
(662.432 216.67 91.1131)
(698.499 348.884 362.977)
(982.809 456.939 245.341)
(1047.43 643.02 -1280.28)
(1170.27 855.71 420.588)
(1270.6 870.918 79.9713)
(1154.96 -724.812 -3756.11)
(328.015 382.143 938.152)
(638.723 -296.717 -2439.11)
(658.215 72.9099 52.7047)
(718.853 101.431 272.242)
(965.888 104.86 85.1556)
(1022.36 201.392 354.7)
(1459.55 194.469 72.8062)
(1663.54 539.156 536.969)
(1585.41 -677.228 -2788.16)
(989.78 680.578 200.957)
(844.59 -434.529 -2580.17)
(382.138 346.265 285.29)
)
;

boundaryField
{
    inlet
    {
        type            calculated;
        value           nonuniform 0();
    }
    outlet
    {
        type            calculated;
        value           nonuniform 0();
    }
    bottom
    {
        type            calculated;
        value           uniform (0 0 0);
    }
    top
    {
        type            symmetryPlane;
    }
    side1
    {
        type            symmetryPlane;
    }
    side2
    {
        type            symmetryPlane;
    }
    procBoundary29to21
    {
        type            processor;
        value           nonuniform List<vector> 
50
(
(64.3907 -51.8677 -1.91915)
(40.8853 -68.1347 185.029)
(44.519 -77.3773 14.5833)
(42.1863 -111.712 150.923)
(38.8393 -98.8151 29.0682)
(64.9296 -149.741 85.0011)
(48.5263 -82.93 24.3898)
(-19.0799 -106.813 71.8322)
(8.34679 -22.2026 -90.4384)
(59.7179 -115.583 5.06163)
(87.5634 -57.6143 223.206)
(81.2228 -63.4894 63.8665)
(92.3832 -110.223 181.364)
(78.817 -108.089 99.6102)
(97.1799 -202.15 75.1561)
(165.715 -123.262 136.683)
(-325.881 -97.9642 417.136)
(185.118 625.78 352.123)
(-322.577 -100.066 115.178)
(108.975 64.9163 -207.149)
(177.466 -53.362 120.139)
(208.964 -104.732 228.047)
(209.785 -96.6452 221.361)
(180.11 -224.903 131.603)
(542.226 -115.843 349.061)
(-679.68 74.977 1123.91)
(570.469 1556.99 948.964)
(-505.411 3.63902 -32.5675)
(453.314 780.146 336.192)
(-52.5887 -126.314 -192.581)
(286.91 -79.2022 188.281)
(306.627 -50.8407 212.256)
(205.178 -156.011 104.401)
(813.687 -30.6316 296.254)
(-846.821 275.681 1603.5)
(746.06 1457.94 994.731)
(-371.276 253.782 -421.565)
(627.287 1132.08 596.596)
(73.1706 210.428 -258.471)
(674.231 4.63801 -459.718)
(376.845 -7.91993 101.951)
(202.129 -56.2317 156.166)
(889.338 79.4407 222.221)
(-366.442 429.026 1261.42)
(1058.23 1477.66 880.953)
(148.633 446.147 -1001.98)
(1131.07 1414.38 970.111)
(286.868 326.924 -1362.11)
(767.693 860.93 605.851)
(437.049 500.539 -553.767)
)
;
    }
    procBoundary29to28
    {
        type            processor;
        value           nonuniform List<vector> 
20
(
(61.1691 -61.0051 -11.4347)
(2.62754 -18.2623 202.53)
(12.7257 -52.6352 -1.52589)
(-53.3911 19.2307 130.055)
(59.387 -39.9117 236.202)
(52.0004 -29.1965 -16.6676)
(4.07137 23.1384 213.187)
(24.4602 -0.443811 8.44336)
(151.574 -42.6615 37.0071)
(118.353 31.9012 257.658)
(173.109 33.0274 58.1439)
(132.187 44.2776 235.375)
(229.402 -34.9941 225.612)
(220.365 58.1555 55.0754)
(262.8 94.2739 278.413)
(344.805 36.4839 92.2338)
(309.311 31.1336 54.3078)
(343.364 135.51 223.531)
(478.516 113.7 39.2981)
(511.516 71.1858 215.537)
)
;
    }
    procBoundary29to30
    {
        type            processor;
        value           nonuniform List<vector> 
20
(
(158.661 -125.711 105.791)
(186.325 55.0902 -177.665)
(160.165 -95.4211 127.223)
(228.4 93.0776 -384.74)
(169.101 -25.245 -256.888)
(116.149 -121.925 -127.624)
(309.613 -53.2692 -379.427)
(321.553 -195.406 44.2423)
(273.152 -134.473 -370.407)
(468.321 -164.092 -585.234)
(419.578 -155.422 -65.7942)
(658.361 -90.0119 -1026.76)
(636.002 -226.157 -551.578)
(563.94 -40.9511 176.47)
(764.817 -239.355 -1018.53)
(571.678 -61.5809 237.119)
(338.21 153.767 556.373)
(534.758 -242.768 -1769.98)
(143.055 271.607 662.766)
(340.811 -198.121 -1818.06)
)
;
    }
}


// ************************************************************************* //
