/*--------------------------------*- C++ -*----------------------------------*\
| =========                 |                                                 |
| \\      /  F ield         | OpenFOAM: The Open Source CFD Toolbox           |
|  \\    /   O peration     | Version:  2.4.0                                 |
|   \\  /    A nd           | Web:      www.OpenFOAM.org                      |
|    \\/     M anipulation  |                                                 |
\*---------------------------------------------------------------------------*/
FoamFile
{
    version     2.0;
    format      ascii;
    class       volScalarField;
    location    "0.03";
    object      alpha;
}
// * * * * * * * * * * * * * * * * * * * * * * * * * * * * * * * * * * * * * //

dimensions      [0 0 0 0 0 0 0];

internalField   nonuniform List<scalar> 
200
(
1.87e-10
5.53752e-09
1.87526e-10
6.58113e-11
6.55029e-09
5.81496e-07
3.93343e-05
0.00155259
7.92368e-05
0.00159191
1.76786e-12
4.65652e-11
1.77417e-12
7.01217e-13
6.21791e-11
4.89027e-09
2.89613e-07
9.80547e-06
5.90479e-07
1.06715e-05
9.3272e-15
2.22066e-13
9.06172e-14
3.8564e-12
1.01827e-10
2.72643e-11
1.22129e-09
3.61938e-08
2.62818e-09
4.23044e-08
3.80742e-15
3.25779e-13
2.31064e-11
1.21697e-09
3.60662e-08
1.26368e-09
5.18397e-11
1.31976e-09
3.61342e-08
6.21594e-09
1.13211e-07
3.83143e-06
1.13211e-07
1.91226e-09
4.84928e-11
1.91607e-09
1.13423e-07
3.8389e-06
2.28712e-07
3.95236e-06
9.51715e-10
2.82014e-08
9.51716e-10
1.80756e-11
5.25855e-13
1.84905e-11
9.53757e-10
2.82665e-08
1.9491e-09
3.1118e-08
4.51152e-12
1.1887e-10
4.51337e-12
2.05829e-13
4.87447e-12
1.18607e-10
9.01886e-12
1.19304e-10
1.00219e-11
1.59818e-10
1.59002e-14
3.80398e-13
3.63627e-13
2.24828e-11
1.06594e-09
2.80874e-08
9.47431e-10
2.31167e-11
1.43222e-10
1.91703e-09
3.92145e-05
0.00154817
3.92145e-05
5.79521e-07
6.52555e-09
6.57926e-11
1.87584e-10
5.54112e-09
3.77561e-10
5.72897e-09
2.88599e-07
9.77226e-06
2.88599e-07
4.8716e-09
6.55139e-11
1.01804e-10
5.6109e-12
4.66883e-11
3.94733e-12
7.49068e-11
1.21627e-09
3.60469e-08
1.21659e-09
4.61027e-11
1.21276e-09
3.59458e-08
1.21245e-09
2.38789e-11
6.1697e-11
4.84877e-09
3.85247e-12
1.02003e-10
6.52004e-11
4.84861e-09
2.87387e-07
9.73631e-06
2.87387e-07
4.90988e-09
6.5257e-09
5.74672e-07
1.13211e-07
3.83143e-06
1.13211e-07
1.91201e-09
2.42203e-11
2.61556e-13
2.3383e-13
6.09521e-12
4.67581e-13
6.32982e-12
9.51715e-10
2.82014e-08
9.51715e-10
1.80726e-11
2.70032e-13
3.78015e-13
1.82662e-14
5.80276e-14
6.46088e-15
1.59733e-13
4.51153e-12
1.1887e-10
4.513e-12
1.89968e-13
4.49721e-12
1.18496e-10
4.49577e-12
9.80357e-14
2.54249e-13
1.79776e-11
1.58816e-14
3.78928e-13
2.6861e-13
1.79778e-11
9.47224e-10
2.80829e-08
9.47225e-10
1.82303e-11
2.42202e-11
1.89403e-09
1.87e-10
5.53752e-09
1.87e-10
3.55333e-12
5.00189e-14
5.88692e-16
2.44816e-16
5.66249e-15
4.83065e-16
5.90887e-15
1.76786e-12
4.65651e-11
1.76786e-12
3.73044e-14
6.13168e-16
7.8125e-16
3.86933e-17
6.04332e-17
9.36153e-18
2.83762e-16
9.31134e-15
2.20808e-13
9.31498e-15
4.31159e-16
9.27929e-15
2.20034e-13
9.27551e-15
2.2335e-16
6.00434e-16
3.75972e-14
3.60701e-17
7.83347e-16
6.09303e-16
3.70898e-14
1.75859e-12
4.63452e-11
1.7586e-12
3.78974e-14
6.01804e-14
3.75719e-12
)
;

boundaryField
{
    inlet
    {
        type            zeroGradient;
    }
    outlet
    {
        type            zeroGradient;
    }
    bottom
    {
        type            fixedValue;
        value           uniform 0;
    }
    top
    {
        type            symmetryPlane;
    }
    side1
    {
        type            symmetryPlane;
    }
    side2
    {
        type            symmetryPlane;
    }
    procBoundary5to4
    {
        type            processor;
        value           nonuniform List<scalar> 
20
(
3.55331e-12
3.73024e-14
2.16062e-16
3.90983e-17
1.912e-09
1.8072e-11
9.51669e-14
3.68007e-16
5.79521e-07
4.87151e-09
2.30915e-11
8.11805e-14
1.912e-09
1.8072e-11
9.51656e-14
3.68029e-16
3.55329e-12
3.73027e-14
2.16069e-16
9.11705e-19
)
;
    }
    procBoundary5to6
    {
        type            processor;
        value           nonuniform List<scalar> 
20
(
0.00159162
4.9136e-05
3.27064e-07
2.89925e-07
3.95786e-06
1.41741e-07
2.02515e-09
1.13218e-07
5.8164e-09
1.44696e-09
2.87388e-07
3.89271e-05
6.64554e-12
4.78825e-12
9.47222e-10
1.12264e-07
6.59086e-15
9.58195e-15
1.75861e-12
1.85251e-10
)
;
    }
    procBoundary5to13
    {
        type            processor;
        value           nonuniform List<scalar> 
50
(
6.49932e-13
6.16068e-11
4.86653e-09
2.88337e-07
9.76458e-06
2.93886e-07
9.91874e-09
2.8846e-07
9.77088e-06
8.649e-07
5.33064e-15
5.07071e-13
4.19819e-11
2.843e-09
1.40393e-07
3.8043e-06
1.123e-07
2.84352e-09
2.81774e-08
2.86474e-09
5.27739e-13
6.15923e-11
6.46418e-09
5.74674e-07
3.89271e-05
0.00153843
3.89271e-05
5.74675e-07
6.57188e-09
4.91485e-09
2.39151e-15
2.5374e-13
2.39676e-11
1.89403e-09
1.12264e-07
3.80335e-06
1.12264e-07
1.89403e-09
2.42925e-11
1.86141e-11
5.92193e-18
5.75886e-16
4.94452e-14
3.51625e-12
1.85241e-10
5.49117e-09
1.85243e-10
3.59751e-12
3.90223e-12
1.01528e-10
)
;
    }
}


// ************************************************************************* //
