/*--------------------------------*- C++ -*----------------------------------*\
| =========                 |                                                 |
| \\      /  F ield         | OpenFOAM: The Open Source CFD Toolbox           |
|  \\    /   O peration     | Version:  2.4.0                                 |
|   \\  /    A nd           | Web:      www.OpenFOAM.org                      |
|    \\/     M anipulation  |                                                 |
\*---------------------------------------------------------------------------*/
FoamFile
{
    version     2.0;
    format      ascii;
    class       volVectorField;
    location    "0.03";
    object      Ua;
}
// * * * * * * * * * * * * * * * * * * * * * * * * * * * * * * * * * * * * * //

dimensions      [0 1 -1 0 0 0 0];

internalField   nonuniform List<vector> 
200
(
(1.62213 -3.64419 1.63336)
(1.62213 -3.65188 1.63336)
(1.63187 -3.63339 1.62989)
(4.90801 -0.000651512 0.463337)
(5.09553 0.207262 0.396547)
(5.09557 0.207712 0.396498)
(5.09561 0.208112 0.396407)
(5.09573 0.208416 0.396082)
(5.3592 -0.115352 -0.41787)
(5.43358 -0.439746 -1.57319)
(1.62213 -3.67507 1.63336)
(1.62213 -3.67894 1.63336)
(1.63421 -3.66165 1.62882)
(4.88134 -0.0394316 0.447313)
(5.08766 0.197807 0.392504)
(5.09558 0.209228 0.396454)
(5.09563 0.209404 0.396331)
(5.09579 0.20944 0.395871)
(5.34841 -0.106884 -0.441558)
(5.39769 -0.376917 -1.5801)
(1.62459 -3.6837 1.62948)
(1.6303 -3.68229 1.62049)
(2.91702 -2.78105 -0.405984)
(3.06625 -2.67605 -0.638886)
(3.07078 -2.66951 -0.63673)
(4.77789 -0.207766 0.236709)
(5.09388 0.209733 0.395739)
(5.09327 0.209916 0.394944)
(4.38516 -0.0133611 -0.673369)
(5.36878 -0.303109 -1.55227)
(3.05076 -2.68845 -0.618523)
(3.06096 -2.6813 -0.634597)
(3.06439 -2.67888 -0.640011)
(3.06438 -2.67887 -0.640019)
(3.06435 -2.67884 -0.640032)
(3.0054 -2.61897 -0.667871)
(-6.82614 -0.308008 -2.9551)
(-17.4546 1.89326 -5.45663)
(-19.3218 2.03237 -5.93859)
(-6.05853 0.316008 -0.796141)
(1.62213 -3.6519 1.63336)
(1.62213 -3.6596 1.63336)
(1.62213 -3.6519 1.63336)
(1.62259 -3.64369 1.63319)
(3.36072 -1.71277 1.01427)
(5.09512 0.206745 0.39662)
(5.09563 0.207643 0.39633)
(5.09579 0.207896 0.395868)
(5.34066 -0.115934 -0.454584)
(5.36068 -0.440652 -1.71191)
(1.62213 -3.67896 1.63336)
(1.62213 -3.68284 1.63336)
(1.62213 -3.67896 1.63336)
(1.62269 -3.67439 1.63309)
(3.2979 -1.70466 0.947872)
(5.01646 0.18747 0.367561)
(5.0956 0.209131 0.396217)
(5.09586 0.209128 0.395617)
(5.33108 -0.106364 -0.476141)
(5.33458 -0.369565 -1.69215)
(1.62213 -3.68802 1.63336)
(1.62213 -3.69061 1.63336)
(1.6222 -3.68707 1.63223)
(1.66296 -2.36546 0.132041)
(1.55505 -1.0936 -1.16566)
(1.37925 -0.925229 -1.16587)
(3.26614 -0.37379 -0.405309)
(5.0894 0.20875 0.393143)
(3.96727 -0.0200975 -0.71102)
(3.40001 -0.293291 -1.567)
(1.62393 -3.6866 1.62498)
(1.62808 -3.67078 1.60105)
(2.02207 -1.6352 -1.07202)
(1.92112 -1.41634 -1.23691)
(1.77088 -1.2603 -1.28391)
(1.57578 -1.06041 -1.33632)
(1.60683 -1.08233 -1.36497)
(-2.5457 -0.458806 -2.24237)
(-18.0027 1.63169 -5.10026)
(-11.6333 -0.316109 -0.989345)
(1.62213 -3.65961 1.63336)
(1.62213 -3.66733 1.63336)
(1.62213 -3.65961 1.63336)
(1.62213 -3.6519 1.63336)
(1.62215 -3.64417 1.63335)
(1.80753 -3.41811 1.55743)
(5.08575 0.196413 0.399622)
(5.09585 0.207362 0.395614)
(5.32211 -0.116507 -0.491226)
(5.28833 -0.441442 -1.84914)
(1.62213 -3.68284 1.63336)
(1.62213 -3.68672 1.63336)
(1.62213 -3.68284 1.63336)
(1.62212 -3.67891 1.63331)
(1.59865 -3.50794 1.47707)
(1.14778 -0.787475 -0.95262)
(2.44242 -0.499755 -0.581399)
(5.08797 0.206899 0.392639)
(3.91809 -0.123951 -0.550196)
(0.0589821 -0.350454 -1.55261)
(1.62213 -3.69062 1.63336)
(1.62213 -3.69321 1.63336)
(1.62209 -3.6899 1.63259)
(1.52507 -2.32673 0.213668)
(1.37603 -0.926598 -1.16639)
(1.30951 -0.881146 -1.11077)
(1.37593 -0.925846 -1.16713)
(1.1059 -0.932565 -1.19021)
(-11.6264 -0.327162 -0.993004)
(-11.6998 -0.323777 -0.991796)
(1.6222 -3.69051 1.6286)
(1.62234 -3.68008 1.61409)
(1.63388 -1.25297 -1.20838)
(1.60875 -1.08254 -1.36455)
(1.5755 -1.06013 -1.3364)
(1.53119 -1.03031 -1.29881)
(1.57548 -1.06012 -1.3364)
(1.44241 -1.07301 -1.35995)
(-11.5755 -0.330995 -0.995629)
(-11.7007 -0.323779 -0.991752)
(1.62213 -3.6519 1.63336)
(1.62213 -3.6596 1.63336)
(1.62213 -3.6519 1.63336)
(1.62213 -3.6442 1.63336)
(1.62214 -3.63651 1.63335)
(1.685 -3.54627 1.60054)
(5.05963 0.167619 0.408433)
(5.09591 0.206811 0.395318)
(5.30354 -0.117066 -0.527755)
(5.21655 -0.442026 -1.9844)
(1.62213 -3.67896 1.63336)
(1.62213 -3.68284 1.63336)
(1.62213 -3.67896 1.63336)
(1.62212 -3.67502 1.6333)
(1.60228 -3.50683 1.47405)
(1.22459 -0.843564 -1.01455)
(1.79044 -0.725224 -0.886314)
(5.06686 0.201299 0.384904)
(1.43601 -0.155667 -0.646804)
(-4.82467 -0.336461 -1.36387)
(1.62213 -3.68802 1.63336)
(1.62213 -3.69061 1.63336)
(1.62209 -3.68715 1.63241)
(1.54575 -2.33957 0.196397)
(1.42777 -0.961563 -1.2101)
(1.37604 -0.925908 -1.1672)
(1.42763 -0.960663 -1.21103)
(1.08644 -0.964913 -1.23344)
(-11.6227 -0.327704 -0.993374)
(-11.7004 -0.323778 -0.991778)
(1.62225 -3.68778 1.62763)
(1.62251 -3.67463 1.60975)
(1.65336 -1.26601 -1.22485)
(1.63463 -1.09996 -1.38649)
(1.60876 -1.08251 -1.36461)
(1.57554 -1.06015 -1.33643)
(1.60873 -1.0825 -1.36461)
(1.44973 -1.08914 -1.38107)
(-11.5614 -0.331988 -0.996126)
(-11.7006 -0.323778 -0.991753)
(1.62213 -3.64419 1.62932)
(1.62213 -3.65188 1.62977)
(1.62213 -3.64419 1.62932)
(1.62213 -3.63651 1.62887)
(1.62213 -3.62884 1.62842)
(1.65309 -3.57429 1.60638)
(5.01038 0.113878 0.424276)
(5.09595 0.206234 0.39433)
(5.28488 -0.117605 -0.563079)
(5.14529 -0.44227 -2.11346)
(1.62213 -3.67507 1.62888)
(1.62213 -3.67895 1.62932)
(1.62213 -3.67507 1.62888)
(1.62212 -3.67113 1.62836)
(1.60526 -3.50528 1.46678)
(1.28657 -0.889445 -1.05942)
(1.60189 -0.824173 -1.01306)
(5.02605 0.190683 0.369311)
(-1.39455 -0.179063 -0.758461)
(-7.67907 -0.320923 -1.2437)
(1.62213 -3.68542 1.62843)
(1.62213 -3.68801 1.62888)
(1.62209 -3.68439 1.62729)
(1.56264 -2.35011 0.182063)
(1.46922 -0.989619 -1.24123)
(1.42783 -0.960758 -1.20772)
(1.46903 -0.988542 -1.24234)
(1.04057 -0.978725 -1.26758)
(-11.6852 -0.231408 -1.12903)
(-11.7231 -0.290508 -1.03658)
(1.62229 -3.685 1.62125)
(1.62272 -3.66889 1.60018)
(1.66923 -1.2767 -1.23404)
(1.65536 -1.11391 -1.39979)
(1.63467 -1.09993 -1.38273)
(1.60883 -1.08255 -1.36125)
(1.63458 -1.09992 -1.38273)
(1.35989 -1.08168 -1.41303)
(-11.8542 0.0838694 -1.58945)
(-11.8073 -0.166047 -1.21585)
)
;

boundaryField
{
    inlet
    {
        type            calculated;
        value           nonuniform 0();
    }
    outlet
    {
        type            calculated;
        value           nonuniform 0();
    }
    bottom
    {
        type            calculated;
        value           uniform (0 0 0);
    }
    top
    {
        type            symmetryPlane;
    }
    side1
    {
        type            symmetryPlane;
    }
    side2
    {
        type            symmetryPlane;
    }
    procBoundary5to4
    {
        type            processor;
        value           nonuniform List<vector> 
20
(
(1.62213 -3.63651 1.63336)
(1.62214 -3.67118 1.63338)
(1.6233 -3.68206 1.63157)
(3.03101 -2.70222 -0.587272)
(1.62213 -3.6442 1.63336)
(1.62213 -3.67507 1.63337)
(1.62213 -3.68544 1.63339)
(1.62294 -3.68823 1.6299)
(1.62213 -3.65189 1.63336)
(1.62213 -3.67895 1.63336)
(1.62212 -3.68802 1.63337)
(1.62214 -3.69099 1.63147)
(1.62213 -3.6442 1.63336)
(1.62213 -3.67507 1.63337)
(1.62212 -3.68543 1.63338)
(1.62214 -3.68878 1.63115)
(1.62213 -3.6365 1.62888)
(1.62214 -3.67119 1.62844)
(1.62212 -3.68283 1.62801)
(1.62215 -3.68657 1.62502)
)
;
    }
    procBoundary5to6
    {
        type            processor;
        value           nonuniform List<vector> 
20
(
(-11.9302 -0.896731 -34.6805)
(2.36677 0.448104 -6.52015)
(3.9729 0.599259 -3.29446)
(-2.94057 -0.0937298 0.487741)
(-11.8245 -0.892485 -34.4814)
(2.36966 0.446847 -6.51555)
(-3.35923 0.166878 -2.21598)
(-11.6273 -0.321851 -0.979198)
(-11.4997 -0.873227 -33.8513)
(-9.41714 -0.199097 -1.88267)
(-11.7006 -0.323774 -0.991771)
(-11.7007 -0.323779 -0.991752)
(-10.8354 -0.830112 -32.5524)
(-10.8374 -0.276878 -1.32364)
(-11.7007 -0.323777 -0.991761)
(-11.7007 -0.323779 -0.991751)
(-9.75148 -0.756961 -30.3751)
(-11.2464 -0.299265 -1.15857)
(-11.7007 -0.323748 -0.98908)
(-11.7007 -0.323655 -0.98947)
)
;
    }
    procBoundary5to13
    {
        type            processor;
        value           nonuniform List<vector> 
50
(
(3.06441 -2.67891 -0.640003)
(3.06441 -2.67891 -0.640003)
(3.06441 -2.67891 -0.640004)
(3.0644 -2.67891 -0.640006)
(3.0644 -2.6789 -0.640013)
(3.03687 -2.65104 -0.658337)
(-7.95855 -0.338346 -3.26285)
(-19.3466 2.03499 -5.94827)
(-19.3445 2.03507 -5.94651)
(-8.7667 0.60295 -1.59352)
(2.51392 -2.05416 -1.02613)
(2.45207 -1.96326 -1.09516)
(2.36629 -1.85696 -1.16641)
(2.24974 -1.71974 -1.25429)
(2.08657 -1.52762 -1.37733)
(1.84187 -1.23951 -1.56185)
(1.83836 -1.23886 -1.56263)
(-5.23284 -0.145984 -3.02648)
(-19.3234 2.03186 -5.9415)
(-8.77608 0.597221 -1.58911)
(1.83735 -1.28638 -1.50067)
(1.84071 -1.24876 -1.54959)
(1.84156 -1.23916 -1.56206)
(1.84156 -1.23916 -1.56207)
(1.84156 -1.23915 -1.56208)
(1.84156 -1.23915 -1.56208)
(1.84156 -1.23915 -1.56208)
(1.84148 -1.23914 -1.56209)
(1.57789 -1.20716 -1.58664)
(-10.0695 -0.293829 -0.875865)
(1.83734 -1.28635 -1.50065)
(1.8407 -1.24875 -1.54958)
(1.84156 -1.23916 -1.56206)
(1.84156 -1.23915 -1.56207)
(1.84156 -1.23915 -1.56208)
(1.84156 -1.23915 -1.56208)
(1.84156 -1.23915 -1.56208)
(1.84151 -1.23914 -1.56208)
(1.65352 -1.21939 -1.5674)
(-10.2796 -0.251059 -0.963852)
(1.83734 -1.28633 -1.49529)
(1.8407 -1.24875 -1.54448)
(1.84156 -1.23915 -1.55735)
(1.84156 -1.23915 -1.55779)
(1.84156 -1.23915 -1.55822)
(1.84156 -1.23915 -1.55865)
(1.84145 -1.23913 -1.55824)
(1.49803 -1.16291 -1.62475)
(-13.1712 2.09247 -4.48763)
(-13.3621 2.13453 -4.52781)
)
;
    }
}


// ************************************************************************* //
