/*--------------------------------*- C++ -*----------------------------------*\
| =========                 |                                                 |
| \\      /  F ield         | OpenFOAM: The Open Source CFD Toolbox           |
|  \\    /   O peration     | Version:  2.4.0                                 |
|   \\  /    A nd           | Web:      www.OpenFOAM.org                      |
|    \\/     M anipulation  |                                                 |
\*---------------------------------------------------------------------------*/
FoamFile
{
    version     2.0;
    format      ascii;
    class       surfaceScalarField;
    location    "0.01";
    object      phib;
}
// * * * * * * * * * * * * * * * * * * * * * * * * * * * * * * * * * * * * * //

dimensions      [0 3 -1 0 0 0 0];

internalField   nonuniform List<scalar> 
490
(
1.45798e-05
-1.15459e-06
7.29562e-07
1.46625e-05
-4.81922e-07
3.77423e-07
1.33037e-05
4.84983e-07
8.4701e-08
1.26295e-05
7.08916e-06
7.29252e-07
1.39102e-05
5.04277e-07
1.82516e-07
1.40078e-05
-2.57841e-07
1.68542e-07
1.51631e-05
-2.96503e-07
-8.17184e-07
1.59391e-05
1.34156e-07
-3.69785e-07
1.45907e-05
4.60395e-07
1.32038e-06
1.40628e-07
9.64398e-07
1.40276e-05
-9.47215e-07
3.28545e-07
1.30175e-05
1.96082e-07
3.32158e-07
1.12381e-05
1.79022e-06
4.74069e-07
1.59528e-05
1.70318e-06
6.713e-07
1.58988e-05
6.56078e-08
4.92683e-07
1.55817e-05
-1.57884e-07
2.17202e-07
1.58534e-05
-1.90793e-07
-3.77484e-07
1.58167e-05
-6.44196e-08
2.3526e-07
1.40426e-05
2.57515e-07
1.97706e-06
1.40206e-07
9.72475e-07
1.1102e-05
3.10385e-07
1.09045e-06
1.50216e-05
2.33615e-06
-6.05967e-06
1.57191e-05
1.3237e-06
-2.30937e-07
1.62612e-05
4.89593e-07
6.71521e-07
1.5408e-05
1.88034e-07
7.30688e-07
1.5189e-05
1.44807e-07
-8.36518e-08
1.60459e-05
1.23118e-07
-1.17082e-06
1.58552e-05
4.50775e-08
8.11879e-08
1.40007e-05
1.18804e-07
1.99322e-06
7.2172e-08
5.36996e-07
1.41169e-05
2.98821e-07
1.53339e-05
3.42716e-07
1.57634e-05
3.26782e-07
1.55092e-05
3.86263e-07
1.53344e-05
1.46012e-07
1.5329e-05
2.54937e-08
1.57804e-05
-3.73813e-07
1.5751e-05
1.38502e-08
1.39578e-05
1.8192e-06
5.21911e-07
1.50529e-05
-1.3381e-06
1.45594e-06
1.47871e-05
-3.95919e-07
7.3647e-07
1.33887e-05
-1.91245e-06
8.99487e-08
1.5895e-05
1.26529e-07
-2.23199e-06
1.5967e-05
3.46269e-09
1.07016e-07
1.53929e-05
2.74325e-08
7.36292e-07
1.50963e-05
-5.24362e-08
-4.05262e-07
1.48911e-05
6.33902e-09
-8.87277e-08
1.50012e-05
6.01885e-08
1.19783e-06
-3.94702e-08
1.15159e-06
1.66603e-05
1.25271e-07
5.29405e-07
1.61898e-05
1.25634e-07
2.81144e-07
1.47637e-05
-7.67123e-07
7.54853e-07
1.57021e-05
1.83042e-07
-3.23607e-07
1.5894e-05
7.56948e-08
2.28511e-07
1.54305e-05
7.60937e-08
6.32026e-07
1.52246e-05
-9.03256e-08
-1.33715e-07
1.50658e-05
1.27181e-08
3.87684e-07
1.52318e-05
1.77394e-07
1.69393e-06
-5.25868e-08
1.55359e-06
1.62589e-05
2.73477e-07
1.47326e-06
1.61628e-05
3.56725e-07
-6.19459e-06
1.53106e-05
-1.27845e-08
-1.33131e-07
1.55367e-05
3.50288e-09
6.24961e-07
1.56082e-05
6.56821e-08
6.69211e-07
1.54209e-05
1.34977e-07
4.47873e-08
1.53042e-05
5.70214e-09
-1.15013e-06
1.51112e-05
2.59061e-08
2.60924e-07
1.51698e-05
2.91066e-07
1.821e-06
2.3189e-07
1.08544e-06
1.5476e-05
8.71328e-07
1.54634e-05
5.45839e-07
1.52975e-05
3.94308e-07
1.53108e-05
4.15338e-07
1.53526e-05
1.13469e-07
1.53285e-05
5.66562e-08
1.53516e-05
-3.36362e-07
1.51533e-05
2.28505e-07
1.53199e-05
1.70767e-06
9.72256e-07
1.67748e-05
-1.8185e-06
8.37391e-08
1.86597e-05
-2.78983e-06
-1.94551e-07
1.59177e-05
1.10121e-06
-6.91832e-07
1.03752e-05
-8.99403e-06
-3.58144e-06
1.12907e-05
-9.1284e-07
-1.60251e-07
1.32883e-05
-1.96516e-07
4.28507e-07
1.32655e-05
-9.43964e-08
3.27842e-07
1.35477e-05
-2.06698e-07
-7.5465e-08
1.48526e-05
-3.72704e-07
7.79252e-08
-4.08044e-07
7.04603e-07
1.80444e-05
-3.65539e-07
5.2272e-07
1.68712e-05
-1.52602e-06
1.90493e-07
1.74871e-05
3.97006e-07
8.43131e-07
1.33186e-05
-3.3551e-06
-1.79406e-06
1.35702e-05
-6.62625e-07
-2.73283e-07
1.38991e-05
-3.2331e-07
4.29886e-07
1.33303e-05
-2.71121e-08
3.67828e-07
1.32594e-05
-2.83648e-07
5.35531e-07
1.49675e-05
-2.70219e-07
-1.16674e-07
-4.24158e-07
9.56578e-07
2.03109e-05
4.47491e-07
2.99357e-07
1.4217e-05
-1.96601e-06
3.39313e-07
1.4889e-05
-1.02821e-06
6.20032e-07
1.45082e-05
-1.39331e-06
-9.55989e-07
1.4695e-05
-3.02093e-07
1.21848e-07
1.4537e-05
-2.81435e-07
1.60927e-07
1.34235e-05
-2.71242e-07
2.07487e-07
1.33829e-05
-1.93405e-07
2.11294e-07
1.44432e-05
-3.17674e-08
5.22225e-07
-1.56922e-08
1.15882e-06
1.89517e-05
1.16491e-06
1.67169e-05
9.06076e-07
1.58903e-05
4.91483e-07
1.49981e-05
3.61127e-07
1.47426e-05
2.44581e-07
1.44356e-05
2.29916e-07
1.37935e-05
2.73134e-07
1.36879e-05
4.56801e-07
1.49435e-05
4.88298e-07
9.46085e-07
1.50245e-05
-8.14092e-07
-6.52308e-07
1.51841e-05
-9.60451e-07
2.31162e-08
1.38934e-05
-2.859e-06
1.01578e-07
1.24367e-05
-1.22885e-06
-1.49553e-06
1.34377e-05
-4.49434e-07
-6.32029e-07
1.42663e-05
-3.57332e-07
5.73209e-09
1.47261e-05
-2.72248e-07
1.09889e-07
1.44574e-05
4.61629e-07
-1.5136e-07
1.44458e-05
-2.62146e-08
1.07818e-07
-5.12367e-07
5.69842e-07
1.46112e-05
-7.7163e-07
-1.49496e-07
1.4287e-05
-2.73727e-07
-1.72064e-07
1.55088e-05
-3.16132e-06
-7.63141e-08
1.51174e-05
-2.00744e-06
-6.24058e-07
1.47e-05
-2.90229e-07
-1.5096e-08
1.46759e-05
-2.32727e-08
1.19939e-07
1.46886e-05
-6.77347e-08
1.50544e-07
1.49272e-05
4.06813e-07
3.51754e-07
1.5058e-05
5.07124e-09
-2.78739e-07
-4.11633e-07
9.19684e-07
1.48193e-05
-6.57836e-07
-2.29091e-08
1.51842e-05
-5.5502e-07
2.55687e-07
1.45897e-05
-2.04182e-06
9.50082e-08
1.41909e-05
-1.57161e-06
-9.92943e-07
1.44146e-05
-4.68975e-07
7.68118e-08
1.46523e-05
-1.65655e-07
6.56468e-08
1.47115e-05
-7.25145e-08
1.53072e-07
1.53548e-05
-9.89816e-08
7.37738e-08
1.55121e-05
-1.67512e-07
5.37553e-07
-3.66684e-07
1.20182e-06
1.43485e-05
2.41332e-07
1.56228e-05
-1.31471e-07
1.47948e-05
-1.2499e-07
1.41813e-05
-4.90185e-08
1.43847e-05
7.67836e-08
1.45671e-05
1.51963e-07
1.47352e-05
1.82949e-07
1.49653e-05
2.94888e-07
1.50144e-05
4.3801e-07
7.46687e-07
2.00253e-05
-2.93423e-06
1.62379e-05
-1.63042e-06
1.30378e-05
9.15123e-07
1.21665e-05
1.43997e-07
1.385e-05
-1.05278e-06
1.48991e-05
-1.93909e-07
1.52748e-05
-1.20376e-07
1.52789e-05
-9.58255e-08
1.53974e-05
-3.02226e-07
-2.82357e-08
1.56699e-05
-4.76369e-07
1.43595e-05
-4.91386e-07
1.60794e-05
-8.79942e-07
1.62618e-05
-6.61116e-07
1.5333e-05
-1.38354e-07
1.53136e-05
-5.38101e-08
1.53758e-05
-3.13447e-08
1.56611e-05
-2.86444e-08
1.55713e-05
-4.89871e-07
-3.25595e-07
1.44848e-05
1.5923e-07
1.58704e-05
-1.6202e-06
1.67862e-05
-1.69855e-06
1.52463e-05
-1.1323e-07
1.52517e-05
-6.6166e-08
1.53993e-05
-1.35023e-07
1.56061e-05
-8.43322e-08
1.57396e-05
-8.7718e-08
1.60666e-05
-2.78169e-07
-4.58178e-07
1.58339e-05
1.60866e-05
1.52214e-05
1.52324e-05
1.54005e-05
1.56332e-05
1.59808e-05
1.63557e-05
1.67442e-05
)
;

boundaryField
{
    inlet
    {
        type            fixedValue;
        value           nonuniform 0();
    }
    outlet
    {
        type            calculated;
        value           nonuniform 0();
    }
    bottom
    {
        type            fixedValue;
        value           uniform 0;
    }
    top
    {
        type            symmetryPlane;
        value           nonuniform List<scalar> 
40
(
-1.08516e-09
-1.16946e-09
-6.57797e-10
-1.18781e-09
-1.23055e-09
-6.58146e-10
-1.16934e-09
-6.25126e-09
-5.47967e-09
-1.22655e-09
-2.12831e-09
-1.43102e-09
-6.26927e-09
-1.28321e-09
-9.24465e-10
-7.46107e-10
-5.00754e-09
-7.35891e-10
-7.93211e-10
-1.27069e-09
-1.77752e-09
-7.32584e-10
-7.88958e-10
-1.26337e-09
-8.84013e-10
-7.03736e-10
-6.99149e-10
-8.98617e-10
-7.0083e-10
-7.15382e-10
-6.5829e-10
-8.79096e-10
-6.65367e-10
-1.29121e-09
-1.13613e-09
-7.8258e-10
-6.61537e-10
-1.11271e-09
-1.08492e-09
-7.49303e-10
)
;
    }
    side1
    {
        type            symmetryPlane;
        value           nonuniform 0();
    }
    side2
    {
        type            symmetryPlane;
        value           nonuniform 0();
    }
    procBoundary14to6
    {
        type            processor;
        value           nonuniform List<scalar> 
50
(
-9.16265e-07
2.18434e-08
7.89069e-07
-7.14422e-06
-1.96744e-06
-8.29041e-09
-4.1619e-08
-5.40432e-07
-4.32385e-07
-2.96351e-07
1.45877e-06
3.02625e-07
3.30557e-06
3.2841e-07
8.37216e-11
-2.11219e-08
-6.2813e-08
-8.22063e-08
-4.7764e-08
7.18606e-08
1.97156e-07
1.83597e-06
2.42258e-06
1.5886e-05
2.64539e-07
-1.49325e-06
-6.1593e-07
-8.87298e-08
1.87694e-07
3.87248e-07
4.11005e-07
5.83204e-07
3.35635e-06
5.99572e-07
-7.97401e-08
-4.8505e-08
3.03893e-08
-1.17038e-07
7.88648e-09
4.66833e-07
1.86481e-06
5.4422e-06
2.39199e-06
-7.61924e-07
-1.25776e-06
-8.47712e-07
-1.44516e-07
-5.89825e-08
2.92237e-07
-9.99223e-08
)
;
    }
    procBoundary14to13
    {
        type            processor;
        value           nonuniform List<scalar> 
20
(
-1.32385e-05
-1.45635e-05
-1.34501e-05
-1.45742e-05
-1.58999e-05
-1.83246e-05
-1.67899e-05
-1.61135e-05
-1.37813e-05
-1.94906e-05
-1.995e-05
-1.95507e-05
-1.38854e-05
-1.39814e-05
-1.46108e-05
-1.43737e-05
-1.96071e-05
-1.82761e-05
-1.51426e-05
-1.60017e-05
)
;
    }
    procBoundary14to15
    {
        type            processor;
        value           nonuniform List<scalar> 
20
(
1.37821e-05
1.30705e-05
1.35318e-05
1.34924e-05
1.47816e-05
1.46638e-05
1.43369e-05
1.51191e-05
1.53204e-05
1.55807e-05
1.39614e-05
1.50649e-05
1.46261e-05
1.49942e-05
1.54241e-05
1.52674e-05
1.60961e-05
1.67894e-05
1.74021e-05
1.72341e-05
)
;
    }
    procBoundary14to22
    {
        type            processor;
        value           nonuniform List<scalar> 
50
(
4.68833e-07
7.76445e-07
5.67397e-07
3.57537e-07
2.16847e-07
1.2463e-07
4.55864e-08
6.06208e-08
9.2847e-08
1.56124e-08
3.38461e-07
1.66237e-07
8.5562e-08
-3.87962e-08
5.63901e-08
1.27961e-07
-5.48601e-08
9.55291e-09
2.35993e-07
-1.77075e-08
7.52857e-07
-9.14458e-08
-2.98771e-07
-4.46886e-07
-1.77697e-07
-1.4773e-07
-2.38634e-07
-3.16064e-07
-6.79509e-08
-1.10919e-07
2.91006e-07
-7.91856e-07
-5.97326e-07
-5.47976e-07
-5.04591e-07
-2.70088e-07
-1.5037e-07
-1.67211e-07
-1.66291e-07
-4.20358e-07
5.69531e-07
-1.99816e-06
-9.569e-07
-1.72462e-07
-1.5627e-07
-2.14421e-07
-2.48164e-07
-1.6683e-07
-2.27869e-07
-2.00623e-07
)
;
    }
}


// ************************************************************************* //
