/*--------------------------------*- C++ -*----------------------------------*\
| =========                 |                                                 |
| \\      /  F ield         | OpenFOAM: The Open Source CFD Toolbox           |
|  \\    /   O peration     | Version:  2.4.0                                 |
|   \\  /    A nd           | Web:      www.OpenFOAM.org                      |
|    \\/     M anipulation  |                                                 |
\*---------------------------------------------------------------------------*/
FoamFile
{
    version     2.0;
    format      ascii;
    class       volVectorField;
    location    "0.01";
    object      Uc;
}
// * * * * * * * * * * * * * * * * * * * * * * * * * * * * * * * * * * * * * //

dimensions      [0 1 -1 0 0 0 0];

internalField   nonuniform List<vector> 
200
(
(1.50165e-55 6.062e-56 -7.06912e-57)
(8.4872e-58 3.42607e-58 -3.99502e-59)
(4.75083e-60 1.91772e-60 -2.23604e-61)
(2.63517e-62 1.06368e-62 -1.24015e-63)
(1.44908e-64 5.84893e-65 -6.81884e-66)
(7.90337e-67 3.18993e-67 -3.71865e-68)
(4.27714e-69 1.72626e-69 -2.01223e-70)
(2.29764e-71 9.27295e-72 -1.08083e-72)
(1.22561e-73 4.94623e-74 -5.76478e-75)
(6.49402e-76 2.6207e-76 -3.05417e-77)
(1.22175e-57 4.93299e-58 -5.7547e-59)
(7.09571e-60 2.86492e-60 -3.342e-61)
(4.07417e-62 1.64492e-62 -1.91875e-63)
(2.31495e-64 9.34619e-65 -1.09016e-65)
(1.30276e-66 5.25953e-67 -6.1345e-68)
(7.26639e-69 2.93351e-69 -3.42135e-70)
(4.01943e-71 1.62263e-71 -1.89237e-72)
(2.20611e-73 8.90576e-74 -1.03856e-74)
(1.20201e-75 4.8522e-76 -5.65816e-77)
(6.50398e-78 2.6254e-78 -3.0613e-79)
(8.23552e-60 3.3256e-60 -3.88045e-61)
(4.92468e-62 1.9886e-62 -2.32032e-63)
(2.90681e-64 1.17376e-64 -1.36951e-65)
(1.69548e-66 6.84613e-67 -7.98763e-68)
(9.78213e-69 3.94981e-69 -4.60823e-70)
(5.58747e-71 2.25605e-71 -2.63202e-72)
(3.16205e-73 1.27671e-73 -1.48941e-74)
(1.77411e-75 7.16299e-76 -8.35601e-77)
(9.87428e-78 3.98665e-78 -4.65044e-79)
(5.45459e-80 2.20219e-80 -2.56874e-81)
(4.77668e-62 1.92903e-62 -2.2512e-63)
(2.94132e-64 1.18781e-64 -1.38617e-65)
(1.78557e-66 7.2107e-67 -8.41467e-68)
(1.06987e-68 4.32039e-69 -5.04166e-70)
(6.3336e-71 2.55762e-71 -2.98453e-72)
(3.70805e-73 1.49735e-73 -1.74724e-74)
(2.1487e-75 8.67655e-76 -1.01242e-76)
(1.2333e-77 4.98004e-78 -5.81079e-79)
(7.01643e-80 2.83316e-80 -3.30566e-81)
(3.95887e-82 1.59851e-82 -1.86504e-83)
(1.90494e-57 7.68965e-58 -8.96592e-59)
(1.11114e-59 4.48518e-60 -5.22929e-61)
(6.41282e-62 2.58848e-62 -3.01772e-63)
(3.6641e-64 1.47893e-64 -1.72407e-65)
(2.07375e-66 8.36993e-67 -9.7566e-68)
(1.16314e-68 4.6944e-69 -5.47176e-70)
(6.46831e-71 2.6105e-71 -3.04256e-72)
(3.56796e-73 1.43991e-73 -1.67811e-74)
(1.95296e-75 7.8812e-76 -9.18431e-77)
(1.06112e-77 4.28203e-78 -4.98967e-79)
(1.59946e-59 6.45779e-60 -7.53255e-61)
(9.57721e-62 3.86667e-62 -4.51002e-63)
(5.66422e-64 2.2868e-64 -2.66717e-65)
(3.31231e-66 1.33723e-66 -1.55959e-67)
(1.91687e-68 7.7385e-69 -9.02482e-70)
(1.09863e-70 4.4351e-71 -5.17205e-72)
(6.24005e-73 2.51899e-73 -2.93741e-74)
(3.51435e-75 1.41864e-75 -1.65419e-76)
(1.96352e-77 7.9259e-78 -9.24139e-79)
(1.08879e-79 4.39485e-80 -5.12398e-81)
(1.11164e-61 4.48876e-62 -5.23707e-63)
(6.84694e-64 2.76472e-64 -3.22554e-65)
(4.15921e-66 1.67941e-66 -1.95928e-67)
(2.49466e-68 1.00728e-68 -1.1751e-69)
(1.47892e-70 5.97137e-71 -6.96604e-72)
(8.67376e-73 3.50208e-73 -4.08529e-74)
(5.03666e-75 2.03354e-75 -2.37209e-76)
(2.89771e-77 1.16991e-77 -1.36463e-78)
(1.65276e-79 6.67266e-80 -7.78291e-81)
(9.35065e-82 3.77502e-82 -4.40295e-83)
(6.64186e-64 2.68219e-64 -3.12981e-65)
(4.20895e-66 1.69968e-66 -1.98331e-67)
(2.6274e-68 1.061e-68 -1.23802e-69)
(1.61758e-70 6.53199e-71 -7.62171e-72)
(9.83236e-73 3.97037e-73 -4.63263e-74)
(5.90644e-75 2.38502e-75 -2.78277e-76)
(3.50953e-77 1.41712e-77 -1.65341e-78)
(2.06427e-79 8.33518e-80 -9.72472e-81)
(1.20276e-81 4.85646e-82 -5.66589e-83)
(6.94634e-84 2.80471e-84 -3.27207e-85)
(1.25245e-59 5.05552e-60 -5.89376e-61)
(7.53316e-62 3.04066e-62 -3.54461e-63)
(4.47911e-64 1.80787e-64 -2.10737e-65)
(2.63435e-66 1.06324e-66 -1.23931e-67)
(1.53346e-68 6.18895e-69 -7.21333e-70)
(8.83942e-71 3.5674e-71 -4.15759e-72)
(5.04827e-73 2.0373e-73 -2.37419e-74)
(2.85779e-75 1.15326e-75 -1.34387e-76)
(1.60427e-77 6.47376e-78 -7.5432e-79)
(8.9341e-80 3.60507e-80 -4.20032e-81)
(1.08435e-61 4.37785e-62 -5.10581e-63)
(6.68877e-64 2.7004e-64 -3.14931e-65)
(4.07184e-66 1.64384e-66 -1.91704e-67)
(2.44891e-68 9.88626e-69 -1.15288e-69)
(1.45645e-70 5.87954e-71 -6.85606e-72)
(8.57242e-73 3.46049e-73 -4.03504e-74)
(4.99677e-75 2.01703e-75 -2.35179e-76)
(2.88611e-77 1.16499e-77 -1.35827e-78)
(1.65272e-79 6.67108e-80 -7.77744e-81)
(9.38746e-82 3.78906e-82 -4.4172e-83)
(7.76423e-64 3.13506e-64 -3.65728e-65)
(4.92224e-66 1.98748e-66 -2.31849e-67)
(3.07509e-68 1.24162e-68 -1.44837e-69)
(1.89543e-70 7.65297e-71 -8.92708e-72)
(1.15393e-72 4.65899e-73 -5.43447e-74)
(6.9451e-75 2.80403e-75 -3.27064e-76)
(4.1359e-77 1.6698e-77 -1.9476e-78)
(2.43876e-79 9.84587e-80 -1.14834e-80)
(1.42481e-81 5.75216e-82 -6.70858e-83)
(8.2523e-84 3.33149e-84 -3.88526e-85)
(4.77527e-66 1.92834e-66 -2.24991e-67)
(3.11213e-68 1.25671e-68 -1.46627e-69)
(1.99642e-70 8.06168e-71 -9.40582e-72)
(1.26217e-72 5.09666e-73 -5.94634e-74)
(7.87304e-75 3.17909e-75 -3.709e-76)
(4.85019e-77 1.95845e-77 -2.28484e-78)
(2.95367e-79 1.19263e-79 -1.39136e-80)
(1.77952e-81 7.1852e-82 -8.38224e-83)
(1.06144e-83 4.28572e-84 -4.99956e-85)
(6.2722e-86 2.53244e-86 -2.95416e-87)
(5.66738e-62 2.28753e-62 -2.66644e-63)
(3.5119e-64 1.41746e-64 -1.65216e-65)
(2.14946e-66 8.67528e-67 -1.01111e-67)
(1.30027e-68 5.24774e-69 -6.11591e-70)
(7.77897e-71 3.13939e-71 -3.65853e-72)
(4.60518e-73 1.85846e-73 -2.16564e-74)
(2.69922e-75 1.08926e-75 -1.26921e-76)
(1.56716e-77 6.32397e-78 -7.36824e-79)
(9.01729e-80 3.63861e-80 -4.23916e-81)
(5.14407e-82 2.07563e-82 -2.41804e-83)
(5.055e-64 2.04077e-64 -2.37982e-65)
(3.2096e-66 1.29573e-66 -1.51095e-67)
(2.00954e-68 8.11241e-69 -9.4595e-70)
(1.24209e-70 5.01411e-71 -5.84647e-72)
(7.58639e-73 3.06242e-73 -3.57063e-74)
(4.58251e-75 1.84978e-75 -2.15665e-76)
(2.73948e-77 1.10579e-77 -1.28917e-78)
(1.62181e-79 6.54626e-80 -7.63148e-81)
(9.5135e-82 3.8399e-82 -4.47623e-83)
(5.53218e-84 2.23286e-84 -2.60274e-85)
(3.72587e-66 1.50439e-66 -1.75478e-67)
(2.42932e-68 9.80865e-69 -1.1441e-69)
(1.5597e-70 6.29734e-71 -7.34516e-72)
(9.87275e-73 3.98608e-73 -4.6492e-74)
(6.16821e-75 2.49033e-75 -2.90454e-76)
(3.80739e-77 1.53715e-77 -1.79276e-78)
(2.32391e-79 9.38207e-80 -1.09418e-80)
(1.40366e-81 5.66672e-82 -6.60855e-83)
(8.39556e-84 3.38929e-84 -3.95244e-85)
(4.97548e-86 2.00855e-86 -2.34219e-87)
(2.35701e-68 9.5177e-69 -1.11037e-69)
(1.57861e-70 6.37442e-71 -7.43657e-72)
(1.03995e-72 4.19924e-73 -4.89889e-74)
(6.74717e-75 2.72442e-75 -3.1783e-76)
(4.31624e-77 1.74282e-77 -2.03312e-78)
(2.7253e-79 1.10041e-79 -1.28368e-80)
(1.70001e-81 6.86411e-82 -8.00712e-83)
(1.04854e-83 4.23359e-84 -4.93845e-85)
(6.39939e-86 2.58377e-86 -3.01386e-87)
(3.86724e-88 1.56138e-88 -1.82122e-89)
(1.98828e-64 8.02491e-65 -9.29911e-66)
(1.26837e-66 5.1191e-67 -5.93063e-68)
(7.98533e-69 3.22275e-69 -3.73282e-70)
(4.96506e-71 2.00375e-71 -2.32037e-72)
(3.05089e-73 1.2312e-73 -1.42543e-74)
(1.85381e-75 7.48086e-76 -8.65899e-77)
(1.11451e-77 4.49734e-78 -5.20441e-79)
(6.63311e-80 2.67653e-80 -3.09662e-81)
(3.91001e-82 1.57767e-82 -1.82487e-83)
(2.28381e-84 9.21474e-85 -1.06561e-85)
(1.82563e-66 7.37002e-67 -8.54259e-68)
(1.19229e-68 4.81313e-69 -5.57781e-70)
(7.67253e-71 3.09723e-71 -3.58858e-72)
(4.87069e-73 1.96614e-73 -2.27758e-74)
(3.05332e-75 1.23249e-75 -1.42743e-76)
(1.89172e-77 7.63586e-78 -8.84172e-79)
(1.15923e-79 4.67906e-80 -5.41683e-81)
(7.03065e-82 2.83773e-82 -3.28446e-83)
(4.22262e-84 1.70429e-84 -1.97217e-85)
(2.51276e-86 1.01415e-86 -1.17329e-87)
(1.38415e-68 5.58856e-69 -6.47839e-70)
(9.27556e-71 3.74497e-71 -4.34048e-72)
(6.1162e-73 2.46935e-73 -2.86148e-74)
(3.97345e-75 1.60421e-75 -1.8586e-76)
(2.54621e-77 1.02797e-77 -1.19075e-78)
(1.61102e-79 6.50393e-80 -7.53242e-81)
(1.00734e-81 4.06668e-82 -4.70883e-83)
(6.22957e-84 2.51486e-84 -2.91137e-85)
(3.81287e-86 1.5392e-86 -1.78153e-87)
(2.31111e-88 9.32943e-89 -1.0796e-89)
(9.00023e-71 3.63422e-71 -4.21291e-72)
(6.19083e-73 2.49977e-73 -2.89733e-74)
(4.18569e-75 1.6901e-75 -1.95856e-76)
(2.78533e-77 1.12465e-77 -1.30305e-78)
(1.82638e-79 7.37436e-80 -8.54263e-81)
(1.18134e-81 4.76981e-82 -5.52445e-83)
(7.54477e-84 3.04624e-84 -3.52753e-85)
(4.76188e-86 1.9226e-86 -2.22594e-87)
(2.97241e-88 1.20008e-88 -1.38916e-89)
(1.83627e-90 7.41362e-91 -8.58e-92)
)
;

boundaryField
{
    inlet
    {
        type            calculated;
        value           nonuniform 0();
    }
    outlet
    {
        type            calculated;
        value           nonuniform 0();
    }
    bottom
    {
        type            calculated;
        value           uniform (0 0 0);
    }
    top
    {
        type            symmetryPlane;
    }
    side1
    {
        type            symmetryPlane;
    }
    side2
    {
        type            symmetryPlane;
    }
    procBoundary14to6
    {
        type            processor;
        value           nonuniform List<vector> 
50
(
(1.51013e-53 6.09426e-54 -7.10193e-55)
(8.31203e-56 3.35424e-56 -3.9085e-57)
(4.53008e-58 1.82799e-58 -2.12986e-59)
(2.44623e-60 9.87062e-61 -1.14996e-61)
(1.30961e-62 5.28405e-63 -6.15553e-64)
(6.9545e-65 2.8059e-65 -3.26836e-66)
(3.66511e-67 1.47867e-67 -1.72222e-68)
(1.91776e-69 7.73676e-70 -9.01024e-71)
(9.96711e-72 4.0208e-72 -4.68219e-73)
(5.1472e-74 2.07631e-74 -2.41762e-75)
(1.85576e-55 7.48862e-56 -8.72538e-57)
(1.05526e-57 4.25814e-58 -4.96095e-59)
(5.93541e-60 2.39492e-60 -2.78997e-61)
(3.30454e-62 1.33331e-62 -1.5531e-63)
(1.82231e-64 7.35229e-65 -8.56353e-66)
(9.95957e-67 4.01809e-67 -4.67963e-68)
(5.39758e-69 2.1775e-69 -2.53577e-70)
(2.90208e-71 1.17071e-71 -1.3632e-72)
(1.54871e-73 6.24721e-74 -7.27373e-75)
(8.20645e-76 3.31018e-76 -3.85373e-77)
(1.18296e-57 4.77337e-58 -5.56077e-59)
(6.94324e-60 2.80154e-60 -3.2634e-61)
(4.02701e-62 1.62479e-62 -1.89249e-63)
(2.30978e-64 9.31892e-65 -1.08534e-65)
(1.3111e-66 5.28943e-67 -6.15986e-68)
(7.36972e-69 2.97307e-69 -3.46201e-70)
(4.10461e-71 1.65579e-71 -1.92792e-72)
(2.26635e-73 9.14198e-74 -1.06435e-74)
(1.24117e-75 5.00637e-76 -5.82812e-77)
(6.74491e-78 2.72049e-78 -3.16674e-79)
(5.19463e-60 2.09595e-60 -2.44128e-61)
(3.14405e-62 1.26852e-62 -1.4774e-63)
(1.87868e-64 7.57951e-65 -8.82688e-66)
(1.1092e-66 4.47485e-67 -5.21084e-68)
(6.47572e-69 2.61237e-69 -3.04178e-70)
(3.74095e-71 1.50907e-71 -1.75697e-72)
(2.13975e-73 8.63117e-74 -1.00482e-74)
(1.21249e-75 4.89063e-76 -5.69302e-77)
(6.81013e-78 2.74676e-78 -3.19713e-79)
(3.79317e-80 1.52984e-80 -1.78052e-81)
(1.76992e-62 7.1409e-63 -8.26958e-64)
(1.10376e-64 4.45302e-65 -5.15561e-66)
(6.78967e-67 2.73911e-67 -3.17051e-68)
(4.12345e-69 1.66342e-69 -1.92493e-70)
(2.47433e-71 9.98112e-72 -1.15474e-72)
(1.4681e-73 5.92182e-74 -6.8494e-75)
(8.6186e-76 3.4763e-76 -4.01981e-77)
(5.0092e-78 2.02036e-78 -2.33565e-79)
(2.88396e-80 1.16313e-80 -1.34431e-81)
(1.64559e-82 6.63653e-83 -7.66832e-84)
)
;
    }
    procBoundary14to13
    {
        type            processor;
        value           nonuniform List<vector> 
20
(
(2.73863e-53 1.10558e-53 -1.28931e-54)
(2.1422e-55 8.64958e-56 -1.00905e-56)
(1.38829e-57 5.60613e-58 -6.5415e-59)
(7.75915e-60 3.13351e-60 -3.65684e-61)
(3.36479e-55 1.3583e-55 -1.58379e-56)
(2.71873e-57 1.0977e-57 -1.2804e-58)
(1.8182e-59 7.34191e-60 -8.56589e-61)
(1.04768e-61 4.23088e-62 -4.93693e-63)
(2.14451e-57 8.65652e-58 -1.00921e-58)
(1.78825e-59 7.21984e-60 -8.42045e-61)
(1.2331e-61 4.97909e-62 -5.80847e-63)
(7.31978e-64 2.95588e-64 -3.44877e-65)
(9.41532e-60 3.8004e-60 -4.43002e-61)
(8.09511e-62 3.26816e-62 -3.81113e-63)
(5.75046e-64 2.32187e-64 -2.70831e-65)
(3.51362e-66 1.41883e-66 -1.65523e-67)
(3.20745e-62 1.29459e-62 -1.50042e-63)
(2.84106e-64 1.14694e-64 -1.32964e-65)
(2.07748e-66 8.38799e-67 -9.72505e-68)
(1.30566e-68 5.27219e-69 -6.11261e-70)
)
;
    }
    procBoundary14to15
    {
        type            processor;
        value           nonuniform List<vector> 
20
(
(3.01638e-78 1.21726e-78 -1.41857e-79)
(3.19312e-80 1.28893e-80 -1.50294e-81)
(2.81348e-82 1.13589e-82 -1.32496e-83)
(2.12581e-84 8.58358e-85 -1.00148e-85)
(5.04729e-80 2.03674e-80 -2.37328e-81)
(5.47174e-82 2.20863e-82 -2.57507e-83)
(4.93505e-84 1.99236e-84 -2.32378e-85)
(3.81495e-86 1.54035e-86 -1.79703e-87)
(4.34987e-82 1.75523e-82 -2.045e-83)
(4.8272e-84 1.9484e-84 -2.27142e-85)
(4.45475e-86 1.7984e-86 -2.09735e-87)
(3.52185e-88 1.42197e-88 -1.65877e-89)
(2.5624e-84 1.03391e-84 -1.20446e-85)
(2.90937e-86 1.17426e-86 -1.36879e-87)
(2.74585e-88 1.10847e-88 -1.29261e-89)
(2.21909e-90 8.95943e-91 -1.04505e-91)
(1.16341e-86 4.69407e-87 -5.42736e-88)
(1.35093e-88 5.45234e-89 -6.30701e-90)
(1.30344e-90 5.26167e-91 -6.0879e-92)
(1.07639e-92 4.34575e-93 -5.02869e-94)
)
;
    }
    procBoundary14to22
    {
        type            processor;
        value           nonuniform List<vector> 
50
(
(2.25636e-64 9.11278e-65 -1.0636e-65)
(1.43085e-66 5.77873e-67 -6.74461e-68)
(8.9438e-69 3.61206e-69 -4.21575e-70)
(5.51453e-71 2.22708e-71 -2.59926e-72)
(3.35668e-73 1.3556e-73 -1.58212e-74)
(2.01879e-75 8.15281e-76 -9.51497e-77)
(1.20062e-77 4.8486e-78 -5.65859e-79)
(7.06626e-80 2.8536e-80 -3.33024e-81)
(4.1186e-82 1.6632e-82 -1.94096e-83)
(2.3788e-84 9.60612e-85 -1.12101e-85)
(3.22691e-66 1.30322e-66 -1.5209e-67)
(2.10431e-68 8.49836e-69 -9.91784e-70)
(1.35158e-70 5.45834e-71 -6.37e-72)
(8.55684e-73 3.45564e-73 -4.03276e-74)
(5.34443e-75 2.1583e-75 -2.51872e-76)
(3.29598e-77 1.33103e-77 -1.55328e-78)
(2.00877e-79 8.11201e-80 -9.46633e-81)
(1.21084e-81 4.88966e-82 -5.70588e-83)
(7.22394e-84 2.91715e-84 -3.40404e-85)
(4.26853e-86 1.72368e-86 -2.01132e-87)
(2.38466e-68 9.6304e-69 -1.12379e-69)
(1.59813e-70 6.45392e-71 -7.53119e-72)
(1.05411e-72 4.25691e-73 -4.96743e-74)
(6.84863e-75 2.76571e-75 -3.2273e-76)
(4.38684e-77 1.77153e-77 -2.06718e-78)
(2.77283e-79 1.11973e-79 -1.30658e-80)
(1.73101e-81 6.99015e-82 -8.15647e-83)
(1.06818e-83 4.31343e-84 -5.03304e-85)
(6.52053e-86 2.63303e-86 -3.07223e-87)
(3.94017e-88 1.59104e-88 -1.85639e-89)
(1.20897e-70 4.88224e-71 -5.6966e-72)
(8.32063e-73 3.36013e-73 -3.92061e-74)
(5.63235e-75 2.2745e-75 -2.65388e-76)
(3.75302e-77 1.51555e-77 -1.76833e-78)
(2.46394e-79 9.94983e-80 -1.16093e-80)
(1.59532e-81 6.44209e-82 -7.51641e-83)
(1.01959e-83 4.11717e-84 -4.8037e-85)
(6.43772e-86 2.59956e-86 -3.03298e-87)
(4.01897e-88 1.62284e-88 -1.89338e-89)
(2.48242e-90 1.00238e-90 -1.16945e-91)
(4.7388e-73 1.91364e-73 -2.21833e-74)
(3.34741e-75 1.35175e-75 -1.56672e-76)
(2.3241e-77 9.38509e-78 -1.08758e-78)
(1.58741e-79 6.41014e-80 -7.42708e-81)
(1.06764e-81 4.3112e-82 -4.9943e-83)
(7.07752e-84 2.85791e-84 -3.31017e-85)
(4.62875e-86 1.86907e-86 -2.16446e-87)
(2.9892e-88 1.20701e-88 -1.39751e-89)
(1.90768e-90 7.70292e-91 -8.91707e-92)
(1.20401e-92 4.86155e-93 -5.62679e-94)
)
;
    }
}


// ************************************************************************* //
