/*--------------------------------*- C++ -*----------------------------------*\
| =========                 |                                                 |
| \\      /  F ield         | OpenFOAM: The Open Source CFD Toolbox           |
|  \\    /   O peration     | Version:  2.4.0                                 |
|   \\  /    A nd           | Web:      www.OpenFOAM.org                      |
|    \\/     M anipulation  |                                                 |
\*---------------------------------------------------------------------------*/
FoamFile
{
    version     2.0;
    format      ascii;
    class       volSymmTensorField;
    location    "0.1";
    object      B;
}
// * * * * * * * * * * * * * * * * * * * * * * * * * * * * * * * * * * * * * //

dimensions      [0 2 -2 0 0 0 0];

internalField   nonuniform List<symmTensor> 
200
(
(3.07525e+15 4.55585e+13 -2.02652e+14 4.03926e+15 3.03474e+14 3.92812e+15)
(1.23963e+15 2.5238e+14 -3.07683e+14 1.90126e+15 -4.42988e+13 1.51735e+15)
(2.72047e+15 9.97837e+13 -6.97351e+14 3.86207e+15 -4.86504e+12 2.92687e+15)
(2.87256e+15 5.04948e+14 -9.93746e+14 4.43391e+15 -1.10892e+14 2.95386e+15)
(9.97378e+15 7.78977e+14 -8.67165e+14 1.06729e+16 -3.2042e+14 9.1069e+15)
(1.69924e+16 -4.52187e+15 2.75407e+15 4.45042e+14 1.12779e+16 1.11936e+16)
(2.9508e+16 6.67466e+15 -3.25391e+14 2.11151e+16 -6.55988e+15 2.1931e+16)
(2.0881e+16 -7.63307e+15 2.92316e+15 8.59991e+15 8.15266e+15 1.5195e+16)
(2.14579e+16 3.45416e+15 1.03539e+15 1.09364e+16 -7.77737e+15 2.17083e+16)
(8.12617e+15 4.21831e+14 -2.81836e+15 3.62654e+15 2.52169e+15 9.20566e+15)
(4.6545e+14 1.28983e+14 -1.26246e+14 4.86715e+14 7.06244e+13 4.23968e+14)
(2.64058e+15 1.42422e+14 -3.8164e+14 3.59818e+15 1.05988e+14 2.73408e+15)
(3.6958e+15 5.76518e+14 -8.07284e+14 3.68319e+15 5.67104e+13 2.99519e+15)
(8.09825e+15 7.74295e+14 -1.66187e+15 6.84516e+15 -1.05786e+14 5.79917e+15)
(5.91235e+16 -7.73441e+15 1.16247e+16 5.7688e+16 -3.72168e+14 5.50972e+16)
(3.08645e+16 2.06921e+15 7.22799e+14 3.04608e+16 -2.62158e+15 3.41513e+16)
(2.28717e+16 1.31082e+16 -2.28388e+16 -2.99032e+16 2.88495e+16 2.13003e+16)
(1.69723e+16 1.85574e+15 1.4728e+15 1.35323e+16 -7.74629e+15 2.10774e+16)
(3.15752e+15 -2.5294e+15 -3.38468e+15 -1.73039e+15 4.6182e+15 3.98001e+15)
(1.18688e+16 1.12108e+15 1.09807e+15 8.6952e+15 -4.23809e+15 1.51147e+16)
(2.61276e+15 7.42904e+14 -4.74499e+13 2.33804e+15 1.11584e+14 2.20604e+15)
(4.20818e+15 3.30574e+14 -2.84371e+14 3.81347e+15 2.28899e+14 3.78986e+15)
(4.09269e+15 -6.73008e+14 -1.54582e+15 4.93734e+15 3.77287e+14 3.51484e+15)
(1.42665e+16 -5.32018e+13 -1.73847e+15 1.06559e+16 3.90491e+14 8.9692e+15)
(5.31297e+15 2.06176e+14 -2.93156e+14 4.22445e+15 1.10787e+14 3.7709e+15)
(1.9036e+17 -1.06343e+16 1.66705e+16 2.00831e+17 -6.12281e+15 1.88977e+17)
(3.37213e+16 1.28723e+15 9.16462e+14 3.33604e+16 -2.08559e+15 3.70872e+16)
(9.40537e+15 1.93997e+16 -3.21739e+16 -1.16388e+16 1.14129e+16 2.68423e+16)
(1.07494e+16 -5.64672e+14 1.50417e+15 1.21225e+16 -7.53847e+15 2.07159e+16)
(3.26394e+15 -1.30353e+14 -7.09337e+15 5.30961e+15 1.29706e+15 7.26311e+15)
(4.88095e+14 7.88474e+13 -6.92699e+13 3.77737e+14 7.81504e+13 1.49988e+14)
(2.67914e+15 4.17777e+14 -4.27778e+14 1.5698e+15 -9.62973e+13 1.70161e+15)
(6.12673e+15 1.0728e+14 -4.35936e+14 5.25468e+15 2.23497e+14 5.15159e+15)
(4.29536e+15 -8.70681e+14 -1.10773e+15 6.00972e+15 -3.41444e+14 2.9441e+15)
(1.20447e+16 -1.51786e+15 -1.27486e+15 9.37375e+15 4.14571e+14 7.02951e+15)
(2.70145e+15 5.05473e+13 -4.54379e+14 1.68498e+15 5.18849e+13 3.80619e+14)
(2.12799e+17 -1.1456e+16 1.62432e+16 2.31135e+17 -1.00021e+16 2.13491e+17)
(1.01764e+16 6.02189e+14 5.78018e+14 1.08421e+16 -2.51717e+14 1.25296e+16)
(5.85138e+15 1.0902e+16 -2.3217e+16 1.76306e+16 -1.33297e+16 1.85341e+16)
(6.05782e+15 1.01579e+13 7.69288e+14 6.33298e+15 -4.22757e+15 1.03575e+16)
(6.04006e+15 1.76309e+14 1.88212e+13 7.19839e+15 -5.32691e+14 6.35259e+15)
(1.27502e+16 -3.3436e+14 -3.55443e+14 1.30559e+16 1.7912e+14 1.34015e+16)
(8.83148e+14 2.11242e+14 -1.33667e+14 1.20733e+15 -7.9933e+13 1.23652e+15)
(5.40217e+14 1.49214e+14 -1.66035e+13 1.00668e+15 -1.19926e+14 6.73143e+14)
(6.92778e+14 1.72578e+14 6.72756e+13 1.51401e+15 -2.34211e+14 1.05493e+15)
(3.00477e+15 7.44736e+13 -2.32029e+14 3.76053e+15 -6.52911e+14 3.16356e+15)
(3.17294e+15 1.22074e+14 -1.19977e+14 3.28833e+14 2.42544e+15 8.20225e+14)
(9.38082e+15 3.67274e+14 -4.90605e+14 7.66442e+15 -2.92684e+15 6.50509e+15)
(1.80489e+16 -5.16682e+15 2.15686e+15 1.00016e+16 5.11186e+15 8.05171e+15)
(2.19361e+16 2.90335e+15 1.13181e+15 9.24351e+15 -3.74331e+15 1.35548e+16)
(6.71766e+14 4.05028e+12 -1.56647e+14 3.24034e+14 -2.20403e+14 6.95787e+14)
(7.49841e+14 1.45723e+14 -5.67517e+13 9.22042e+14 -1.03171e+14 8.22793e+14)
(9.25975e+14 2.75557e+14 -5.5347e+12 1.52155e+15 -1.47e+14 1.39002e+15)
(1.78317e+15 3.83352e+14 -3.01143e+14 2.56826e+15 -2.91569e+14 2.46249e+15)
(3.42448e+15 3.06109e+14 -5.18145e+14 3.83391e+15 -3.49625e+14 4.27845e+15)
(6.33335e+15 -1.55199e+15 2.04892e+15 6.51618e+15 1.09769e+15 2.06626e+15)
(5.76507e+15 -1.73671e+13 -4.9011e+14 5.55702e+15 -1.4973e+15 5.12509e+15)
(1.13583e+16 1.72741e+15 -3.95582e+15 -1.65941e+15 9.28638e+15 -2.8248e+14)
(1.02348e+16 2.723e+14 4.88066e+14 8.55044e+15 -1.3549e+15 8.41791e+15)
(5.70549e+15 -3.82459e+15 7.17705e+14 5.2128e+15 3.56951e+15 3.09782e+14)
(3.09362e+14 1.7917e+13 -5.71206e+13 2.9273e+14 6.11118e+12 2.42829e+14)
(7.2594e+14 -2.76556e+13 -1.25763e+14 9.12613e+14 -5.45318e+13 7.13499e+14)
(1.50463e+15 1.33066e+14 -1.6235e+14 1.51649e+15 -5.69636e+13 1.49154e+15)
(1.07119e+15 1.4993e+14 -5.50404e+14 1.51618e+15 -1.70981e+14 2.06875e+15)
(2.06282e+15 1.54123e+14 -8.04578e+14 2.2967e+15 -1.42634e+14 3.19913e+15)
(4.75243e+15 1.94225e+14 -5.89061e+14 4.82828e+15 -8.45008e+13 5.29434e+15)
(2.49122e+16 -3.38542e+15 3.94773e+15 2.66233e+16 9.06452e+14 1.88196e+16)
(4.7223e+15 -3.57088e+14 -1.01312e+14 4.2614e+15 -1.10334e+15 4.24681e+15)
(1.05644e+16 1.6746e+15 -6.14002e+15 2.38849e+15 6.36265e+15 -1.22557e+15)
(6.3101e+15 -3.39413e+14 1.29614e+14 5.33368e+15 -1.20676e+15 5.62994e+15)
(7.19374e+14 1.56072e+14 -7.0574e+12 6.24837e+14 -3.04901e+13 6.34395e+14)
(2.04817e+14 1.04295e+14 -1.20445e+14 1.47874e+14 -2.57371e+13 1.23965e+14)
(2.15364e+15 -5.4398e+13 -1.95742e+14 2.17569e+15 -7.90953e+13 2.12962e+15)
(1.73701e+15 -6.50318e+13 -2.09697e+14 1.64274e+15 -5.94121e+13 1.7295e+15)
(3.43981e+11 4.03347e+14 -5.5577e+14 4.90166e+14 -1.0102e+14 1.36144e+15)
(3.70423e+15 -9.06647e+13 -8.88203e+14 2.72763e+15 1.51364e+14 4.42623e+15)
(4.93576e+15 -1.45758e+14 -8.98234e+14 4.71477e+15 -2.55384e+14 5.65142e+15)
(2.4569e+16 -4.6323e+15 3.53691e+15 2.78654e+16 -4.18997e+14 1.92727e+16)
(1.96702e+15 -7.05008e+14 3.38486e+13 9.48572e+14 -5.51452e+14 2.03096e+15)
(6.76735e+15 3.86758e+14 -4.01503e+15 6.05993e+15 9.72691e+14 -2.47452e+14)
(7.76225e+15 6.8662e+15 6.04788e+15 8.58317e+15 2.18419e+14 6.45757e+15)
(2.33179e+16 1.07608e+15 8.50366e+14 2.99621e+16 -1.80352e+15 2.59956e+16)
(2.20911e+16 -8.17941e+14 -8.56524e+14 2.21689e+16 2.77698e+13 2.22777e+16)
(2.88327e+15 1.94961e+14 -4.6076e+14 2.46893e+15 6.18869e+13 2.28787e+15)
(7.36104e+14 -1.06178e+14 2.47494e+14 1.09307e+15 -2.95933e+14 3.98581e+14)
(1.34586e+15 3.9731e+14 2.38726e+14 1.31046e+15 -4.91113e+13 1.12466e+15)
(3.01947e+15 -1.45812e+15 1.68989e+14 4.23471e+15 -1.21937e+14 3.92023e+15)
(1.07776e+15 8.52004e+14 -5.90819e+13 -4.52946e+14 3.12668e+14 3.22903e+14)
(6.03175e+15 1.6778e+15 8.20492e+14 4.20703e+15 -4.18929e+14 3.87763e+15)
(8.21989e+15 -2.28554e+15 5.95796e+14 6.69872e+15 8.02985e+14 6.24778e+15)
(2.46624e+15 2.44175e+13 -8.94236e+13 3.30299e+15 4.01518e+13 2.68149e+15)
(6.08969e+15 -8.23785e+14 -4.75305e+14 2.42328e+15 -1.39581e+15 5.97929e+15)
(8.02914e+14 8.95311e+13 -5.21034e+13 9.06884e+14 -8.31481e+13 8.39957e+14)
(2.61476e+15 4.69158e+14 3.337e+13 3.53408e+15 -2.46901e+14 4.2187e+15)
(-1.56093e+13 2.66231e+14 -3.51642e+13 2.38229e+14 1.35528e+14 2.22896e+14)
(1.78931e+15 -2.83731e+14 -1.96053e+14 2.41546e+15 -2.35661e+14 2.51741e+15)
(5.44489e+14 2.48582e+13 1.03179e+14 3.34625e+14 1.06613e+14 -1.63858e+14)
(4.58444e+15 -9.13367e+14 1.06273e+13 6.29536e+15 -3.13726e+14 5.42487e+15)
(1.9923e+15 -1.50094e+15 -6.10426e+13 -2.46721e+14 7.39535e+14 3.01206e+14)
(5.9574e+15 8.36962e+14 5.20256e+14 3.81561e+15 -4.66047e+14 4.13401e+15)
(2.47004e+14 9.89145e+12 -9.01447e+13 2.86634e+13 -1.68417e+14 1.34271e+14)
(1.22052e+14 3.11678e+13 -6.08896e+13 2.29671e+14 3.93949e+12 2.20772e+14)
(8.98788e+15 -3.31571e+14 1.71265e+14 9.64478e+15 -5.3824e+14 1.06554e+16)
(1.42087e+12 1.8852e+13 -5.80087e+13 -3.05064e+14 -3.22582e+13 8.51272e+12)
(1.39736e+15 8.15895e+13 -2.42985e+14 1.62329e+15 -1.39527e+14 1.89658e+15)
(3.24347e+15 2.87471e+14 -1.66297e+14 3.85062e+15 -2.03133e+14 3.99535e+15)
(6.91284e+14 -1.72274e+14 -5.51741e+13 6.14363e+14 -1.84965e+14 1.23575e+15)
(2.23467e+15 -4.82648e+14 1.90522e+14 1.37091e+15 3.08564e+14 6.26651e+14)
(3.23341e+15 -3.77937e+14 1.25061e+14 3.54044e+15 -2.40111e+14 3.50859e+15)
(1.07405e+15 -8.6113e+14 -1.61302e+14 1.06304e+15 5.38682e+14 -2.76591e+14)
(4.5005e+13 1.49453e+12 -7.4646e+13 2.60014e+13 -7.46119e+12 1.07568e+14)
(8.05057e+14 -2.07982e+14 -9.6607e+13 9.71538e+14 -4.21079e+13 9.16252e+14)
(7.86298e+14 -2.69003e+14 -2.44695e+14 6.4998e+14 1.37224e+14 6.62857e+14)
(1.17407e+15 7.59619e+13 -1.14333e+14 1.1861e+15 -1.35177e+14 1.5986e+15)
(3.82199e+15 2.07432e+15 9.45994e+14 3.12041e+15 -1.1497e+15 5.86916e+15)
(4.08412e+14 -2.44484e+14 -8.19028e+13 5.42542e+14 -7.45355e+12 8.1617e+14)
(4.09012e+16 -2.75493e+14 -2.98275e+14 4.35449e+16 2.13385e+14 4.18685e+16)
(8.56037e+14 -4.01835e+13 1.4831e+13 8.50073e+14 -1.85933e+14 1.52996e+15)
(3.11133e+15 -2.28118e+14 4.2185e+13 2.00082e+15 2.43929e+14 1.64309e+15)
(1.8822e+15 -5.99235e+13 1.71036e+12 1.65647e+15 -1.01264e+14 2.15335e+15)
(3.9261e+15 1.90768e+14 -4.52213e+14 5.16296e+15 -4.43717e+13 4.04875e+15)
(1.39822e+15 3.15181e+14 -7.83063e+14 1.3888e+15 -1.49273e+15 -1.42316e+15)
(5.08834e+15 3.67231e+14 -4.43098e+14 6.33084e+15 -2.18786e+13 5.34004e+15)
(7.25797e+15 -2.26911e+15 -1.04191e+15 5.86961e+15 6.27247e+14 7.60002e+15)
(1.47591e+15 -2.98098e+14 2.66296e+14 1.02836e+15 2.21449e+13 1.30071e+15)
(4.39301e+15 7.61958e+14 7.78109e+14 4.49151e+15 2.19579e+14 4.70568e+15)
(6.02057e+14 9.40381e+13 2.1931e+13 6.51638e+14 -7.72121e+13 5.52582e+14)
(1.0233e+15 -2.07955e+14 -6.57159e+13 1.21064e+15 9.07509e+13 1.15835e+15)
(1.04208e+14 8.36621e+13 -1.03801e+13 -2.51684e+14 -1.09184e+14 7.19258e+13)
(1.11142e+15 4.30831e+14 2.69884e+14 6.81228e+14 -6.37173e+13 3.78321e+14)
(-6.10487e+14 5.94161e+13 1.01108e+15 -4.74087e+14 3.12364e+14 -1.76581e+14)
(2.82802e+15 2.75623e+14 -2.21481e+14 3.56352e+15 -1.10903e+14 3.01443e+15)
(9.0081e+15 -3.2753e+15 1.64851e+15 3.95242e+14 2.14096e+15 8.54243e+15)
(7.55384e+14 4.46512e+14 -3.65997e+14 2.31468e+15 -4.06387e+11 1.52175e+15)
(9.67485e+15 5.66161e+14 -8.76712e+14 1.18376e+16 -9.38306e+13 1.23114e+16)
(2.48313e+15 -1.62336e+14 1.3056e+14 2.13192e+15 -2.15378e+13 2.35224e+15)
(7.69622e+14 -3.5327e+13 -5.74981e+13 4.78946e+14 -2.50524e+13 5.03936e+14)
(1.22804e+13 -5.92447e+12 1.18294e+13 -1.39272e+13 -8.7647e+12 8.55735e+12)
(6.86205e+14 -8.21319e+13 6.89915e+13 8.06011e+14 1.46764e+14 7.22602e+14)
(1.72714e+14 -3.34573e+14 5.52736e+13 -2.52513e+14 2.26174e+14 -6.19565e+13)
(1.81103e+14 2.78596e+14 -1.51796e+14 5.47127e+14 1.27082e+14 5.65463e+14)
(2.56738e+16 -4.88313e+15 7.24073e+15 2.47758e+16 -1.68461e+15 2.76758e+16)
(-6.95212e+13 7.06047e+14 -7.17858e+14 2.23367e+15 -1.10474e+14 1.43885e+15)
(1.94052e+16 8.19538e+14 -2.63468e+15 2.41599e+16 -1.51557e+15 2.5672e+16)
(1.06829e+16 -1.35147e+15 8.99653e+14 8.22164e+15 4.50034e+14 1.01906e+16)
(3.72777e+15 3.19688e+14 -1.81157e+14 3.40751e+15 8.76692e+12 3.44421e+15)
(8.70683e+14 1.16309e+14 -4.50414e+13 8.59043e+14 -2.54774e+13 9.43336e+14)
(5.78272e+14 -5.21772e+13 9.72806e+13 6.8536e+14 1.63118e+13 7.19293e+14)
(-7.18213e+12 -2.12093e+13 5.34555e+12 -1.12511e+13 -3.0541e+12 -1.3608e+13)
(3.30782e+14 1.17807e+13 3.86045e+13 3.68141e+14 3.52651e+13 3.56916e+14)
(2.08567e+15 -4.57272e+14 -1.56889e+13 1.87123e+15 1.11883e+14 1.90468e+15)
(3.98677e+14 1.52598e+15 -8.52864e+14 1.66425e+15 3.76307e+14 2.16e+15)
(9.46645e+15 -1.28001e+15 7.13475e+14 1.34086e+16 -1.40756e+15 1.3193e+16)
(1.35716e+16 -2.09957e+15 1.21716e+15 1.00379e+16 1.02463e+15 1.30396e+16)
(4.82506e+15 3.08481e+14 -3.57758e+14 4.43479e+15 -1.70293e+14 4.04403e+15)
(6.52886e+15 1.00548e+14 -2.42124e+14 7.15316e+15 -8.67483e+13 6.86564e+15)
(5.70655e+14 1.68699e+14 6.4802e+13 8.53134e+14 1.08997e+14 9.3489e+14)
(5.45261e+14 3.52706e+13 5.74994e+13 4.61837e+14 1.52824e+13 5.47475e+14)
(3.64286e+14 -7.64478e+13 1.31921e+14 4.99044e+14 1.04887e+14 6.05482e+14)
(8.14403e+13 -5.06769e+11 1.8537e+12 4.21803e+13 5.70696e+12 6.10677e+13)
(3.1756e+15 -1.15035e+15 1.17046e+14 7.01878e+15 -3.68735e+14 5.41935e+15)
(1.36719e+15 9.85485e+14 -1.46901e+14 1.52497e+15 -1.07087e+14 1.21812e+15)
(7.4591e+15 -3.27959e+15 -1.93785e+14 1.4209e+15 7.84509e+14 5.09853e+15)
(6.54874e+15 -1.84458e+14 -6.78125e+13 5.16723e+15 -4.85815e+14 6.00099e+15)
(1.62143e+16 1.44804e+15 -9.69327e+13 1.3991e+16 1.1209e+15 1.59958e+16)
(6.12837e+14 2.1322e+14 -2.22979e+13 4.19287e+14 -2.93288e+13 6.49198e+14)
(1.13198e+15 -2.64205e+14 -4.05384e+13 1.64852e+15 -3.01002e+12 1.54903e+15)
(3.3088e+14 -3.19926e+12 7.34636e+13 4.635e+14 -5.4601e+13 5.16666e+14)
(3.64339e+14 -4.33386e+13 7.8988e+13 5.36309e+14 8.35636e+13 6.07919e+14)
(2.20163e+15 1.12995e+14 9.20428e+13 1.9846e+15 -1.10515e+14 2.04168e+15)
(2.03462e+15 1.94172e+14 3.16345e+14 4.79848e+15 5.21113e+14 3.80955e+15)
(9.18823e+15 -7.53415e+15 2.49774e+15 9.35208e+15 1.47127e+15 9.92286e+15)
(7.1576e+15 5.9374e+14 -4.45636e+14 6.03213e+15 -1.32108e+15 5.14218e+15)
(1.03455e+16 -1.63002e+14 3.90646e+15 4.98221e+15 6.57372e+15 6.25508e+15)
(5.75758e+15 -6.01913e+14 1.61991e+14 5.28957e+15 -4.07476e+14 4.43073e+15)
(1.70839e+16 1.09925e+15 -1.33569e+15 1.75156e+16 -2.44743e+14 1.74328e+16)
(1.54323e+15 2.06763e+14 2.60728e+13 1.86373e+15 2.80688e+13 1.93901e+15)
(1.24239e+15 -1.84324e+14 2.15815e+14 1.4609e+15 7.45771e+13 1.53146e+15)
(3.41448e+13 -6.7048e+12 7.36239e+12 1.03709e+14 -1.92699e+13 1.14919e+14)
(3.47531e+14 2.5082e+11 3.15674e+13 4.52587e+14 5.4408e+13 4.83757e+14)
(2.97762e+15 -3.55969e+15 3.92156e+15 -6.83264e+14 9.74638e+14 4.14629e+15)
(9.74023e+14 1.48791e+14 -1.27994e+14 1.5135e+15 -4.62689e+14 1.17965e+14)
(1.18434e+16 -7.95619e+15 8.58539e+15 1.54637e+16 3.89556e+15 5.79216e+15)
(6.16888e+15 -3.47011e+14 8.26626e+14 5.6224e+15 -5.88059e+14 4.38268e+15)
(3.97033e+16 2.91272e+15 -2.95855e+15 4.19142e+16 -1.5314e+15 4.05689e+16)
(1.79629e+15 -6.92453e+13 -1.6225e+14 2.08606e+15 1.35569e+14 2.0588e+15)
(3.01687e+15 -3.01849e+14 1.95943e+14 2.88488e+15 1.10212e+14 3.10617e+15)
(5.60699e+13 -3.04955e+13 -2.82498e+12 1.05027e+14 -5.80091e+12 1.52473e+14)
(2.56988e+14 -4.60706e+13 4.64918e+13 3.12584e+14 4.32719e+13 4.12819e+14)
(2.14888e+12 1.25686e+11 2.8236e+12 7.22933e+12 -1.30246e+13 2.73154e+13)
(2.75542e+14 2.07102e+14 8.69203e+13 2.00366e+14 5.82265e+13 3.66876e+14)
(7.183e+15 -4.46815e+15 3.08226e+15 1.1106e+16 -1.63723e+15 8.6356e+15)
(-4.29383e+14 4.82363e+13 7.2982e+14 3.11302e+14 -3.77756e+14 3.41188e+13)
(3.432e+16 2.63251e+13 -1.8708e+15 3.72128e+16 -1.16292e+15 3.47925e+16)
(3.60676e+15 -8.88201e+14 -3.67073e+14 4.06484e+15 -1.44748e+14 4.6543e+15)
(3.65849e+15 2.50909e+14 4.67729e+14 3.64411e+15 8.72054e+13 3.89947e+15)
(1.47921e+15 6.36121e+13 -7.95367e+12 1.3531e+15 3.62775e+13 1.47904e+15)
(2.248e+14 -8.80921e+13 1.74631e+13 2.82023e+14 3.00771e+13 4.57743e+14)
(6.10947e+13 -3.43248e+12 -4.46224e+12 2.84778e+13 -3.82824e+12 9.46052e+13)
(1.35528e+14 -7.42498e+12 1.29611e+13 1.41173e+14 2.93668e+13 2.51444e+14)
)
;

boundaryField
{
    inlet
    {
        type            calculated;
        value           nonuniform 0();
    }
    outlet
    {
        type            calculated;
        value           nonuniform 0();
    }
    bottom
    {
        type            calculated;
        value           nonuniform List<symmTensor> 
40
(
(-2.11639e+06 183927 -1.4686e+06 1.77545e+06 882053 -708068)
(-270470 1.06251e+06 -1.47864e+06 -95301.3 1.55406e+06 -185313)
(824034 2.17289e+06 -493402 20522.9 535689 -146790)
(650139 314718 -239788 209649 1.25963e+06 -798742)
(-1.47818e+06 1.10154e+06 -2.58753e+06 1.40957e+06 -215800 -245142)
(-1.5392e+06 617231 -2.24845e+06 2.61088e+06 1.78288e+06 -1.61013e+06)
(1.66996e+06 1.83519e+06 -1.5468e+06 -521241 3.48563e+06 145417)
(1.90611e+06 1.13797e+06 -1.09266e+06 -1.11559e+06 240114 -785995)
(-1.42326e+06 317692 -3.1278e+06 2.21138e+06 1.32467e+06 -1.0522e+06)
(725337 1.61639e+06 -3.33439e+06 689966 742719 -2.44135e+06)
(-397306 -1.36469e+06 -2.6315e+06 1.31543e+06 2.43277e+06 -3.14722e+06)
(3.14353e+06 495251 -1.09116e+06 -882252 2.75863e+06 -2.60232e+06)
(-1.12048e+06 1.07037e+06 -3.79485e+06 2.18921e+06 -266438 -2.09167e+06)
(2.40373e+06 1.50143e+06 -3.18426e+06 -26122.3 1.50987e+06 -4.83428e+06)
(4.75069e+06 -75663.1 -2.65735e+06 -384243 170368 -6.81449e+06)
(-320749 -1.5276e+06 -413531 2.68707e+06 818610 -5.22959e+06)
(1.02677e+06 1.87177e+06 -3.40512e+06 2.70671e+06 521220 -2.19078e+06)
(956449 -7.69556e+06 1.18932e+07 -471858 443775 -8.17025e+06)
(3.74024e+06 972028 1.5809e+06 -1.39165e+06 1.23737e+06 -8.30325e+06)
(3.94651e+06 -2.16207e+06 -1.10572e+06 141971 264358 -7.61984e+06)
(2.3046e+06 -2.58033e+06 527694 -7.13787e+06 7.17534e+06 -2.88072e+06)
(283796 3.08553e+06 1.68259e+06 -318306 -1.18277e+07 2.62547e+07)
(-2.70786e+06 -1.10382e+07 1.90465e+07 8.16118e+06 -6.14227e+06 -1.06663e+07)
(2.15989e+06 132104 2.45448e+06 -496634 -160253 -9.20841e+06)
(3.70864e+06 2.57192e+06 -358441 474644 -4.52951e+06 5.87268e+06)
(1.19904e+06 2.70973e+06 -4.32582e+06 -9.71063e+06 9.11969e+06 -3.22647e+06)
(-1.5616e+06 3.17895e+06 3.98708e+06 -2.45288e+06 -1.65294e+07 3.49562e+07)
(-5.23001e+06 -1.09049e+07 1.71374e+07 1.22234e+07 -9.6918e+06 -1.16338e+07)
(2.92662e+06 -4.05725e+06 2.04737e+06 -3.6012e+06 7.12245e+06 345974)
(1.25288e+06 717924 1.5569e+06 -77948.6 -9.34614e+06 1.63528e+07)
(-937425 3.55086e+06 -4.95719e+06 -4.78928e+06 6.36224e+06 -4.27173e+06)
(-3.02958e+06 2.01492e+06 3.14927e+06 -802137 -1.17913e+07 2.90457e+07)
(2.46481e+06 2.00975e+06 1.408e+06 -3.65698e+06 -1.06806e+07 1.19406e+07)
(285012 -1.13254e+06 -919642 -1.90354e+06 5.36832e+06 -470430)
(-1.05196e+06 -274891 1.83115e+06 -383515 -1.16315e+07 2.06465e+07)
(-1.98124e+06 2.43866e+06 -4.86776e+06 653658 853030 -5.73879e+06)
(1.04379e+06 387020 -1.53874e+06 -3.08452e+06 8.23282e+06 3.41592e+06)
(552594 928933 1.57421e+06 -2.07708e+06 -1.12136e+07 1.30086e+07)
(-1.16706e+06 -70130.2 -3.73172e+06 -66480.1 4.52034e+06 -1.8022e+06)
(-896848 8114.49 810786 -677039 -1.10074e+07 1.70206e+07)
)
;
    }
    top
    {
        type            symmetryPlane;
    }
    side1
    {
        type            symmetryPlane;
    }
    side2
    {
        type            symmetryPlane;
    }
    procBoundary5to4
    {
        type            processor;
        value           nonuniform List<symmTensor> 
20
(
(-1.01134e+14 1.90057e+13 -8.09543e+13 7.0557e+13 -2.75374e+13 -3.87631e+13)
(3.36076e+13 2.96702e+14 -1.26568e+14 1.83476e+14 1.52282e+13 -1.24746e+14)
(6.58662e+13 3.25905e+13 -1.41525e+13 2.72771e+13 4.50637e+13 -1.09703e+14)
(2.10644e+14 1.7952e+14 -1.31803e+14 4.10158e+13 3.96194e+13 -2.73443e+14)
(-8.1092e+14 2.32377e+15 1.80944e+15 -3.31355e+14 4.28925e+14 4.72961e+14)
(4.32249e+12 8.1192e+12 -4.99062e+13 7.64051e+13 -2.0995e+13 -2.56108e+13)
(1.23255e+14 1.34469e+14 -3.60183e+13 -6.47178e+13 -4.97412e+13 -2.77915e+13)
(9.06251e+13 2.91298e+14 -1.13575e+14 -1.58505e+13 -1.73093e+13 -1.21121e+12)
(8.41016e+14 -1.56056e+15 -1.69833e+15 2.95222e+15 -1.28085e+15 1.78743e+14)
(-1.93721e+14 7.97764e+14 4.0519e+14 -5.83055e+14 -1.81442e+14 -6.5438e+13)
(2.55707e+12 6.7735e+13 -1.16405e+14 6.66144e+13 2.9232e+13 1.70392e+12)
(-4.26539e+13 1.05896e+14 3.09033e+13 -6.09494e+13 6.63051e+13 7.59618e+13)
(-4.82347e+14 9.33598e+13 2.69086e+13 2.71006e+14 -4.88974e+12 -2.01427e+14)
(-2.96284e+14 3.15967e+14 -1.91757e+14 4.64058e+14 3.92175e+13 3.8786e+13)
(5.56232e+14 -2.01154e+14 -2.48828e+13 -1.91021e+14 3.09698e+14 8.05033e+13)
(-2.8558e+14 1.23545e+14 -7.99042e+13 2.0822e+13 1.35138e+14 8.90873e+13)
(-1.02128e+15 -1.79535e+14 -4.46934e+13 1.22856e+15 2.64649e+14 1.01975e+14)
(-8.41299e+14 1.46089e+15 2.97163e+13 -4.93768e+14 -1.60006e+14 6.44324e+14)
(-1.31308e+14 2.30022e+14 -3.37116e+13 6.67556e+13 1.26232e+14 1.22456e+14)
(5.68535e+14 -8.28633e+12 1.2351e+14 -2.43192e+14 2.20138e+14 2.20548e+14)
)
;
    }
    procBoundary5to6
    {
        type            processor;
        value           nonuniform List<symmTensor> 
20
(
(3.14531e+14 -1.19439e+15 1.03039e+14 -1.70276e+15 -1.87069e+15 2.04535e+15)
(-4.7482e+14 1.29627e+15 -2.88608e+15 -1.82869e+15 8.22808e+14 1.70835e+15)
(2.05011e+14 -2.03323e+14 5.36839e+14 -1.01731e+15 -3.0334e+15 1.91447e+15)
(3.62007e+14 1.14194e+14 -4.16505e+15 -2.98372e+15 2.87155e+15 -1.97051e+14)
(1.66931e+15 1.93938e+14 -5.13708e+14 -1.42665e+15 9.00414e+14 -2.57477e+14)
(6.6365e+14 2.22122e+14 1.46393e+14 -1.65232e+15 -1.84393e+15 2.3673e+14)
(-5.40336e+14 -9.65184e+14 -6.52275e+14 1.49074e+15 1.18051e+15 -1.80952e+15)
(3.06733e+14 -2.38768e+14 1.54457e+13 -2.30721e+14 -6.30737e+14 6.48568e+13)
(1.69832e+15 3.04078e+14 -8.47908e+13 -9.19672e+14 -2.65943e+14 -3.63692e+14)
(-8.52806e+13 -1.32442e+15 5.39469e+14 7.45203e+14 5.60918e+14 -6.97454e+14)
(3.22885e+14 2.01553e+14 1.5227e+14 -3.05235e+14 -3.90899e+14 1.79076e+14)
(1.79107e+14 -3.44153e+14 7.12281e+13 -4.8132e+13 1.59615e+14 -2.57889e+14)
(1.78583e+14 -7.31682e+14 2.85115e+14 -1.05549e+14 3.99963e+14 -2.10316e+14)
(4.09367e+14 1.61818e+14 2.89788e+14 -8.85823e+13 2.464e+13 -2.09362e+14)
(3.04031e+13 -1.9272e+14 8.62118e+13 8.59002e+13 5.55991e+13 -1.87372e+14)
(-2.56337e+13 4.77264e+13 3.2681e+13 1.8892e+13 3.75438e+13 3.70547e+13)
(-8.00339e+14 1.54631e+14 -5.66712e+14 2.13343e+14 4.29047e+13 -2.76685e+12)
(-1.08711e+13 -1.56576e+14 -5.43571e+11 -5.04985e+13 -4.35563e+13 -9.59693e+12)
(3.97291e+12 6.24237e+12 3.49007e+13 -6.35716e+12 4.26419e+13 6.4971e+13)
(5.54279e+12 -1.72817e+12 1.47577e+12 -3.58163e+13 -4.79523e+12 1.51042e+13)
)
;
    }
    procBoundary5to13
    {
        type            processor;
        value           nonuniform List<symmTensor> 
50
(
(1.04707e+14 1.2587e+14 -2.53419e+14 4.81742e+13 -6.48457e+13 -1.32211e+14)
(2.40864e+13 1.07589e+14 -2.76439e+14 1.7435e+14 -1.15474e+14 -3.78671e+14)
(7.79939e+14 4.70416e+14 -1.24022e+15 1.22296e+14 -9.14883e+14 -5.48085e+14)
(9.70323e+14 1.82524e+14 -3.64709e+14 3.91896e+14 -2.64578e+13 -1.06151e+15)
(8.28607e+13 -9.46764e+14 2.77946e+14 9.11483e+14 -1.40772e+15 -1.6888e+15)
(4.69701e+14 7.12227e+12 -1.01017e+15 1.77283e+15 -1.32487e+15 -1.29157e+15)
(-1.31388e+15 7.42515e+14 4.45054e+15 4.38248e+15 6.94061e+15 -3.4e+15)
(-6.49155e+15 -7.72898e+15 8.38377e+15 1.21571e+16 -9.92156e+15 2.00297e+14)
(-2.29879e+15 -9.27263e+14 -7.98316e+15 -5.81508e+14 3.64441e+15 8.43403e+14)
(1.48782e+14 -8.64723e+15 1.03501e+16 1.37718e+16 -1.66163e+16 -6.30498e+15)
(-2.38705e+13 7.54919e+13 -1.12542e+14 1.20094e+12 -4.01251e+13 -5.37416e+13)
(2.53997e+13 2.07284e+14 -2.3818e+14 4.92991e+13 -1.93286e+14 8.15855e+13)
(-1.4025e+14 3.04518e+14 -1.55184e+14 -2.67561e+14 -3.21427e+14 9.39891e+13)
(-4.38414e+14 -4.35432e+14 -1.09245e+15 2.19209e+14 -1.13736e+15 9.98603e+14)
(-7.71642e+14 -7.78084e+14 -1.09783e+15 -4.03678e+14 -5.17661e+14 3.30508e+14)
(-9.12713e+14 -2.55576e+14 -1.16396e+15 -1.1899e+15 -1.2584e+15 1.37374e+15)
(-2.61812e+14 -2.85436e+14 -7.0429e+14 -8.59674e+14 3.22662e+14 2.18307e+15)
(-3.51285e+14 -1.79911e+14 2.4074e+13 8.63741e+14 8.09487e+14 -6.62952e+14)
(-1.49202e+14 -1.09815e+15 6.0124e+14 1.73269e+15 -8.09407e+14 -1.23139e+15)
(3.49098e+14 4.14048e+13 -2.30305e+14 -5.4331e+14 -3.87041e+13 2.27228e+14)
(7.92527e+13 1.64286e+14 -1.58899e+14 -1.54526e+14 -1.13663e+13 9.09651e+13)
(6.74217e+13 9.67048e+13 -9.04554e+12 -1.69624e+14 -1.48831e+12 1.14584e+14)
(-1.07543e+14 -1.11718e+14 -2.10316e+13 1.47489e+13 -4.5419e+13 4.99589e+13)
(-2.53173e+15 -1.50319e+15 -3.58594e+14 8.07654e+14 -1.15176e+15 1.12739e+15)
(-3.51937e+14 -2.22368e+13 1.72507e+14 -3.50958e+14 -1.32245e+14 4.94567e+14)
(1.82776e+15 8.888e+15 2.83674e+15 -3.49671e+15 -1.34061e+14 1.87656e+15)
(-9.16565e+14 -4.20964e+14 -7.23269e+14 3.68722e+14 -3.60402e+14 6.90738e+14)
(-5.64765e+14 -2.57474e+15 -7.91383e+14 -1.88621e+14 -4.68418e+12 4.57744e+14)
(5.03391e+14 3.33819e+13 4.74806e+14 -4.0912e+14 3.22006e+14 4.28926e+14)
(3.96723e+14 -4.28631e+13 2.11689e+14 -5.21752e+14 2.83222e+14 1.83935e+14)
(-5.00017e+14 2.9582e+14 -5.02345e+13 -4.40551e+13 8.36991e+13 2.04691e+14)
(-3.89184e+14 -7.76868e+14 1.40893e+14 6.45037e+12 -5.81017e+13 2.12362e+14)
(5.26311e+14 -1.02044e+15 6.81496e+14 -1.2266e+15 4.34794e+14 3.91944e+14)
(2.31315e+13 3.12326e+14 -1.44905e+14 4.55542e+14 -1.35263e+14 -8.75393e+13)
(-6.42002e+14 4.48042e+14 -3.24998e+13 4.51231e+14 -4.86597e+13 1.13367e+14)
(-3.18036e+14 2.27785e+14 -7.82504e+13 3.48534e+14 2.54916e+14 8.26873e+13)
(1.29088e+12 -1.53311e+14 -9.94079e+13 5.64103e+13 -2.6157e+14 -1.56752e+14)
(-1.78984e+14 -1.93226e+14 2.24116e+14 5.29233e+13 2.47851e+14 3.25946e+14)
(7.25909e+12 1.72308e+13 -1.60894e+12 -4.52305e+13 6.19565e+13 3.28018e+13)
(-1.00101e+14 1.86414e+11 1.43273e+13 1.15243e+14 1.36299e+14 7.19437e+13)
(-1.26735e+14 -4.21777e+14 -9.83134e+13 2.90419e+14 -1.45207e+14 1.63453e+14)
(-2.87028e+13 4.34837e+13 5.82912e+13 -3.90908e+13 -2.48381e+13 3.63613e+13)
(-3.9773e+14 -3.35397e+14 -8.85732e+14 2.24362e+15 -5.87348e+14 -2.28263e+14)
(-7.4035e+14 -1.83674e+14 -2.01316e+14 7.97736e+13 1.48769e+13 1.58161e+14)
(-4.9932e+14 -5.39379e+13 2.74177e+14 6.85764e+14 3.50672e+14 1.02676e+14)
(-8.96846e+13 2.27709e+13 2.0125e+13 9.11629e+13 -6.37255e+12 -2.38561e+13)
(-5.19832e+13 -1.95794e+14 -3.77485e+13 -1.09628e+13 4.5971e+12 7.93049e+13)
(1.663e+13 -1.0928e+13 -2.65259e+13 -3.01568e+13 1.35797e+13 1.18805e+13)
(-2.01372e+13 -2.46621e+13 -4.97908e+12 1.71596e+12 1.14598e+13 3.6372e+13)
(2.21751e+13 -7.38606e+12 -4.10877e+12 -5.68255e+13 1.25426e+13 1.99494e+13)
)
;
    }
}


// ************************************************************************* //
