/*--------------------------------*- C++ -*----------------------------------*\
| =========                 |                                                 |
| \\      /  F ield         | OpenFOAM: The Open Source CFD Toolbox           |
|  \\    /   O peration     | Version:  2.4.0                                 |
|   \\  /    A nd           | Web:      www.OpenFOAM.org                      |
|    \\/     M anipulation  |                                                 |
\*---------------------------------------------------------------------------*/
FoamFile
{
    version     2.0;
    format      ascii;
    class       volScalarField;
    location    "0.1";
    object      p;
}
// * * * * * * * * * * * * * * * * * * * * * * * * * * * * * * * * * * * * * //

dimensions      [1 -1 -2 0 0 0 0];

internalField   nonuniform List<scalar> 
200
(
8.57555e+16
8.0174e+16
7.26989e+16
6.06491e+16
4.13072e+16
1.29197e+16
4.02339e+16
5.53676e+16
7.0834e+16
7.07309e+16
8.56705e+16
8.41324e+16
7.92781e+16
6.98333e+16
5.39288e+16
4.18998e+16
-1.26009e+16
3.67997e+16
5.10431e+16
5.86776e+16
9.17153e+16
9.17777e+16
9.08188e+16
8.89027e+16
8.06249e+16
7.841e+16
6.64886e+16
2.75377e+16
4.70749e+16
4.01204e+16
9.62662e+16
9.78988e+16
9.92721e+16
9.98678e+16
1.00617e+17
1.01056e+17
1.12805e+17
1.03842e+17
7.14489e+16
4.04548e+16
8.46447e+16
8.04875e+16
7.09602e+16
6.08467e+16
4.57376e+16
2.47808e+16
2.06314e+15
2.1495e+16
3.12202e+16
4.01812e+16
7.86459e+16
7.77697e+16
7.40776e+16
6.54116e+16
4.34341e+16
-3.30327e+15
-2.18533e+16
-4.49479e+16
-3.94815e+15
6.49749e+15
8.4492e+16
8.45353e+16
8.35785e+16
7.71574e+16
6.35487e+16
3.68883e+16
-9.43222e+15
-2.86955e+16
-4.73548e+16
-1.89536e+16
8.87131e+16
8.85831e+16
8.83464e+16
8.55986e+16
7.93927e+16
6.71887e+16
4.32796e+16
3.93782e+15
-1.60652e+16
-2.61094e+16
7.23513e+16
7.22761e+16
6.09117e+16
5.70705e+16
5.02456e+16
4.39896e+16
3.61222e+16
3.1545e+16
3.41222e+16
3.25975e+16
7.23458e+16
6.21013e+16
6.17304e+16
5.68518e+16
4.7656e+16
3.7615e+16
2.31666e+16
2.30964e+16
1.81732e+16
2.16896e+16
7.55769e+16
7.35048e+16
7.28906e+16
6.28578e+16
5.60662e+16
4.85477e+16
3.00704e+16
9.10351e+15
1.11102e+16
6.64297e+15
7.60956e+16
7.3961e+16
7.03681e+16
6.66854e+16
6.21991e+16
5.74607e+16
5.99466e+16
2.89444e+16
8.48171e+15
7.34908e+15
6.84673e+16
5.28735e+16
5.17946e+16
4.81238e+16
4.68628e+16
4.2598e+16
3.80972e+16
3.1481e+16
2.79181e+16
2.68619e+16
6.08454e+16
6.15647e+16
4.69604e+16
4.7838e+16
4.73937e+16
4.20408e+16
3.82624e+16
3.05366e+16
2.76779e+16
2.18299e+16
7.1305e+16
7.40401e+16
5.93827e+16
5.15818e+16
4.76913e+16
4.70423e+16
3.82503e+16
3.32927e+16
2.46319e+16
2.10725e+16
7.28216e+16
6.4051e+16
5.92214e+16
5.65986e+16
5.39218e+16
4.75994e+16
4.06388e+16
3.42399e+16
2.74889e+16
2.07053e+16
5.86443e+16
5.34734e+16
5.21603e+16
5.16232e+16
4.79829e+16
4.42667e+16
4.03916e+16
3.72454e+16
3.43799e+16
3.00482e+16
5.28872e+16
4.29182e+16
5.07513e+16
4.60333e+16
4.65582e+16
4.35568e+16
3.78399e+16
3.53833e+16
3.15394e+16
2.85636e+16
5.19864e+16
5.1486e+16
4.88594e+16
4.63188e+16
4.3301e+16
4.11172e+16
4.09982e+16
3.52792e+16
3.14178e+16
2.72613e+16
6.64573e+16
6.75584e+16
6.06707e+16
6.29168e+16
5.16052e+16
4.47484e+16
4.30945e+16
3.62299e+16
3.077e+16
2.70444e+16
)
;

boundaryField
{
    inlet
    {
        type            zeroGradient;
    }
    outlet
    {
        type            fixedValue;
        value           nonuniform 0();
    }
    bottom
    {
        type            zeroGradient;
    }
    top
    {
        type            symmetryPlane;
    }
    side1
    {
        type            symmetryPlane;
    }
    side2
    {
        type            symmetryPlane;
    }
    procBoundary5to4
    {
        type            processor;
        value           nonuniform List<scalar> 
20
(
8.64542e+16
8.75403e+16
9.09863e+16
9.44217e+16
8.31986e+16
8.26924e+16
8.47973e+16
8.86475e+16
8.47619e+16
7.47334e+16
7.8385e+16
7.84896e+16
6.99977e+16
6.85034e+16
7.38008e+16
7.33628e+16
7.29293e+16
6.20955e+16
6.26803e+16
7.08221e+16
)
;
    }
    procBoundary5to6
    {
        type            processor;
        value           nonuniform List<scalar> 
20
(
6.55127e+16
4.81543e+16
3.3888e+16
1.85607e+16
3.57523e+16
8.80355e+15
-1.04421e+16
-1.8698e+16
3.21539e+16
1.88329e+16
7.15051e+15
2.86334e+15
2.33348e+16
2.05129e+16
1.65735e+16
1.69674e+16
2.39507e+16
2.37313e+16
2.50506e+16
2.35293e+16
)
;
    }
    procBoundary5to13
    {
        type            processor;
        value           nonuniform List<scalar> 
50
(
1.0038e+17
1.01976e+17
1.0406e+17
1.04742e+17
1.06523e+17
1.14223e+17
1.16665e+17
1.14981e+17
8.58172e+16
5.64501e+16
9.27988e+16
9.40125e+16
9.41647e+16
9.32553e+16
8.29124e+16
7.38856e+16
5.75782e+16
2.52408e+16
4.76312e+14
-1.76778e+16
7.50985e+16
7.18131e+16
6.66896e+16
6.04662e+16
5.07104e+16
3.7878e+16
2.53548e+16
1.16659e+16
7.47082e+15
4.05773e+15
6.37217e+16
5.99574e+16
5.73539e+16
5.62762e+16
4.75399e+16
3.92479e+16
3.2021e+16
2.9001e+16
2.31718e+16
1.92097e+16
6.92324e+16
6.65742e+16
6.45127e+16
5.54014e+16
5.10985e+16
4.40447e+16
3.81387e+16
3.17897e+16
2.70131e+16
2.27664e+16
)
;
    }
}


// ************************************************************************* //
