/*--------------------------------*- C++ -*----------------------------------*\
| =========                 |                                                 |
| \\      /  F ield         | OpenFOAM: The Open Source CFD Toolbox           |
|  \\    /   O peration     | Version:  2.4.0                                 |
|   \\  /    A nd           | Web:      www.OpenFOAM.org                      |
|    \\/     M anipulation  |                                                 |
\*---------------------------------------------------------------------------*/
FoamFile
{
    version     2.0;
    format      ascii;
    class       volVectorField;
    location    "0.1";
    object      Ub;
}
// * * * * * * * * * * * * * * * * * * * * * * * * * * * * * * * * * * * * * //

dimensions      [0 1 -1 0 0 0 0];

internalField   nonuniform List<vector> 
200
(
(-4.45011e+08 -3.53425e+08 4.73397e+08)
(-4.95005e+08 -4.22466e+08 1.19714e+09)
(-8.9183e+08 -1.00525e+09 1.52762e+09)
(-4.0957e+08 -1.78292e+09 -5.73317e+09)
(-3.47989e+08 -4.78431e+08 1.19407e+09)
(-1.48666e+08 -6.8429e+08 -2.15363e+09)
(-2.60708e+08 -2.24448e+08 8.36783e+08)
(-2.64978e+08 -4.11926e+08 -1.2133e+09)
(-1.9473e+08 -7.42888e+07 5.21974e+08)
(-1.88415e+08 -2.19256e+08 -5.89673e+08)
(-6.28281e+08 -3.83112e+08 1.32151e+09)
(-1.09896e+09 -9.2348e+08 1.56933e+09)
(-5.89308e+08 -1.86494e+09 -6.73093e+09)
(-4.3264e+08 -4.11583e+08 1.19483e+09)
(-2.4566e+08 -7.47753e+08 -2.61408e+09)
(-2.87739e+08 -2.25413e+08 8.15771e+08)
(-3.39933e+08 -5.01974e+08 -1.44572e+09)
(-1.93782e+08 -1.26951e+08 4.9558e+08)
(-2.36272e+08 -2.94107e+08 -6.53104e+08)
(-1.12469e+08 -7.88145e+07 2.15886e+08)
(-1.23295e+09 -7.8753e+08 1.51636e+09)
(-7.26347e+08 -1.7308e+09 -6.71355e+09)
(-5.24616e+08 -3.45163e+08 1.18252e+09)
(-3.1541e+08 -7.57871e+08 -2.86188e+09)
(-3.1702e+08 -1.9315e+08 7.64425e+08)
(-3.97279e+08 -5.61892e+08 -1.72939e+09)
(-1.77123e+08 -1.35903e+08 4.68951e+08)
(-2.69473e+08 -3.33955e+08 -6.97365e+08)
(-8.85752e+07 -1.23534e+08 1.23181e+08)
(-2.10573e+08 -2.46191e+08 -1.36089e+08)
(-9.01698e+08 -1.67155e+09 -7.34473e+09)
(-4.30726e+08 -1.71381e+08 1.13029e+09)
(-3.6615e+08 -7.31953e+08 -3.09114e+09)
(-3.24217e+08 -1.55914e+08 7.40339e+08)
(-4.25709e+08 -5.49328e+08 -1.80508e+09)
(-1.90178e+08 -1.18296e+08 4.14031e+08)
(-3.1345e+08 -3.36779e+08 -6.81079e+08)
(-6.95778e+07 -1.29307e+08 -1.34176e+07)
(-2.17909e+08 -2.68801e+08 -8.44678e+07)
(1.42737e+06 -9.92224e+07 -3.31866e+08)
(1.11894e+08 3.96641e+06 6.43836e+08)
(1.92675e+08 7.69338e+07 4.28604e+08)
(4.10297e+08 2.09036e+08 9.64819e+08)
(-2.20873e+07 -2.38393e+08 1.10708e+09)
(8.1363e+07 -4.9494e+08 -2.02106e+09)
(-2.45631e+08 -1.00159e+08 6.6094e+08)
(-1.76841e+08 3.53608e+07 -1.76424e+08)
(-3.62348e+08 3.93957e+06 4.22188e+08)
(-2.23601e+08 -1.15479e+08 -6.76547e+08)
(-2.33261e+08 1.06604e+08 1.78859e+08)
(2.11855e+08 9.7154e+07 4.25545e+08)
(4.60287e+08 2.59032e+08 9.95219e+08)
(7.68107e+06 -1.11159e+08 1.01422e+09)
(8.61077e+07 -4.54966e+08 -2.20524e+09)
(-2.4634e+08 -9.00242e+07 5.95968e+08)
(-2.18385e+08 -3.80931e+07 -2.35935e+08)
(-4.22771e+08 -6.16503e+07 3.15779e+08)
(-2.98788e+08 -1.76148e+08 -6.98278e+08)
(-2.97831e+08 -137585 3.75443e+07)
(-2.1533e+08 -3.97914e+07 -2.28254e+08)
(4.34097e+08 2.98252e+08 1.13226e+09)
(-1.59144e+06 -3.18827e+07 9.26426e+08)
(1.18173e+08 -3.89833e+08 -2.25284e+09)
(-2.1569e+08 -7.87368e+07 5.42994e+08)
(-1.8734e+08 -1.1022e+08 -2.98126e+08)
(-4.03513e+08 -9.7371e+07 2.19832e+08)
(-3.20358e+08 -2.2382e+08 -7.26193e+08)
(-2.69213e+08 -9.61153e+07 -1.81132e+08)
(-2.25964e+08 -1.06059e+08 -6.12523e+07)
(-1.00017e+08 -7.89755e+07 -3.90034e+08)
(-6.52656e+06 7.66169e+07 8.83542e+08)
(5.93082e+07 -3.8006e+08 -2.76671e+09)
(-2.38984e+08 -5.63553e+07 5.22408e+08)
(-1.81793e+08 -1.30246e+08 -3.12691e+08)
(-4.09034e+08 -1.21475e+08 9.37078e+07)
(-3.37536e+08 -2.29238e+08 -6.77204e+08)
(-2.07676e+08 -1.45423e+08 -4.43002e+08)
(-2.18128e+08 -1.41546e+08 4.5331e+06)
(-2.97148e+07 -1.36191e+08 -7.17425e+08)
(-1.69611e+08 -1.22416e+08 1.16042e+08)
(2.55157e+08 5.30579e+07 1.71556e+08)
(2.4783e+08 5.24314e+07 3.75143e+08)
(3.11036e+08 1.40361e+08 1.75111e+08)
(3.80305e+08 1.84122e+08 4.44708e+08)
(2.14663e+08 1.29954e+08 2.04917e+08)
(1.60965e+08 1.4399e+08 4.49584e+07)
(1.53471e+08 1.04545e+08 2.88652e+08)
(9.98062e+07 1.38732e+08 -1.52828e+08)
(7.48131e+07 1.35397e+08 9.90402e+07)
(1.54106e+08 1.17837e+08 -1.23527e+08)
(2.89472e+08 3.8796e+07 2.83548e+08)
(3.84384e+08 1.49964e+08 9.10246e+07)
(4.36533e+08 1.77348e+08 3.29439e+08)
(2.85136e+08 1.17584e+08 7.61656e+07)
(2.02272e+08 1.05908e+08 8.57239e+06)
(2.065e+08 1.07805e+08 1.50916e+08)
(9.5586e+07 9.80997e+07 -1.04622e+08)
(9.61574e+07 8.08898e+07 4.0567e+07)
(1.39718e+08 8.23476e+07 -1.05016e+08)
(1.17361e+08 5.88376e+07 -9.88147e+07)
(4.31739e+08 1.42729e+08 3.42947e+07)
(4.63916e+08 1.87734e+08 2.5104e+08)
(3.3983e+08 1.12309e+08 -6.9725e+07)
(2.7167e+08 7.28479e+07 -3.8404e+07)
(2.9236e+08 1.02227e+08 -6.05747e+07)
(1.94261e+08 5.22967e+07 -9.78364e+07)
(2.02622e+08 4.93713e+07 -1.41978e+08)
(1.90877e+08 5.21636e+07 -9.41234e+07)
(2.42986e+08 3.81266e+07 -2.12654e+08)
(1.2412e+08 4.44655e+07 -8.99376e+07)
(4.90296e+08 2.66974e+08 3.74827e+08)
(3.51069e+08 1.03232e+08 -1.71802e+08)
(2.59053e+08 6.87973e+07 -6.06629e+07)
(3.09674e+08 6.09402e+07 -2.54482e+08)
(2.27704e+08 3.45145e+07 -1.02872e+08)
(2.67585e+08 5.55669e+06 -4.03745e+08)
(1.79564e+08 -8.15135e+06 -1.50232e+08)
(2.52813e+08 -3.11733e+07 -4.5582e+08)
(8.55128e+07 -2.41268e+07 9.38704e+06)
(1.99336e+08 -2.5997e+07 -5.42936e+08)
(1.4941e+08 -9.83802e+07 2.61385e+08)
(1.99788e+08 -9.13773e+06 4.29058e+07)
(1.99257e+08 -2.73955e+07 3.67627e+08)
(2.44757e+08 7.48168e+07 5.80083e+07)
(2.63242e+08 7.67562e+07 3.40863e+08)
(2.57066e+08 9.78642e+07 5.4018e+07)
(2.71742e+08 5.2223e+07 2.6733e+08)
(2.79729e+08 3.24803e+07 -9.95071e+07)
(2.89034e+08 -2.11278e+07 -3.42955e+07)
(2.77635e+08 2.67365e+06 -2.03511e+08)
(2.02602e+08 -8.02357e+07 -2.43698e+07)
(2.00113e+08 -8.54444e+07 2.30207e+08)
(2.67424e+08 6.56955e+06 -8.31615e+07)
(2.66932e+08 1.56284e+06 2.34875e+08)
(2.90332e+08 5.15894e+07 -6.15814e+07)
(2.88756e+08 1.96143e+07 2.56606e+08)
(3.33162e+08 4.6435e+07 -1.15159e+08)
(2.87215e+08 9.93123e+06 1.01633e+08)
(3.29384e+08 -8.48378e+06 -2.34783e+08)
(2.55788e+08 1.31166e+07 2.46763e+07)
(1.46353e+08 -1.26943e+08 2.48185e+07)
(2.42385e+08 -1.16071e+08 -2.11272e+08)
(2.23722e+08 -7.01395e+07 2.24673e+07)
(2.89618e+08 -5.16917e+07 -2.38323e+08)
(2.50051e+08 -4.1688e+07 1.10812e+08)
(3.38519e+08 -1.74465e+07 -2.58439e+08)
(2.63908e+08 4.19726e+06 1.07922e+08)
(3.50189e+08 -1.52371e+07 -3.38374e+08)
(2.07935e+08 1.95304e+07 1.55879e+08)
(3.08042e+08 -1.42766e+07 -4.05247e+08)
(1.66977e+08 -2.68429e+08 -3.99812e+08)
(7.48792e+07 -1.35322e+08 -5.44887e+07)
(2.15856e+08 -2.23736e+08 -4.46442e+08)
(9.81621e+07 -9.54394e+07 3.93488e+07)
(2.64155e+08 -1.33007e+08 -4.75457e+08)
(1.00474e+08 -6.57677e+07 2.02865e+08)
(2.5599e+08 -6.976e+07 -5.83772e+08)
(3.69845e+07 1.11301e+06 3.3473e+08)
(2.10855e+08 5.58292e+06 -5.95506e+08)
(-6.9117e+07 9.53888e+07 4.07885e+08)
(1.03683e+08 -5.20649e+07 -1.30459e+07)
(1.27763e+08 -9.80927e+07 3.66381e+08)
(1.77202e+08 -1.05967e+07 -1.20876e+07)
(2.10738e+08 -6.27259e+07 3.98675e+08)
(2.66179e+08 -5.56069e+06 -2.32713e+07)
(2.8692e+08 -7.61314e+07 3.27882e+08)
(3.34042e+08 -7.28547e+07 -1.14399e+08)
(3.22457e+08 -5.96174e+07 6.53766e+07)
(3.19279e+08 -2.54077e+07 -1.28325e+08)
(2.86087e+08 1.03706e+07 5.08616e+07)
(1.07396e+08 -9.02514e+07 2.2713e+08)
(1.74914e+08 -2.35152e+07 -7.73639e+07)
(1.72472e+08 -4.1152e+07 3.14962e+08)
(2.54205e+08 1.34662e+07 -8.8675e+07)
(2.40998e+08 -2.47046e+07 3.36926e+08)
(3.37252e+08 -1.36099e+07 -1.43915e+08)
(2.71034e+08 -2.58085e+07 2.99405e+08)
(3.59809e+08 -5.54472e+07 -2.38051e+08)
(2.37102e+08 1.16215e+07 1.74223e+08)
(3.08742e+08 -2.27126e+06 -2.67951e+08)
(1.57573e+08 -1.38214e+08 -1.78368e+08)
(5.45347e+07 -6.34823e+07 2.79387e+08)
(2.27798e+08 -7.50539e+07 -2.48946e+08)
(1.21312e+08 -2.87745e+07 2.8591e+08)
(2.85259e+08 -4.73834e+07 -3.04928e+08)
(1.64694e+08 -3.22977e+07 3.58113e+08)
(3.123e+08 -5.90847e+07 -4.27263e+08)
(1.31687e+08 -1.08879e+07 3.81089e+08)
(2.57824e+08 -2.85445e+07 -4.40546e+08)
(3.99607e+07 5.9411e+07 3.69543e+08)
(-1.3578e+08 -2.02166e+08 5.70146e+08)
(1.30208e+08 -1.90025e+08 -4.61171e+08)
(-4.86255e+07 -1.27685e+08 3.69496e+08)
(1.19012e+08 -1.40084e+08 -5.62579e+08)
(-6.41866e+07 -1.5549e+08 4.84579e+08)
(1.09506e+08 -6.76932e+07 -7.31283e+08)
(-9.53179e+07 -3.17823e+07 6.38791e+08)
(4.1987e+07 7.52574e+07 -7.26863e+08)
(-1.68474e+08 1.38502e+08 5.04373e+08)
(-5.17543e+07 1.56024e+08 -5.65754e+08)
)
;

boundaryField
{
    inlet
    {
        type            fixedValue;
        value           nonuniform 0();
    }
    outlet
    {
        type            zeroGradient;
    }
    bottom
    {
        type            fixedValue;
        value           uniform (0 0 0);
    }
    top
    {
        type            symmetryPlane;
    }
    side1
    {
        type            symmetryPlane;
    }
    side2
    {
        type            symmetryPlane;
    }
    procBoundary21to13
    {
        type            processor;
        value           nonuniform List<vector> 
50
(
(-2.06666e+08 -2.67251e+08 6.75537e+08)
(-3.90413e+08 -3.96214e+08 4.65834e+08)
(-3.39973e+08 -4.04517e+08 1.04994e+09)
(-6.30263e+08 -9.18427e+08 1.33965e+09)
(-2.11294e+08 -1.43922e+09 -4.02502e+09)
(-2.78045e+08 -4.47041e+08 1.13577e+09)
(-6.95151e+07 -5.53093e+08 -1.66005e+09)
(-2.12399e+08 -1.55218e+08 8.26795e+08)
(-1.57109e+08 -3.20617e+08 -1.10499e+09)
(-1.33661e+08 2.46175e+07 5.29294e+08)
(8.55811e+07 -2.31502e+07 2.83066e+08)
(4.59397e+07 -7.30132e+07 7.01035e+08)
(9.73591e+07 1.73884e+07 4.10488e+08)
(3.06999e+08 1.70358e+08 8.81433e+08)
(-7.205e+07 -3.07152e+08 1.12418e+09)
(1.37716e+08 -3.92872e+08 -1.47351e+09)
(-1.5232e+08 -4.79175e+07 6.64885e+08)
(-5.13822e+07 8.13502e+07 -1.69321e+08)
(-1.89222e+08 9.7265e+07 3.8286e+08)
(-4.34471e+07 -3.56233e+07 -5.58049e+08)
(1.42149e+08 -2.15017e+07 2.53521e+08)
(2.01047e+08 5.5941e+07 1.98754e+08)
(2.17385e+08 5.18479e+07 4.18171e+08)
(2.41613e+08 1.17156e+08 2.45364e+08)
(3.30864e+08 2.05865e+08 4.5986e+08)
(1.80079e+08 1.61172e+08 3.50322e+08)
(1.8649e+08 1.88619e+08 1.43758e+08)
(1.91609e+08 9.61211e+07 3.06731e+08)
(1.63411e+08 1.11835e+08 -3.54119e+08)
(1.07964e+08 1.75006e+08 5.54038e+07)
(1.49516e+08 -3.21753e+07 7.74875e+07)
(1.46789e+08 -4.53151e+07 2.97433e+08)
(1.85101e+08 3.53533e+07 1.23934e+08)
(1.79976e+08 1.64026e+07 3.98431e+08)
(2.12038e+08 9.73964e+07 8.66541e+07)
(2.14228e+08 4.20839e+07 3.00177e+08)
(2.28462e+08 3.63617e+07 -2.25459e+07)
(2.91494e+08 -3.06897e+07 1.84508e+07)
(2.57386e+08 2.73069e+07 -1.44463e+08)
(2.9553e+08 -4.57772e+07 -1.23102e+08)
(8.56292e+07 -1.42221e+08 3.45957e+08)
(1.16783e+08 -6.04668e+07 1.73078e+07)
(1.54271e+08 -1.26918e+08 3.7328e+08)
(1.97459e+08 -5.67698e+07 6.26103e+06)
(2.44271e+08 -1.41455e+08 2.99532e+08)
(2.67472e+08 -9.21525e+07 -5.76929e+07)
(3.17478e+08 -1.07714e+08 2.35377e+07)
(2.86817e+08 -2.69633e+07 -4.89613e+07)
(3.25272e+08 -2.6627e+07 1.09649e+07)
(2.68947e+08 4.11962e+07 -3.04048e+07)
)
;
    }
    procBoundary21to20
    {
        type            processor;
        value           nonuniform List<vector> 
20
(
(-2.88891e+08 -2.39012e+08 7.35669e+08)
(-5.61332e+08 -3.64229e+08 4.94055e+08)
(-7.11995e+08 -3.30555e+08 1.42831e+09)
(-1.3406e+09 -6.47829e+08 1.44892e+09)
(1.00276e+08 1.71193e+07 2.90767e+08)
(7.79041e+07 2.24987e+07 8.45278e+08)
(1.89976e+08 5.45134e+07 4.05051e+08)
(4.49641e+08 3.73906e+08 1.22593e+09)
(1.72118e+08 -1.52519e+07 1.23712e+08)
(2.843e+08 2.61989e+07 1.28793e+08)
(3.09282e+08 7.86776e+07 3.87284e+08)
(4.99769e+08 1.76866e+08 -9.16969e+06)
(1.5681e+08 -7.3847e+07 6.5092e+07)
(1.41753e+08 -1.4076e+08 1.00938e+08)
(1.44234e+08 -2.2062e+08 -1.6757e+08)
(8.57741e+07 -1.19109e+08 2.03139e+08)
(6.47761e+07 -1.32711e+08 2.78662e+08)
(1.17176e+08 -9.03248e+07 -4.07392e+07)
(1.38309e+07 -1.15432e+08 9.2408e+06)
(5.56204e+07 -3.23565e+08 -3.64182e+08)
)
;
    }
    procBoundary21to22
    {
        type            processor;
        value           nonuniform List<vector> 
20
(
(-1.18634e+08 -1.4061e+07 3.40047e+08)
(-1.76496e+08 -2.05027e+08 -2.27911e+08)
(-2.0832e+07 -9.47739e+07 -2.30815e+08)
(-1.51844e+08 -1.73424e+08 1.5795e+08)
(-8.60457e+07 5.25072e+07 -2.74087e+08)
(-1.78252e+08 3.7799e+07 -4.59095e+07)
(-1.34118e+08 -7.87193e+07 -5.01918e+06)
(1.7325e+07 -3.58969e+07 -5.08347e+08)
(1.29779e+08 1.0095e+08 -7.60466e+07)
(1.15311e+08 5.9971e+07 -2.21374e+08)
(1.85167e+08 2.54407e+07 -3.22521e+08)
(4.10506e+07 3.15881e+07 7.15053e+07)
(2.72714e+08 -7.3426e+06 -7.93341e+07)
(2.95692e+08 -9.57264e+06 -3.15646e+08)
(1.10183e+08 8.40235e+07 1.60481e+08)
(8.71125e+07 1.05156e+08 -5.6027e+08)
(2.67975e+08 5.03867e+07 -1.19056e+08)
(1.62404e+08 8.13335e+07 1.75765e+08)
(1.08943e+08 1.16981e+08 -3.98241e+08)
(-2.03666e+08 2.1033e+08 3.66785e+08)
)
;
    }
    procBoundary21to29
    {
        type            processor;
        value           nonuniform List<vector> 
50
(
(-5.455e+08 -2.85104e+07 1.17049e+09)
(-4.48991e+08 -6.31174e+08 -3.09093e+09)
(-4.11471e+08 -8.73977e+07 7.43868e+08)
(-4.80647e+08 -4.83394e+08 -1.70324e+09)
(-2.67116e+08 -8.00564e+07 3.36037e+08)
(-3.96752e+08 -3.01585e+08 -5.30057e+08)
(-9.2736e+07 -1.09016e+08 -1.74138e+08)
(-2.71696e+08 -2.64007e+08 -1.27962e+08)
(-1.4676e+07 -8.01826e+07 -4.09588e+08)
(-2.0025e+08 -1.87935e+08 2.34697e+08)
(-6.10353e+07 -3.77383e+08 -3.02857e+09)
(-3.72816e+08 -4.62489e+07 4.91437e+08)
(-2.6749e+08 -1.18296e+08 -2.25598e+08)
(-5.10209e+08 -1.6478e+08 -9.31727e+07)
(-4.34747e+08 -1.86708e+08 -4.34011e+08)
(-2.02145e+08 -1.64991e+08 -9.14265e+08)
(-2.03855e+08 -1.9203e+08 2.21245e+07)
(-1.26535e+08 -1.38126e+08 -7.09034e+08)
(-2.48465e+08 -1.55999e+08 2.02668e+08)
(-8.52662e+07 -1.54857e+07 -5.94233e+08)
(2.60769e+08 1.07691e+08 -1.16915e+08)
(1.89698e+08 1.3418e+08 3.31821e+08)
(2.68889e+08 1.77984e+07 -4.03266e+08)
(1.56743e+08 1.47038e+07 -5.75854e+06)
(2.27881e+08 -4.15685e+07 -6.2854e+08)
(8.91739e+07 -6.21907e+07 -1.46137e+08)
(1.83222e+08 -6.58856e+07 -6.9937e+08)
(-7.00744e+07 -7.39469e+07 2.19795e+08)
(7.96115e+07 -3.53926e+07 -7.42187e+08)
(-1.53874e+08 8.64233e+06 3.49917e+08)
(5.72528e+07 -1.34104e+08 3.48414e+08)
(1.63822e+08 -3.19861e+08 -6.01185e+08)
(-2.66062e+07 -1.82189e+08 1.17e+08)
(1.77724e+08 -2.04331e+08 -6.5489e+08)
(-1.09023e+08 -1.91205e+08 3.61378e+08)
(1.02608e+08 -9.04788e+07 -7.84392e+08)
(-1.98165e+08 -9.89868e+07 6.55924e+08)
(2.57916e+07 5.43602e+07 -7.69292e+08)
(-2.283e+08 6.78141e+07 5.38048e+08)
(-3.52857e+07 1.18736e+08 -6.66464e+08)
(4.54427e+06 -2.43702e+08 -5.29098e+08)
(-2.19958e+08 -2.15419e+08 5.44886e+08)
(-5.33051e+07 -1.78697e+08 -6.3523e+08)
(-2.86611e+08 -2.2695e+08 5.31919e+08)
(-1.24116e+08 -1.06954e+08 -8.01527e+08)
(-3.79251e+08 -1.09387e+08 8.2779e+08)
(-1.57252e+08 -1.47892e+07 -8.87194e+08)
(-3.74586e+08 2.71323e+07 7.57246e+08)
(-1.91199e+08 6.2842e+07 -7.75978e+08)
(-3.58877e+08 1.55549e+08 5.62504e+08)
)
;
    }
}


// ************************************************************************* //
