/*--------------------------------*- C++ -*----------------------------------*\
| =========                 |                                                 |
| \\      /  F ield         | OpenFOAM: The Open Source CFD Toolbox           |
|  \\    /   O peration     | Version:  2.4.0                                 |
|   \\  /    A nd           | Web:      www.OpenFOAM.org                      |
|    \\/     M anipulation  |                                                 |
\*---------------------------------------------------------------------------*/
FoamFile
{
    version     2.0;
    format      ascii;
    class       Cloud<softParticle>;
    location    "0.04/lagrangian/defaultCloud";
    object      positions;
}
// * * * * * * * * * * * * * * * * * * * * * * * * * * * * * * * * * * * * * //

5
(
(0.0211057 0.00515965 0.00318376) 43
(0.0204916 0.00760344 0.00770116) 142
(0.0207617 0.00761724 0.00187237) 23
(0.0217125 0.00988809 0.0076235) 154
(0.0220862 0.00952615 0.0083703) 195
)


// ************************************************************************* //
