/*--------------------------------*- C++ -*----------------------------------*\
| =========                 |                                                 |
| \\      /  F ield         | OpenFOAM: The Open Source CFD Toolbox           |
|  \\    /   O peration     | Version:  2.4.0                                 |
|   \\  /    A nd           | Web:      www.OpenFOAM.org                      |
|    \\/     M anipulation  |                                                 |
\*---------------------------------------------------------------------------*/
FoamFile
{
    version     2.0;
    format      ascii;
    class       volVectorField;
    location    "0.02";
    object      gradp;
}
// * * * * * * * * * * * * * * * * * * * * * * * * * * * * * * * * * * * * * //

dimensions      [1 -2 -2 0 0 0 0];

internalField   nonuniform List<vector> 
200
(
(17219.8 -12360.4 -3068.38)
(84436.1 -7487.98 -4623.51)
(110069 -62203.1 -25858.1)
(-59255 -64802.6 -36674.7)
(-135940 -59913.3 -11012.6)
(22417.8 21179.7 11452.5)
(103989 6862 -6725.56)
(6342.05 -19943.6 -19641)
(-39462.2 -5083.94 -8379.2)
(-14250.5 -6356.04 -7358.74)
(9815.16 560.165 5397.19)
(-15249.3 -7734.93 4268.45)
(-4560.55 -34280.3 10332.1)
(-54675.3 -68429.8 -6838.11)
(36025.1 -24245.4 26423.8)
(155968 -9165.37 -9396.31)
(21742.1 -24527.7 -18253.8)
(-17549.8 -36121.5 -13181.8)
(-12287 -17763.4 -12651.4)
(-14332.5 -15586.2 -11439.7)
(547.334 10061.5 -68.2774)
(14755.2 6926.05 458.723)
(-11321 23979.4 -6526.05)
(-39185.3 928.706 1166.93)
(-17410.7 38556.2 1568.08)
(21853.3 -16650.8 6642.5)
(50076.6 -30686.2 -1743.52)
(19870.7 -22149.4 -6694.71)
(1608.5 -19040.9 -7209.42)
(-1510.28 -13431.7 -5427.85)
(15703.5 -4269.78 -2766)
(12586.4 1111.87 -5821.71)
(-16555.2 -10051 -9964.51)
(-25521.6 9176.6 600.537)
(866.063 11714.4 1017.82)
(17483.5 19284.1 -838.905)
(10745 3091.73 -2822.76)
(5740.74 -5119.42 -3533.2)
(5148.29 -5880.49 -3563.96)
(3006.3 -5204 -4574.89)
(10719.1 1184.51 -2656.79)
(11508.9 6739.14 -5527.19)
(7504.86 -4298.72 -29987.1)
(-11749.4 -17064 -37389.8)
(18067.6 -15.0537 -7886.61)
(36136.4 -12178.4 7356.09)
(4489.49 -11583.1 -12374.1)
(1050.41 -9608.81 -23301.1)
(-158.891 -11919.4 -9732.68)
(-15965.6 -12885.6 -6141.64)
(20212.6 5360.33 4260.11)
(542.48 396.638 -3878.21)
(-40101.5 -3348.97 6744.31)
(-3182.1 -7883.16 -691.511)
(27838.9 -4116.3 27024.5)
(13000.2 -16861.4 -11154)
(9628.7 -16556.4 -22396.4)
(377.913 -15407.4 -18068.3)
(-6712.54 -15891.7 -16511.2)
(-9895.21 -12496.7 -11594.2)
(6457.21 -2999.57 -6415.75)
(-5909.67 -9218.2 -3533.85)
(-9054.73 -8495.24 -13831.1)
(-13284.1 12830.5 -1022.51)
(111.139 -2093.25 725.473)
(11256.2 -2958.99 6080.53)
(7397.49 -5996.55 -3465.79)
(2379.8 -6711.69 -9284.93)
(5662.46 -4501.05 -8679.77)
(130.363 -2447.98 -9213.89)
(-4386.32 -5740.65 -8671.37)
(-10448.9 -3610.23 -12235.3)
(3995.96 2970.11 -8665.93)
(9621.87 1782.29 -7037.24)
(-3740.15 5060.6 -8313.25)
(5193.64 1014.13 -7564.07)
(2123.29 -3215.95 -7694)
(3368.91 -4614.02 -7216.33)
(1814.88 -3742.45 -7770.52)
(2511.41 -5554.27 -7872.04)
(2134.52 -1293.35 -9096.44)
(-3020.79 -4849.61 -8238)
(8108.45 -3432.91 -14304.4)
(11466.5 -6085.39 -15724.2)
(7247.24 -4055.56 -9515.35)
(8057.96 -8436.39 -16057.2)
(5885.83 -9173.69 -13560.3)
(14794.5 -11571.1 -7538.63)
(15448.1 -15929.6 -3144.33)
(-25567.3 -15080.2 -4067.34)
(-5038.9 -5454.16 -12876.7)
(-7299.9 -4545.59 -23405.7)
(5636.88 -8430.79 -15461.9)
(10221.2 -10242.2 -5315.05)
(2545.25 -10466.1 -9415.78)
(-2178.3 -11206.3 -11495.4)
(-383.562 -10274.4 -15873.1)
(1282.73 -13695.6 -13933.7)
(8429.95 -16078.7 -9940.62)
(6373.75 -20501.8 -9773.44)
(1787.81 -10628.8 -17885.8)
(-8974.05 -6445.35 -15085.6)
(-3284.71 -676.992 -12799.4)
(7395.87 -9224.45 -9702.45)
(5319.08 -17984.1 -13267.2)
(8441.25 -10907 -10343.2)
(907.1 -7162.39 -12841.1)
(3185.93 -4786.29 -7758.77)
(1835.81 -5055.81 -10165.9)
(920.662 -7476.26 -13644.7)
(-1488.11 -6267.4 -12326.7)
(12603.8 -5785.06 -14947.7)
(78.6707 -21.9685 -5809.75)
(-24393 -1373.73 -12334.4)
(-819.792 -3840.08 -16202.3)
(19465.1 -6918.03 -22688.8)
(11857.8 -13718.7 -10354.9)
(5495.88 -7851.42 -8248.66)
(3050.02 -9145.68 -7928.53)
(29.2468 -8074.82 -9062.58)
(-10515.9 -4863.84 6442.04)
(-5156.59 -17529.1 6290.22)
(-16451.1 -6150.64 5741.91)
(3575.6 -409.338 1698.97)
(17002.1 144.253 9181.83)
(23192.4 -4879.52 12033.5)
(31749 -15283.6 13325.7)
(34381.7 -19840.9 4863.65)
(10949.2 -22793.5 -6100.61)
(-19025.1 -22015.4 -15525.8)
(-25793.2 -8702.69 -1365.87)
(-7730.19 -10559.5 86.8867)
(17788.5 -941 -1712.14)
(16165.4 1751.7 -693.188)
(8061.75 -10119.3 6729.29)
(-7663.21 -7719.07 11250.8)
(1826.15 -15405.6 8476.77)
(19361.9 -15759.6 2925.28)
(6600.28 -27126.2 2265.28)
(-8217.41 -27820.4 -4815.61)
(-6688.56 -2119.64 -693.401)
(10366.8 4314.55 -2537.61)
(8171.22 6948.15 4909.95)
(-14781 1599.59 6439.33)
(-1939.42 -12951.6 7609.24)
(12619.8 -20868.5 -143.462)
(15667.8 2832.59 943.333)
(10940.5 2384.38 4778.32)
(-13172.4 -1281.7 1997.91)
(-22275.5 -1310.6 18.0617)
(-4267.31 3797.78 7161.07)
(10405.4 3503.07 10261)
(12358.5 3091.62 16609.2)
(-23634.2 6492.66 33367.9)
(-36874.4 8250.86 29845)
(23905.2 3422.12 23104.8)
(48331.8 10263.8 8148.86)
(11133.3 5074.94 13417.3)
(-789.68 5954.33 6596.07)
(-6407.68 7679.79 2322.12)
(9704.79 -13786 15950.1)
(-5261.21 -14774.9 13624.5)
(-6583.55 -15359.4 15917.4)
(22474.2 -9912.85 16708.1)
(40317.6 -7979.63 21823.2)
(21318.4 -9688.75 23994.2)
(-17057.6 -16932 21237.6)
(-47369.8 -14672.5 8742.2)
(-49798.2 -2544.13 -4309.76)
(-11645.2 2056.16 -10241.4)
(-7483.49 -16870.9 10373.7)
(-8407.94 -18670.1 15345.9)
(3140.64 -9761.94 10161.9)
(37233.7 -2657.6 10768.5)
(40765.9 -12982.2 16745.8)
(3413.65 -30689.4 20988.5)
(-27025.1 -30086.3 20207.3)
(-18594.1 -13832.1 11972.5)
(-16340.9 -3121.08 8346.06)
(-31927.6 4368.42 4803.36)
(-7177.05 3014.26 10845)
(8956.66 9833.2 8555.38)
(25441.5 28637.1 10404.3)
(16033.6 45273.4 13952.3)
(-15745.9 19001 20033.9)
(-12889.6 8059.46 9637.82)
(16656.8 -7687.05 12062.2)
(6560.57 12000.9 9946.88)
(-13397 1873.46 10693.4)
(-10049.9 3944.11 9876.68)
(11197.2 10418.5 13582.4)
(42837.8 17367.3 18795.1)
(74021 21459.7 23717.5)
(17961.5 14506.3 38064.6)
(-33661.9 13890.9 36716.2)
(-49962.5 11367.3 39068.4)
(-19142.3 10629.4 13632.5)
(526.971 3195.91 17982.8)
(-32454.4 4609.16 10318)
(-14838.7 6119.01 8087.56)
)
;

boundaryField
{
    inlet
    {
        type            zeroGradient;
    }
    outlet
    {
        type            zeroGradient;
    }
    bottom
    {
        type            zeroGradient;
    }
    top
    {
        type            symmetryPlane;
    }
    side1
    {
        type            symmetryPlane;
    }
    side2
    {
        type            symmetryPlane;
    }
    procBoundary2to1
    {
        type            processor;
        value           nonuniform List<vector> 
20
(
(11973.3 -3785.64 -2592.02)
(-7141.58 601.325 1019.26)
(10863.5 3981.89 -1388.11)
(3646.75 3029.28 456.348)
(9271.28 1992.41 -813.025)
(13428.2 2527.58 763.686)
(16102.2 3081.24 -3921.5)
(6332.46 -4294.18 -6862.96)
(3209.92 -1262.9 -1602.06)
(7093.23 -4372.24 -9028.87)
(3991.76 -8220.74 -10977.5)
(-2185.54 -4233.02 -14984.9)
(-21254.7 -9890.48 3924.51)
(-18510.7 -12473.1 850.82)
(-14436.3 -6448.39 263.915)
(-8377.1 418.003 6296.82)
(7810.59 -6180.81 7305.57)
(-8283.91 -10229.2 9624.11)
(-13252.8 492.864 8708.03)
(-2470 8238.94 13962.4)
)
;
    }
    procBoundary2to3
    {
        type            processor;
        value           nonuniform List<vector> 
20
(
(-12692.6 -5124.94 -8915.18)
(-6367.11 -11393.3 -11264.7)
(-3181.11 -10371.5 -6696.72)
(1247.53 -4602.58 -3718.61)
(-26286.1 -8884.18 -13269.2)
(-14262.1 -7843.73 -10040.5)
(-3466.37 1702.25 -7920.1)
(2290.27 -3211.87 -8700.85)
(-51338.5 40.9698 -4100.41)
(-15051.5 -2834.73 -9416.31)
(-6605.91 -8228.06 -17167.7)
(-129.999 -8623.26 -10715.7)
(-28120.5 -17389.6 -1749.96)
(-16177.7 -28751.4 -9703.89)
(-2627.06 -376.833 -1430.39)
(-6160.58 11647.6 1949.85)
(23103.9 -12685.3 -2003.55)
(2192.37 -2323.43 936.633)
(3591.97 10417.9 14513.9)
(3802.6 8200.89 7683.35)
)
;
    }
    procBoundary2to10
    {
        type            processor;
        value           nonuniform List<vector> 
50
(
(-3287.48 12464.5 -987.569)
(3192.85 -1379.47 -2492.59)
(4808.44 -1111.67 1612.12)
(4345.5 5224.63 -3454.51)
(2804.28 10370.4 -2590.57)
(4607.88 5667.07 -4776.21)
(1269.59 2136.09 -5685.82)
(1926.24 609.356 -6378.84)
(1439.33 -375.496 -5873.15)
(1045.52 -2174.1 -5646.77)
(7825.13 5180.86 -7664.26)
(11511.9 14048.5 -7844.44)
(1730.29 10670.4 -7563.02)
(-9103.12 3101 -7616.47)
(-1425.17 2653.14 -8996.1)
(-5296.92 -2254.27 -10295.8)
(-3858.81 -7092.36 -13972.3)
(1326.79 -4188.04 -10992.4)
(3781.95 -5952.6 -10720.5)
(1191.53 -4927.59 -11008.2)
(-1316.28 -7107.65 -11924.3)
(3516.81 -5730.17 -10639.7)
(5537.96 -4063.44 -12723.5)
(-240.343 2624.08 -6758.47)
(-5769.53 12563.9 -11273.3)
(-11316 1967.36 -8838.26)
(-959.668 3099.82 -4416.21)
(12332 -5924.06 -1703.17)
(1389 -2772.12 -4105.38)
(1965.49 1159.25 -5373.37)
(-518.424 5271.37 9735.31)
(8954.47 10201 11932.6)
(14150.4 6966.49 18336)
(-4462.51 12874.3 16364.3)
(-8080.5 27057.5 18691.1)
(16645.8 38283.1 11284.9)
(18973.5 19981.7 16160.9)
(2321.46 15041.9 11682.9)
(-7962.7 18877.1 10594.7)
(-10888.9 15537.6 8889.21)
(11079.7 5679.98 14982.9)
(31039.1 1733.86 17220.5)
(19719.4 -9257.58 21884.4)
(895.917 -23607.4 18960.8)
(-22023.8 -13388.2 23558.9)
(-19412.6 -6502.36 14603.6)
(313.983 8998.74 12290.6)
(-5479.95 4357.02 8772.48)
(-7550.82 14019.4 9852.7)
(-2866.45 22068.8 8901.19)
)
;
    }
}


// ************************************************************************* //
