/*--------------------------------*- C++ -*----------------------------------*\
| =========                 |                                                 |
| \\      /  F ield         | OpenFOAM: The Open Source CFD Toolbox           |
|  \\    /   O peration     | Version:  2.4.0                                 |
|   \\  /    A nd           | Web:      www.OpenFOAM.org                      |
|    \\/     M anipulation  |                                                 |
\*---------------------------------------------------------------------------*/
FoamFile
{
    version     2.0;
    format      ascii;
    class       surfaceScalarField;
    location    "0.02";
    object      phia;
}
// * * * * * * * * * * * * * * * * * * * * * * * * * * * * * * * * * * * * * //

dimensions      [0 3 -1 0 0 0 0];

internalField   nonuniform List<scalar> 
490
(
6.90624e-06
7.85452e-07
3.23306e-07
6.90444e-06
7.86453e-07
3.23221e-07
6.90197e-06
7.87359e-07
3.23107e-07
6.89835e-06
7.88107e-07
3.22948e-07
6.89255e-06
7.88558e-07
3.2271e-07
6.88164e-06
7.8837e-07
3.22314e-07
6.85271e-06
7.86467e-07
3.21525e-07
5.84533e-06
7.7751e-07
3.19208e-07
3.94264e-06
6.21999e-07
2.25731e-07
3.72487e-07
2.27209e-07
6.87849e-06
7.90608e-07
3.2148e-07
6.87097e-06
7.90826e-07
3.21032e-07
6.86015e-06
7.90913e-07
3.20408e-07
6.84345e-06
7.90809e-07
3.19489e-07
6.81477e-06
7.90407e-07
3.18032e-07
6.75622e-06
7.89444e-07
3.15469e-07
6.58785e-06
7.87048e-07
3.10158e-07
5.06092e-06
7.7863e-07
2.95527e-07
3.49899e-06
6.78388e-07
2.00426e-07
6.61677e-07
2.27016e-07
5.39731e-06
7.91951e-07
2.43816e-07
5.12143e-06
7.91938e-07
2.29704e-07
4.78572e-06
7.91873e-07
2.12451e-07
4.38503e-06
7.91771e-07
1.91611e-07
3.92527e-06
7.9167e-07
1.67121e-07
3.43487e-06
7.91648e-07
1.39852e-07
2.97623e-06
7.91856e-07
1.12372e-07
2.64413e-06
7.92573e-07
8.94845e-08
2.53914e-06
7.94386e-07
7.76465e-08
7.99511e-07
8.37724e-08
4.22952e-06
1.77613e-07
3.95842e-06
1.62762e-07
3.67436e-06
1.46959e-07
3.38742e-06
1.30654e-07
3.11231e-06
1.14565e-07
2.86809e-06
9.96927e-08
2.67651e-06
8.72744e-08
2.5599e-06
7.86646e-08
2.54443e-06
7.5325e-08
7.98952e-08
6.90391e-06
7.82977e-07
3.23197e-07
6.90174e-06
7.83614e-07
3.23096e-07
6.89875e-06
7.83971e-07
3.22962e-07
6.89438e-06
7.83833e-07
3.22774e-07
6.88736e-06
7.82726e-07
3.22492e-07
6.87415e-06
7.79439e-07
3.22024e-07
6.83913e-06
7.70142e-07
3.21091e-07
5.82289e-06
7.3823e-07
3.18361e-07
3.94771e-06
5.51285e-07
2.26148e-07
3.33754e-07
2.31259e-07
6.85261e-06
7.87181e-07
3.20714e-07
6.83699e-06
7.8674e-07
3.20097e-07
6.8135e-06
7.85904e-07
3.1924e-07
6.7753e-06
7.84445e-07
3.17989e-07
6.70595e-06
7.819e-07
3.16048e-07
6.55705e-06
7.77125e-07
3.12781e-07
6.1377e-06
7.66513e-07
3.06686e-07
4.58476e-06
7.34322e-07
2.94344e-07
3.50167e-06
6.04282e-07
2.82262e-07
6.0915e-07
3.51258e-07
5.37211e-06
7.88514e-07
2.43127e-07
5.09514e-06
7.88024e-07
2.29203e-07
4.75888e-06
7.87378e-07
2.1224e-07
4.35902e-06
7.8657e-07
1.91861e-07
3.90296e-06
7.85611e-07
1.68122e-07
3.42123e-06
7.84553e-07
1.42086e-07
2.97835e-06
7.83515e-07
1.16589e-07
2.67114e-06
7.82689e-07
9.67823e-08
2.60916e-06
7.82279e-07
8.98778e-08
7.82259e-07
1.06501e-07
4.21065e-06
1.77334e-07
3.94304e-06
1.62835e-07
3.6625e-06
1.4743e-07
3.37929e-06
1.31588e-07
3.10855e-06
1.16064e-07
2.87004e-06
1.0193e-07
2.68646e-06
9.05363e-08
2.58224e-06
8.34554e-08
2.59235e-06
8.27661e-08
9.38912e-08
6.90155e-06
7.8045e-07
3.2309e-07
6.89901e-06
7.80705e-07
3.22973e-07
6.8955e-06
7.80487e-07
3.22818e-07
6.89036e-06
7.79426e-07
3.226e-07
6.88211e-06
7.76716e-07
3.22274e-07
6.86656e-06
7.70349e-07
3.21732e-07
6.82532e-06
7.54401e-07
3.20656e-07
5.80048e-06
7.08323e-07
3.17518e-07
3.95747e-06
5.40822e-07
2.26675e-07
3.38902e-07
2.36289e-07
6.82554e-06
7.83626e-07
3.20014e-07
6.8015e-06
7.82495e-07
3.19263e-07
6.76481e-06
7.80693e-07
3.18229e-07
6.70448e-06
7.77816e-07
3.16747e-07
6.59445e-06
7.73047e-07
3.14521e-07
6.36241e-06
7.64436e-07
3.11011e-07
5.77493e-06
7.46293e-07
3.05375e-07
4.37997e-06
6.9906e-07
2.98477e-07
3.59809e-06
5.8992e-07
3.1284e-07
5.99392e-07
3.74181e-07
5.34323e-06
7.84943e-07
2.42515e-07
5.06644e-06
7.83952e-07
2.28853e-07
4.73103e-06
7.82693e-07
2.12279e-07
4.3335e-06
7.81131e-07
1.92491e-07
3.88286e-06
7.7925e-07
1.6968e-07
3.41208e-06
7.77071e-07
1.45121e-07
2.98809e-06
7.74675e-07
1.21946e-07
2.70976e-06
7.72149e-07
1.05665e-07
2.69398e-06
7.69286e-07
1.04179e-07
7.63916e-07
1.31184e-07
4.19362e-06
1.77373e-07
3.92931e-06
1.63226e-07
3.6523e-06
1.48235e-07
3.37304e-06
1.32894e-07
3.10719e-06
1.18007e-07
2.87526e-06
1.04722e-07
2.701e-06
9.45189e-08
2.61105e-06
8.92113e-08
2.64912e-06
9.15258e-08
1.09579e-07
6.89923e-06
7.77868e-07
3.22533e-07
6.89629e-06
7.77727e-07
3.22427e-07
6.89225e-06
7.76915e-07
3.22276e-07
6.88633e-06
7.74908e-07
3.22056e-07
6.8768e-06
7.70583e-07
3.21711e-07
6.85885e-06
7.61246e-07
3.21123e-07
6.81129e-06
7.39609e-07
3.1993e-07
5.77813e-06
6.85964e-07
3.16417e-07
3.97093e-06
5.37378e-07
2.2714e-07
3.45906e-07
2.41859e-07
6.79727e-06
7.79957e-07
3.18911e-07
6.76454e-06
7.78115e-07
3.18084e-07
6.71435e-06
7.75316e-07
3.16952e-07
6.63166e-06
7.70981e-07
3.15359e-07
6.48194e-06
7.63956e-07
3.13058e-07
6.17652e-06
7.51592e-07
3.09726e-07
5.48577e-06
7.26861e-07
3.05471e-07
4.25229e-06
6.71186e-07
3.04915e-07
3.68805e-06
5.8237e-07
3.31829e-07
5.91193e-07
3.86714e-07
5.3156e-06
7.81281e-07
2.41799e-07
5.03894e-06
7.79771e-07
2.28463e-07
4.70448e-06
7.77873e-07
2.1236e-07
4.30969e-06
7.75523e-07
1.93275e-07
3.86538e-06
7.72672e-07
1.71546e-07
3.40712e-06
7.69312e-07
1.48676e-07
3.00439e-06
7.65487e-07
1.28099e-07
2.75748e-06
7.61185e-07
1.15643e-07
2.78737e-06
7.55815e-07
1.19728e-07
7.45423e-07
1.56095e-07
4.18062e-06
1.77486e-07
3.91893e-06
1.63711e-07
3.6449e-06
1.49165e-07
3.36932e-06
1.34375e-07
3.10842e-06
1.20198e-07
2.88356e-06
1.0787e-07
2.71963e-06
9.90099e-08
2.64541e-06
9.56788e-08
2.71237e-06
1.01236e-07
1.26157e-07
6.89695e-06
7.75252e-07
6.89362e-06
7.74707e-07
6.88903e-06
7.7329e-07
6.88229e-06
7.70328e-07
6.87146e-06
7.64407e-07
6.85105e-06
7.52276e-07
6.79703e-06
7.25991e-07
5.75585e-06
6.69262e-07
3.98718e-06
5.35494e-07
3.53055e-07
6.7683e-06
7.76223e-07
6.72673e-06
7.73655e-07
6.66288e-06
7.69841e-07
6.55796e-06
7.64028e-07
6.37038e-06
7.54752e-07
6.0024e-06
7.38804e-07
5.2553e-06
7.08531e-07
4.16982e-06
6.48952e-07
3.76441e-06
5.76414e-07
5.83412e-07
5.2914e-06
7.77566e-07
5.01458e-06
7.75522e-07
4.68083e-06
7.72964e-07
4.28872e-06
7.69797e-07
3.85104e-06
7.65941e-07
3.40621e-06
7.61364e-07
3.02623e-06
7.56079e-07
2.81191e-06
7.49995e-07
2.88442e-06
7.42198e-07
7.27438e-07
4.17176e-06
3.91204e-06
3.64044e-06
3.36818e-06
3.11216e-06
2.8947e-06
2.74186e-06
2.6844e-06
2.78004e-06
)
;

boundaryField
{
    inlet
    {
        type            calculated;
        value           nonuniform 0();
    }
    outlet
    {
        type            calculated;
        value           nonuniform 0();
    }
    bottom
    {
        type            calculated;
        value           uniform 0;
    }
    top
    {
        type            symmetryPlane;
        value           uniform 0;
    }
    side1
    {
        type            symmetryPlane;
        value           uniform 0;
    }
    side2
    {
        type            symmetryPlane;
        value           nonuniform 0();
    }
    procBoundary2to1
    {
        type            processor;
        value           nonuniform List<scalar> 
20
(
-6.90761e-06
-6.88398e-06
-5.61984e-06
-4.47432e-06
-6.90555e-06
-6.86349e-06
-5.59255e-06
-4.4524e-06
-6.9035e-06
-6.842e-06
-5.56408e-06
-4.43416e-06
-6.90149e-06
-6.81958e-06
-5.53823e-06
-4.42095e-06
-6.89952e-06
-6.7967e-06
-5.51634e-06
-4.41245e-06
)
;
    }
    procBoundary2to3
    {
        type            processor;
        value           nonuniform List<scalar> 
20
(
2.85085e-06
3.55695e-06
3.17812e-06
3.18294e-06
3.24942e-06
4.05928e-06
3.38112e-06
3.31658e-06
3.45371e-06
4.12577e-06
3.49582e-06
3.4095e-06
3.5863e-06
4.17283e-06
3.58691e-06
3.48564e-06
3.68505e-06
4.20907e-06
3.66677e-06
3.55305e-06
)
;
    }
    procBoundary2to10
    {
        type            processor;
        value           nonuniform List<scalar> 
50
(
7.92373e-07
7.92354e-07
7.92349e-07
7.92389e-07
7.92514e-07
7.92794e-07
7.93338e-07
7.9436e-07
7.96425e-07
8.02079e-07
7.89419e-07
7.89129e-07
7.88822e-07
7.88523e-07
7.88267e-07
7.8811e-07
7.88127e-07
7.88436e-07
7.89291e-07
7.91713e-07
7.86356e-07
7.85777e-07
7.85142e-07
7.8447e-07
7.83787e-07
7.83131e-07
7.82534e-07
7.82001e-07
7.81433e-07
7.80225e-07
7.83222e-07
7.82337e-07
7.81351e-07
7.80274e-07
7.79123e-07
7.77915e-07
7.76633e-07
7.75159e-07
7.73024e-07
7.68043e-07
7.80038e-07
7.7883e-07
7.77471e-07
7.75962e-07
7.74308e-07
7.72502e-07
7.70479e-07
7.67994e-07
7.6421e-07
7.55522e-07
)
;
    }
}


// ************************************************************************* //
