/*--------------------------------*- C++ -*----------------------------------*\
| =========                 |                                                 |
| \\      /  F ield         | OpenFOAM: The Open Source CFD Toolbox           |
|  \\    /   O peration     | Version:  2.4.0                                 |
|   \\  /    A nd           | Web:      www.OpenFOAM.org                      |
|    \\/     M anipulation  |                                                 |
\*---------------------------------------------------------------------------*/
FoamFile
{
    version     2.0;
    format      ascii;
    class       surfaceScalarField;
    location    "0.03";
    object      phib;
}
// * * * * * * * * * * * * * * * * * * * * * * * * * * * * * * * * * * * * * //

dimensions      [0 3 -1 0 0 0 0];

internalField   nonuniform List<scalar> 
490
(
-1.45994e-05
-5.01468e-06
-3.22743e-06
-1.43029e-05
-9.75713e-06
-1.66945e-06
-1.32687e-05
-1.51264e-05
6.65264e-07
-1.06266e-05
-2.56088e-05
5.8977e-07
-1.289e-05
-2.96569e-05
1.47133e-06
-6.82253e-06
-4.35896e-05
4.4167e-06
2.63001e-07
-4.00207e-05
-3.93486e-06
1.67471e-05
-6.34289e-05
4.68961e-06
2.50349e-05
-6.2441e-05
9.62682e-06
-6.75312e-05
8.20337e-06
-1.78552e-05
-8.62775e-07
-1.70105e-06
-2.10869e-05
-6.58843e-06
6.29623e-08
-1.91944e-05
-1.86668e-05
1.64759e-06
-2.31972e-05
-2.45306e-05
2.90826e-06
-2.59085e-05
-3.31799e-05
6.23343e-06
-4.58629e-05
-3.91947e-05
1.55781e-05
-3.42289e-05
-5.84416e-05
6.78768e-06
-2.56777e-05
-8.07646e-05
8.78451e-06
-1.68074e-05
-7.1045e-05
-2.66411e-07
-7.3433e-05
-1.61935e-06
-1.87998e-05
5.49241e-06
-5.93675e-07
-2.21265e-05
-3.95487e-06
6.93108e-07
-2.74778e-05
-1.75292e-05
4.21376e-06
-2.36427e-05
-3.10502e-05
2.68485e-06
-2.57583e-05
-3.72076e-05
6.16868e-06
-2.25982e-05
-4.30845e-05
7.30611e-07
-3.06626e-05
-5.79257e-05
7.54856e-06
-1.8272e-05
-8.85843e-05
-4.57092e-06
-1.24044e-05
-7.06667e-05
-6.24593e-06
-6.11881e-05
-8.12832e-06
6.86662e-06
-1.46464e-06
3.22045e-06
1.87745e-06
-1.64618e-05
3.30446e-06
-1.98114e-05
9.40647e-06
-1.10966e-05
1.89216e-06
-7.83294e-06
4.6172e-06
-5.54144e-06
-1.90625e-06
-4.07943e-05
3.65444e-06
-2.587e-05
-2.19475e-07
-5.07325e-07
-1.91962e-05
-1.78399e-05
-2.9434e-06
-2.30789e-05
-2.00654e-05
-2.83909e-06
-2.4861e-05
-2.68757e-05
8.82598e-07
-3.07334e-05
-2.94572e-05
4.60097e-06
-3.05909e-05
-4.11718e-05
5.67943e-06
-3.05688e-05
-6.01552e-05
9.07726e-06
-2.27449e-05
-7.72182e-05
3.60408e-06
-5.63092e-06
-6.98971e-05
7.21777e-06
-8.79193e-06
-6.01026e-05
1.3749e-05
-6.44968e-05
1.24552e-05
-2.91144e-05
-1.29499e-05
-1.92004e-06
-2.82626e-05
-1.97178e-05
-1.13652e-06
-3.17313e-05
-2.29226e-05
1.16324e-06
-2.71924e-05
-3.1975e-05
8.87025e-07
-2.7259e-05
-4.18842e-05
7.00829e-06
-2.29441e-05
-6.01402e-05
1.12478e-05
-3.77949e-05
-6.3566e-05
7.98633e-06
-3.04505e-05
-7.62453e-05
7.78833e-06
-2.66793e-05
-5.39575e-05
-1.01826e-05
-5.18108e-05
-1.21413e-05
-2.99173e-05
-1.11052e-05
-1.60931e-06
-3.51811e-05
-1.42127e-05
4.51281e-07
-3.15895e-05
-2.19035e-05
-3.96818e-07
-3.59078e-05
-2.96249e-05
4.65303e-06
-3.36709e-05
-4.06741e-05
2.72184e-06
-4.26933e-05
-5.26716e-05
2.28435e-06
-2.74485e-05
-6.84544e-05
-2.80786e-06
-2.92186e-05
-5.21405e-05
-2.69056e-05
-2.70138e-05
-5.08536e-05
-1.15547e-05
-5.58378e-05
4.89883e-07
-3.14182e-05
-2.71455e-07
-3.67699e-05
-2.38332e-06
-4.7112e-05
4.15548e-06
-4.36195e-05
5.3628e-07
-5.08037e-05
2.96833e-06
-3.93329e-05
-1.41541e-05
-4.94162e-05
-1.78429e-05
-4.50086e-05
-7.21822e-06
-3.51077e-05
-6.9104e-06
-4.37229e-06
-2.19721e-05
-2.17919e-05
-4.63695e-06
-2.80335e-05
-2.64668e-05
-1.29664e-06
-3.32341e-05
-2.84738e-05
-2.51579e-06
-3.52512e-05
-3.89587e-05
4.17129e-06
-3.50031e-05
-5.00913e-05
7.21114e-06
-2.50081e-05
-6.01058e-05
5.38243e-06
-2.48849e-05
-5.82389e-05
6.99909e-06
-2.26336e-05
-5.83702e-05
5.37234e-06
-2.85815e-05
-3.85215e-05
-1.85534e-06
-3.54313e-05
-9.85607e-07
-2.75804e-05
-2.16172e-05
6.58817e-07
-3.08682e-05
-2.09272e-05
-3.4006e-06
-2.88055e-05
-2.92583e-05
-1.15426e-07
-2.98937e-05
-3.78875e-05
9.04152e-07
-2.45578e-05
-5.06729e-05
2.25388e-06
-1.55364e-05
-6.07958e-05
2.9165e-06
-1.72157e-05
-5.22128e-05
3.63951e-06
-4.65371e-05
-1.56067e-05
-5.65376e-06
-7.20634e-05
-1.24495e-05
-1.07283e-05
-4.87429e-05
-1.69681e-05
-3.59421e-05
-1.7079e-05
-2.49634e-06
-3.59413e-05
-2.10193e-05
5.42599e-07
-3.88394e-05
-2.61725e-05
-5.63182e-07
-3.70683e-05
-3.66107e-05
1.60567e-06
-3.0047e-05
-5.69982e-05
2.02584e-06
-3.77709e-05
-5.39899e-05
3.20238e-06
-7.919e-05
-8.43489e-06
-5.16662e-06
-9.42126e-05
-1.48821e-06
-2.60015e-05
-6.85426e-05
-3.65096e-05
-1.31645e-05
-6.70285e-05
2.17394e-06
-4.14618e-05
-1.36779e-06
-4.69461e-05
-1.6292e-06
-4.97018e-05
8.89394e-07
-5.84452e-05
1.57446e-06
-6.20366e-05
4.11637e-06
-0.000112042
-1.49353e-05
-0.000103807
-2.93115e-05
-6.77058e-05
-6.83275e-06
-6.36192e-05
-2.15396e-06
-9.84957e-06
-5.78762e-06
-2.11744e-05
2.71518e-06
-5.96571e-06
-2.19351e-05
-5.39472e-06
-2.66841e-06
-2.86115e-05
-4.54493e-06
3.23957e-06
-3.22939e-05
-4.91144e-06
-1.37366e-05
-3.98209e-05
-6.96554e-07
-8.64898e-06
-4.98176e-05
2.3291e-06
-4.43524e-06
-4.76162e-05
4.81713e-06
-2.77379e-06
-3.87492e-05
4.56539e-06
-1.11522e-06
-5.03743e-05
1.44873e-06
-5.03884e-05
2.26399e-07
-6.12431e-06
-1.86414e-05
-1.70921e-06
-1.30714e-05
-2.27443e-05
4.35557e-06
-9.88294e-06
-2.61118e-05
-5.80353e-06
-6.11419e-06
-3.30278e-05
-2.13069e-06
-1.23342e-06
-3.97812e-05
-2.66658e-06
-3.55673e-06
-4.55917e-05
1.01389e-06
-8.74671e-06
-3.98843e-05
1.09755e-06
-1.39997e-05
-4.08453e-05
1.69536e-06
-2.79135e-05
-4.76801e-05
4.91271e-07
-5.77948e-05
-4.63708e-07
-1.76035e-05
-2.02469e-05
3.79932e-06
-1.51686e-05
-2.17552e-05
-2.88094e-06
-1.84837e-05
-2.76269e-05
4.26717e-06
-1.31632e-05
-3.05831e-05
-6.1595e-06
-1.19693e-05
-3.6615e-05
-2.33431e-06
-1.81711e-05
-3.52272e-05
-9.60359e-07
-2.3176e-05
-4.06024e-05
5.56407e-07
-3.76154e-05
-4.89619e-05
-3.44551e-06
-4.5621e-05
-5.06225e-05
-2.21642e-06
-5.86278e-05
-1.26215e-06
-2.67603e-05
-3.08274e-06
-2.95205e-05
2.01563e-06
-2.76956e-05
-4.11067e-06
-2.93307e-05
-3.42848e-07
-3.00016e-05
-1.69701e-06
-4.59602e-05
-1.24069e-06
-7.08393e-05
-4.91476e-06
-8.29336e-05
-2.64095e-06
-9.1642e-05
-1.61872e-06
2.51421e-06
2.59797e-05
-1.9146e-05
2.32669e-05
-2.12179e-05
1.852e-05
-2.30215e-05
1.81862e-05
-2.98355e-05
2.0766e-05
-3.48145e-05
1.92368e-05
-3.63588e-05
2.2202e-05
-3.73338e-05
2.69456e-05
-3.80926e-05
3.44952e-05
-3.94076e-05
-3.90441e-05
1.99731e-05
-1.97679e-05
2.36048e-05
-2.04937e-05
1.87921e-05
-2.40121e-05
1.51362e-05
-2.831e-05
1.14742e-05
-3.38188e-05
1.23598e-05
-3.62302e-05
1.44747e-05
-3.83508e-05
1.84495e-05
-4.03717e-05
2.23515e-05
-4.2818e-05
-4.5904e-05
9.85986e-06
-1.93879e-05
7.96762e-06
-2.14821e-05
1.10485e-05
-2.28255e-05
3.63511e-06
-2.70558e-05
-4.84882e-07
-3.20329e-05
-2.99629e-06
-3.46789e-05
-3.02715e-06
-3.77633e-05
-5.21038e-06
-4.16337e-05
-3.81243e-06
-4.64322e-05
-5.12051e-05
-1.18024e-05
-9.89297e-06
-1.38104e-05
-1.53135e-05
-2.04547e-05
-2.4445e-05
-3.16784e-05
-3.55657e-05
-3.77115e-05
)
;

boundaryField
{
    inlet
    {
        type            fixedValue;
        value           nonuniform 0();
    }
    outlet
    {
        type            calculated;
        value           nonuniform 0();
    }
    bottom
    {
        type            fixedValue;
        value           uniform 0;
    }
    top
    {
        type            symmetryPlane;
        value           nonuniform List<scalar> 
40
(
-2.75381e-10
-2.36749e-10
-2.63337e-10
-4.00036e-10
-2.91968e-10
-2.58706e-10
-2.50344e-10
-3.17427e-10
-2.88592e-10
-2.73748e-10
-2.88439e-10
-3.01775e-10
-2.21398e-10
-2.7226e-10
-2.96618e-10
-3.3855e-10
-3.0852e-10
-2.92752e-10
-2.94881e-10
-2.8524e-10
-4.0826e-10
-2.92733e-10
-2.72954e-10
-2.63082e-10
-4.02607e-10
-3.05385e-10
-2.64131e-10
-2.24404e-10
-4.06352e-10
-3.31379e-10
-2.50738e-10
-2.04948e-10
-3.2681e-10
-3.39058e-10
-2.4018e-10
-1.77187e-10
-2.43649e-10
-3.14396e-10
-2.17636e-10
-1.60744e-10
)
;
    }
    side1
    {
        type            symmetryPlane;
        value           nonuniform 0();
    }
    side2
    {
        type            symmetryPlane;
        value           nonuniform 0();
    }
    procBoundary20to12
    {
        type            processor;
        value           nonuniform List<scalar> 
50
(
1.15342e-05
1.11301e-05
1.34269e-05
2.23763e-05
3.04264e-05
3.31047e-05
3.68701e-05
4.22552e-05
4.45265e-05
4.41573e-05
1.91958e-05
2.51178e-05
2.84405e-05
3.13184e-05
3.68212e-05
5.54725e-05
6.18553e-05
5.02549e-05
5.91414e-05
6.09989e-05
2.53912e-05
3.09855e-05
3.70729e-05
4.14055e-05
4.83114e-05
5.38056e-05
5.47207e-05
5.79643e-05
6.00737e-05
6.10393e-05
2.28766e-05
2.62113e-05
2.73433e-05
3.54686e-05
6.47048e-05
4.77833e-05
4.55844e-05
3.78947e-05
4.54116e-05
3.85986e-05
2.09132e-05
1.85363e-05
2.32238e-05
2.52581e-05
3.15385e-05
4.02174e-05
3.91862e-05
3.79147e-05
3.33072e-05
3.04659e-05
)
;
    }
    procBoundary20to19
    {
        type            processor;
        value           nonuniform List<scalar> 
20
(
1.13073e-05
1.54044e-05
1.30383e-05
-1.30451e-05
1.75562e-05
2.44434e-05
2.90881e-05
2.47895e-05
2.00664e-05
2.48265e-05
3.22695e-05
4.04708e-05
-3.26675e-06
5.95931e-06
1.29131e-05
2.70014e-05
-2.50314e-05
-2.10603e-05
-6.44027e-06
8.60575e-06
)
;
    }
    procBoundary20to21
    {
        type            processor;
        value           nonuniform List<scalar> 
20
(
4.02064e-05
-9.28617e-06
-1.65209e-05
-2.41276e-05
-9.54579e-06
-2.88438e-05
-3.16049e-05
-3.08848e-05
-4.07488e-05
-5.39249e-05
-5.19411e-05
-7.78899e-05
9.46255e-06
-3.70115e-05
-4.13519e-05
-0.000118997
4.32999e-05
2.87481e-05
2.26738e-07
-3.22557e-05
)
;
    }
    procBoundary20to28
    {
        type            processor;
        value           nonuniform List<scalar> 
50
(
1.31356e-05
-2.18615e-06
-1.15147e-06
-3.71071e-05
-4.78144e-05
-5.09654e-05
-5.8311e-05
-5.69859e-05
-8.53715e-05
-6.24232e-05
-5.66975e-06
-4.60021e-06
-1.24124e-05
-2.42471e-05
-3.45661e-05
-4.5371e-05
-4.24345e-05
-4.56754e-05
-5.40636e-05
-5.61958e-05
-1.49916e-05
-1.62767e-05
-2.01501e-05
-2.89055e-05
-5.45549e-05
-3.20356e-06
-5.20126e-06
-3.79746e-05
-4.53527e-05
-4.72805e-05
-1.87536e-05
-2.26393e-05
-2.44518e-05
-2.70307e-05
-3.01307e-05
-3.29633e-05
-4.012e-05
-4.10594e-05
-4.24494e-05
-4.36365e-05
-1.92733e-05
-2.13756e-05
-2.30185e-05
-2.58952e-05
-2.85884e-05
-3.1929e-05
-3.54443e-05
-4.03872e-05
-4.59049e-05
-5.41466e-05
)
;
    }
}


// ************************************************************************* //
