/*--------------------------------*- C++ -*----------------------------------*\
| =========                 |                                                 |
| \\      /  F ield         | OpenFOAM: The Open Source CFD Toolbox           |
|  \\    /   O peration     | Version:  2.4.0                                 |
|   \\  /    A nd           | Web:      www.OpenFOAM.org                      |
|    \\/     M anipulation  |                                                 |
\*---------------------------------------------------------------------------*/
FoamFile
{
    version     2.0;
    format      ascii;
    class       volScalarField;
    location    "0.04";
    object      p;
}
// * * * * * * * * * * * * * * * * * * * * * * * * * * * * * * * * * * * * * //

dimensions      [1 -1 -2 0 0 0 0];

internalField   nonuniform List<scalar> 
200
(
34626.1
36266.7
38578.2
33083
29138.4
26186.1
24324.9
20850.4
19808.3
12112.9
33486.7
32827.8
31670.5
30184.9
27573.1
24807.6
21967.9
20344.4
16465.5
13959.9
30582
29827.1
29280.4
28114.3
26644.3
23598.9
21470.7
19173.4
18031.9
16152.6
29662
29195.4
27775.9
26713.8
23760.5
22038.1
19609.7
18395.3
17229
16591.5
28084.7
31709.4
28428.6
25908.3
23577.1
21204.7
17207.6
16306
10903.4
11506.7
28642.8
28716.5
29697.2
25434.2
22544.7
20867.1
19192.1
16738.8
14658.1
11836.1
26674.9
25860.7
25504.3
24699.2
22268.2
20055.1
18900.7
17188
16162.5
14366.2
24999.8
24783
23875.6
22886.5
21039.8
19393.2
17402.7
17436.8
16353.3
16338.8
24529.4
23380.5
22797.3
22496
22093.3
19984.6
19452.1
17515.1
16736.1
16912.1
26071.8
24654.9
23711.4
23131.4
22521.2
21173.7
19674.5
19349.7
17082.1
15700.6
25885.2
25102.6
24309.1
22481.1
21487.4
20993.7
19732.9
19298.7
19036.8
16119.2
25510.3
24115.6
23172.6
21601.8
20433
19594.8
19886.1
20058.1
20594.6
19347.6
24252
23431.1
22465.8
22058.1
21267.4
20508.8
19615.8
18503.6
17861.5
18349.4
23115.5
22585.9
21613.9
20689.3
20475
19653.7
19352
18041.6
19148.5
17623.1
21958.1
21074.7
20726.2
20084.2
19630
19759.2
19485.2
19649.9
19051.5
18629.1
17756.9
20076.2
19070
19348.2
19496.4
19997.2
20841.7
21243.2
21676
20923
26742.6
26605.2
25555.1
24872.1
24189.4
23496.3
22937.2
22042.5
22208.8
20701.1
26604.2
25382.2
24480
23728
23050.7
22492.5
21645.8
21583.9
20794.7
20731.5
24632.2
24317
23220.9
22677.3
22228.3
21760.6
21543.7
20946.1
20718.4
19735.2
23444.4
20910.7
21541.5
21013.5
21270.6
21466.3
21651.4
21950.9
21739.7
21211.3
)
;

boundaryField
{
    inlet
    {
        type            zeroGradient;
    }
    outlet
    {
        type            fixedValue;
        value           nonuniform 0();
    }
    bottom
    {
        type            zeroGradient;
    }
    top
    {
        type            symmetryPlane;
    }
    side1
    {
        type            symmetryPlane;
    }
    side2
    {
        type            symmetryPlane;
    }
    procBoundary13to5
    {
        type            processor;
        value           nonuniform List<scalar> 
50
(
31802.9
32274.4
32217.6
32218.4
29655
28241.2
25559.1
24852.9
23094.6
17631.6
22335.8
22788.4
23954.3
24083.8
22656.7
19279.4
19329.9
13882.5
9845.84
7227.42
24134.8
23177.8
22154.6
22811.7
21768.3
21225.6
20125.9
17817.9
16801.2
16098.2
25193.7
25348.5
24387
23890.4
22973.4
22399.1
21156.3
19934.5
18236.7
16562.5
28379
27599.3
27254.7
26377.2
25766.2
24908.1
24099.5
23587.5
22379.7
22416.7
)
;
    }
    procBoundary13to12
    {
        type            processor;
        value           nonuniform List<scalar> 
20
(
34104.5
33208.3
31081.7
30766.3
27536.5
29358.6
27240.5
25576.2
25358.8
27090.7
26947.2
25403.5
24793
23948.9
19583.6
22172.6
27773.7
27338.7
27071.1
24749.5
)
;
    }
    procBoundary13to14
    {
        type            processor;
        value           nonuniform List<scalar> 
20
(
9794.25
8157.17
15021.7
16446.9
8225.14
10454.7
13598.3
15512.9
14463.4
14805.4
15458
18045.6
17352.2
17976.5
17453.5
21454.3
20599.3
19873
18202.7
20932
)
;
    }
    procBoundary13to21
    {
        type            processor;
        value           nonuniform List<scalar> 
50
(
30170.4
27821.4
26432.6
23000.7
21061.7
19236.2
18708
18182
17444.4
17907
25729
24571.5
23037.6
20101.1
18789.5
17202.8
17271.1
16341.8
17806.4
17625.2
24743.6
24238.8
21240.8
20940.3
19375.1
19825.6
19774.5
20960
21097.7
23229.3
20092.6
15576.6
17945.2
17050.1
18929.6
20001
22052
23873.9
25494.8
27334.9
18020.5
17394.8
15929.8
18839.7
19285.6
21131.8
22327.1
23622.5
24813.9
25311.7
)
;
    }
}


// ************************************************************************* //
