/*--------------------------------*- C++ -*----------------------------------*\
| =========                 |                                                 |
| \\      /  F ield         | OpenFOAM: The Open Source CFD Toolbox           |
|  \\    /   O peration     | Version:  2.4.0                                 |
|   \\  /    A nd           | Web:      www.OpenFOAM.org                      |
|    \\/     M anipulation  |                                                 |
\*---------------------------------------------------------------------------*/
FoamFile
{
    version     2.0;
    format      ascii;
    class       surfaceScalarField;
    location    "0.04";
    object      phia;
}
// * * * * * * * * * * * * * * * * * * * * * * * * * * * * * * * * * * * * * //

dimensions      [0 3 -1 0 0 0 0];

internalField   nonuniform List<scalar> 
490
(
5.43431e-05
-6.37786e-06
-6.05378e-06
5.43454e-05
-6.37824e-06
-6.05417e-06
5.43431e-05
-6.37836e-06
-6.05144e-06
3.90596e-05
-6.37776e-06
-1.75578e-06
4.25138e-06
-3.24398e-06
1.61556e-06
-1.51861e-05
2.10736e-06
4.5695e-06
-1.49765e-05
6.74677e-06
4.50563e-06
-1.47038e-05
6.8848e-06
4.42352e-06
-1.47045e-05
7.0075e-06
4.31582e-06
9.07582e-06
4.4231e-06
5.43438e-05
-6.37798e-06
-6.05386e-06
5.43458e-05
-6.37829e-06
-6.05421e-06
5.43465e-05
-6.3784e-06
-6.05433e-06
5.43457e-05
-6.37845e-06
-6.05307e-06
4.7008e-05
-6.37821e-06
-2.27838e-06
1.49221e-05
-4.6571e-06
1.04085e-06
-1.05507e-05
1.97514e-06
4.94776e-06
-1.20173e-05
2.23594e-06
4.35589e-06
-2.12462e-05
8.43727e-06
3.71929e-06
1.08841e-05
6.22846e-08
5.43446e-05
-6.37792e-06
-6.05397e-06
5.43462e-05
-6.37827e-06
-6.05427e-06
5.43468e-05
-6.37839e-06
-6.05437e-06
5.43466e-05
-6.37834e-06
-6.05296e-06
5.12465e-05
-5.77672e-06
-8.95222e-07
3.09898e-05
-3.86999e-06
4.3903e-06
1.34687e-05
-1.90596e-06
1.17579e-05
-8.27981e-06
-1.81271e-06
1.12354e-05
-3.13111e-05
9.94455e-06
3.46616e-06
1.12491e-05
-4.17483e-07
5.43438e-05
-6.05385e-06
5.43458e-05
-6.05421e-06
5.43456e-05
-6.05098e-06
4.89772e-05
1.11855e-06
2.97406e-05
6.6383e-06
1.57321e-05
1.36196e-05
1.53916e-05
1.33716e-05
-5.7847e-06
1.30309e-05
-2.98589e-05
5.21496e-06
1.53079e-06
5.4343e-05
-6.37769e-06
-7.29121e-06
5.43267e-05
-6.37814e-06
-6.80485e-06
2.62951e-05
-6.37446e-06
-6.46157e-06
-8.50148e-06
-6.28645e-07
2.12974e-06
-1.51899e-05
4.29781e-06
4.61959e-06
-1.4976e-05
6.50257e-06
4.56852e-06
-1.4703e-05
6.60849e-06
4.50454e-06
-1.43449e-05
6.69418e-06
4.423e-06
-1.43449e-05
6.73784e-06
4.31574e-06
7.00088e-06
4.42344e-06
5.43431e-05
-6.37786e-06
-6.05393e-06
5.43454e-05
-6.37824e-06
-6.05423e-06
5.43398e-05
-6.37836e-06
-6.05432e-06
3.49629e-05
-6.3769e-06
-6.04988e-06
3.61757e-06
-1.54885e-06
2.41072e-06
-8.98192e-06
1.7241e-06
5.49994e-06
-1.02405e-05
1.92427e-06
4.95146e-06
-1.14824e-05
2.13091e-06
4.35928e-06
-1.23986e-05
2.51414e-06
3.73147e-06
5.3078e-06
3.89468e-06
5.43438e-05
-6.37778e-06
-6.05386e-06
5.43458e-05
-6.37821e-06
-6.05421e-06
5.43434e-05
-6.37763e-06
-6.05433e-06
4.31023e-05
-4.83704e-06
-6.04938e-06
2.28636e-05
-2.95226e-06
5.81829e-06
1.36099e-05
-1.91652e-06
1.21667e-05
1.30336e-05
-1.86262e-06
1.17771e-05
1.21097e-05
-1.79257e-06
1.12806e-05
2.20958e-06
-1.58551e-06
1.11213e-05
2.89641e-06
5.67851e-06
5.4343e-05
-6.0171e-06
5.4339e-05
-6.04516e-06
4.05868e-05
-6.03927e-06
2.13558e-05
9.52493e-06
1.57448e-05
1.38196e-05
1.54569e-05
1.36248e-05
1.50804e-05
1.33765e-05
1.50784e-05
1.30508e-05
8.62293e-06
1.33753e-05
9.44548e-06
8.67644e-05
-3.86814e-06
-8.51932e-06
7.66605e-05
-4.09053e-06
-7.5514e-06
3.94301e-05
-4.27586e-06
-6.82581e-06
-4.49983e-06
-5.85736e-07
-2.21444e-06
-1.5325e-05
5.18242e-06
5.18071e-07
-1.51662e-05
6.61254e-06
4.6145e-06
-1.49626e-05
6.75068e-06
4.56692e-06
-1.46991e-05
6.88359e-06
4.50412e-06
-1.47033e-05
7.0007e-06
4.42355e-06
7.20235e-06
4.50558e-06
5.43472e-05
-6.37717e-06
-6.785e-06
5.43474e-05
-6.37783e-06
-6.40395e-06
5.43322e-05
-6.37804e-06
-6.09749e-06
3.05315e-05
-6.37454e-06
-5.84434e-06
-8.75921e-07
-3.6592e-07
3.79489e-07
-9.17003e-06
1.75657e-06
5.64321e-06
-1.05482e-05
1.97102e-06
5.10775e-06
-1.1979e-05
2.19887e-06
4.52353e-06
-1.29438e-05
2.65542e-06
3.89599e-06
4.52927e-06
4.02436e-06
5.43431e-05
-6.37566e-06
-5.40177e-06
5.43454e-05
-6.37765e-06
-5.88183e-06
5.43388e-05
-6.37641e-06
-5.98396e-06
4.00508e-05
-4.59307e-06
-6.00838e-06
2.00164e-05
-2.62337e-06
8.15626e-06
1.40607e-05
-1.95882e-06
1.24825e-05
1.36071e-05
-1.9162e-06
1.21681e-05
1.26379e-05
-1.86242e-06
1.17771e-05
5.76508e-06
-1.6231e-06
1.14979e-05
1.20019e-06
7.6655e-06
5.43055e-05
7.33037e-07
5.43196e-05
6.80085e-07
3.8391e-05
6.20869e-07
1.9272e-05
9.59043e-06
1.59705e-05
1.39761e-05
1.5744e-05
1.38203e-05
1.54572e-05
1.36249e-05
1.54559e-05
1.33769e-05
1.17487e-05
1.3624e-05
1.11709e-05
8.86487e-05
-7.03753e-07
-8.2924e-06
7.91192e-05
-6.67082e-07
-7.29509e-06
7.14172e-05
-6.44494e-07
-6.50865e-06
5.74561e-05
-6.31555e-07
-5.87235e-06
1.58108e-05
8.88273e-07
-4.33859e-06
-1.52927e-05
6.69994e-06
8.38944e-08
-1.51612e-05
6.86625e-06
4.5791e-06
-1.4967e-05
7.03372e-06
4.56228e-06
-1.49763e-05
7.20219e-06
4.50098e-06
7.3618e-06
4.56503e-06
7.8659e-05
-3.49792e-06
-7.27938e-06
7.09072e-05
-3.52936e-06
-6.49695e-06
6.46249e-05
-3.54499e-06
-5.86942e-06
5.19544e-05
-3.55901e-06
-5.35675e-06
1.67655e-05
-1.13598e-06
-3.60015e-06
-9.30512e-06
1.78204e-06
8.34579e-07
-1.07936e-05
2.0097e-06
5.19536e-06
-1.23686e-05
2.25431e-06
4.64994e-06
-1.3373e-05
2.76514e-06
4.02095e-06
4.21625e-06
4.1239e-06
5.37123e-05
-5.97257e-06
-5.48963e-06
5.41651e-05
-6.00227e-06
-5.65209e-06
5.42544e-05
-6.01197e-06
-5.49399e-06
3.86604e-05
-5.67392e-06
-5.30543e-06
1.88221e-05
-2.48289e-06
2.63702e-06
1.44248e-05
-1.9931e-06
1.26823e-05
1.40585e-05
-1.95858e-06
1.24674e-05
1.30523e-05
-1.91593e-06
1.21538e-05
7.50704e-06
-1.65235e-06
1.17869e-05
4.56262e-07
8.7381e-06
4.34827e-05
7.18332e-06
4.35525e-05
6.83337e-06
4.10274e-05
6.32243e-06
2.73484e-05
6.65426e-06
1.61573e-05
1.40754e-05
1.59701e-05
1.39604e-05
1.57442e-05
1.38046e-05
1.57431e-05
1.3611e-05
1.31417e-05
1.38039e-05
1.20051e-05
8.37369e-05
-6.28728e-07
7.36487e-05
-5.52984e-07
6.57039e-05
-4.93332e-07
5.92836e-05
-4.45127e-07
5.33759e-05
-4.05339e-07
1.77136e-05
-2.28796e-07
-1.5093e-05
6.91096e-06
-1.5176e-05
7.15615e-06
-1.51915e-05
7.36172e-06
7.49125e-06
7.36482e-05
-5.59179e-07
6.57038e-05
-5.02832e-07
5.92837e-05
-4.58595e-07
5.39869e-05
-4.23023e-07
4.89078e-05
-4.21481e-07
1.82159e-05
-1.07355e-06
-1.08041e-05
2.02061e-06
-1.26832e-05
2.30068e-06
-1.372e-05
2.8528e-06
4.06055e-06
6.56681e-05
-2.99164e-06
5.92631e-05
-2.83071e-06
5.39886e-05
-2.61321e-06
4.90004e-05
-2.29362e-06
3.07027e-05
-1.29353e-06
1.47926e-05
-2.01724e-06
1.44224e-05
-1.99283e-06
1.33868e-05
-1.95826e-06
8.57641e-06
-1.67591e-06
3.51257e-08
4.44093e-05
4.47398e-05
4.38948e-05
2.96862e-05
1.63273e-05
1.61524e-05
1.59705e-05
1.59695e-05
1.39619e-05
)
;

boundaryField
{
    inlet
    {
        type            calculated;
        value           nonuniform 0();
    }
    outlet
    {
        type            calculated;
        value           nonuniform 0();
    }
    bottom
    {
        type            calculated;
        value           uniform 0;
    }
    top
    {
        type            symmetryPlane;
        value           uniform 0;
    }
    side1
    {
        type            symmetryPlane;
        value           nonuniform 0();
    }
    side2
    {
        type            symmetryPlane;
        value           nonuniform 0();
    }
    procBoundary13to5
    {
        type            processor;
        value           nonuniform List<scalar> 
50
(
6.37774e-06
6.37818e-06
6.37648e-06
1.45231e-06
-4.3128e-06
-8.29369e-06
-8.24571e-06
-8.1844e-06
-8.10562e-06
-8.18456e-06
5.32898e-06
5.71154e-06
-4.79372e-07
-6.92753e-06
-8.29446e-06
-8.24559e-06
-8.18426e-06
-8.1054e-06
-8.0003e-06
-8.1054e-06
1.09222e-06
1.26778e-06
1.41396e-06
-6.06826e-06
-8.34866e-06
-8.30444e-06
-8.25153e-06
-8.18695e-06
-8.10549e-06
-8.18429e-06
7.56509e-07
6.65622e-07
5.94046e-07
5.35981e-07
-1.26034e-06
-8.35202e-06
-8.30772e-06
-8.25157e-06
-8.18439e-06
-8.24565e-06
7.28149e-07
6.28735e-07
5.52986e-07
4.93332e-07
4.45108e-07
2.43836e-07
-8.29939e-06
-8.30455e-06
-8.24581e-06
-8.29479e-06
)
;
    }
    procBoundary13to12
    {
        type            processor;
        value           nonuniform List<scalar> 
20
(
-5.09092e-05
-5.04193e-05
-4.97659e-05
-5.04127e-05
-5.16725e-05
-5.09027e-05
-5.04185e-05
-5.08987e-05
-0.000101238
-5.40083e-05
-5.09056e-05
-4.90327e-05
-0.000100749
-8.83723e-05
-4.85245e-05
-4.34574e-05
-9.69753e-05
-8.37345e-05
-7.3583e-05
-4.39425e-05
)
;
    }
    procBoundary13to14
    {
        type            processor;
        value           nonuniform List<scalar> 
20
(
-1.65508e-05
-3.13447e-05
-3.29585e-05
-3.29582e-05
-1.47031e-05
-1.45638e-05
-2.00153e-05
-1.5489e-05
-1.49761e-05
-1.42384e-05
-1.66526e-05
-1.25054e-05
-1.51911e-05
-1.43053e-05
-1.50569e-05
-1.12101e-05
-1.5365e-05
-1.44462e-05
-1.40988e-05
-1.04536e-05
)
;
    }
    procBoundary13to21
    {
        type            processor;
        value           nonuniform List<scalar> 
50
(
-4.81241e-06
-5.88482e-06
-6.15355e-06
-5.42643e-06
-3.75017e-06
-2.19332e-06
-2.17414e-06
-2.14234e-06
3.61845e-06
8.83372e-06
-4.65151e-06
-5.83227e-06
-4.63275e-06
-2.81055e-06
-2.19416e-06
-2.17773e-06
-2.15675e-06
-2.12878e-06
-2.15619e-06
-3.09798e-07
-4.50818e-06
-5.77943e-06
-4.5012e-06
-2.56706e-06
-2.20718e-06
-2.19406e-06
-2.17774e-06
-2.15677e-06
-2.17739e-06
-1.10499e-06
-5.36449e-06
-5.39255e-06
-5.27415e-06
-3.65482e-06
-2.2184e-06
-2.20712e-06
-2.19407e-06
-2.17777e-06
-2.19378e-06
-1.43783e-06
-5.27215e-06
-5.12793e-06
-4.85296e-06
-3.24804e-06
-2.22802e-06
-2.21776e-06
-2.20714e-06
-2.19411e-06
-2.20688e-06
-1.62297e-06
)
;
    }
}


// ************************************************************************* //
