/*--------------------------------*- C++ -*----------------------------------*\
| =========                 |                                                 |
| \\      /  F ield         | OpenFOAM: The Open Source CFD Toolbox           |
|  \\    /   O peration     | Version:  2.4.0                                 |
|   \\  /    A nd           | Web:      www.OpenFOAM.org                      |
|    \\/     M anipulation  |                                                 |
\*---------------------------------------------------------------------------*/
FoamFile
{
    version     2.0;
    format      ascii;
    class       volVectorField;
    location    "0.04";
    object      Ua;
}
// * * * * * * * * * * * * * * * * * * * * * * * * * * * * * * * * * * * * * //

dimensions      [0 1 -1 0 0 0 0];

internalField   nonuniform List<vector> 
200
(
(14.3494 1.71371 7.24104)
(14.3688 1.72311 7.24802)
(14.3494 1.71371 7.24104)
(14.3299 1.70429 7.23402)
(14.0064 1.61841 7.04823)
(3.40947 -1.01537 0.83627)
(5.08729 2.40827 2.44699)
(6.46148 5.03458 3.49721)
(5.58109 5.08126 4.02663)
(-20.9396 -22.097 2.51002)
(14.3688 1.72312 7.24802)
(14.3883 1.73254 7.25501)
(14.3688 1.72312 7.24802)
(14.3494 1.71371 7.24104)
(14.33 1.70431 7.23406)
(14.2701 1.68559 7.20376)
(13.9511 1.62358 6.77608)
(5.71645 -0.668128 -12.1919)
(5.58659 -0.705587 -12.4942)
(1.5394 -3.86902 -10.1434)
(14.3494 1.71371 7.24104)
(14.3688 1.72311 7.24802)
(14.3494 1.71371 7.24104)
(14.33 1.70431 7.23407)
(14.3106 1.69491 7.22692)
(13.8094 1.55388 6.15043)
(5.59045 -0.705715 -12.4957)
(5.56059 -0.713938 -12.5639)
(5.56057 -0.71394 -12.5639)
(5.56047 -0.714032 -12.5638)
(14.33 1.70431 7.23407)
(14.3494 1.7137 7.24103)
(14.33 1.70431 7.23406)
(14.3104 1.69487 7.22661)
(13.1429 1.36994 4.61786)
(5.56992 -0.711363 -12.5425)
(5.56055 -0.713937 -12.5639)
(5.56055 -0.713938 -12.5639)
(5.56055 -0.713937 -12.5639)
(5.56054 -0.713937 -12.5638)
(-32.9084 -21.1849 -9.74943)
(-32.9279 -21.1944 -9.75645)
(-32.9084 -21.1849 -9.74943)
(-32.7557 -21.1015 -9.70378)
(1.04697 -2.28755 0.103365)
(3.18486 -1.03829 0.727681)
(3.25269 -1.0598 0.742998)
(3.35109 -1.06936 0.483095)
(2.84779 -1.36846 0.166472)
(-53.4701 -28.2049 16.799)
(-32.928 -21.1944 -9.75646)
(-32.9475 -21.2039 -9.76349)
(-32.928 -21.1944 -9.75646)
(-32.9084 -21.1849 -9.74944)
(-32.8641 -21.1614 -9.73521)
(-9.40473 -7.8326 -2.91685)
(2.19704 -1.93849 -6.15858)
(5.55721 -0.714838 -12.5533)
(5.55928 -0.714268 -12.5595)
(4.72539 -1.09557 -12.1366)
(-32.9084 -21.1849 -9.74943)
(-32.9279 -21.1944 -9.75645)
(-32.9084 -21.1849 -9.74943)
(-32.8889 -21.1754 -9.74242)
(-32.7033 -21.0773 -9.74431)
(4.18581 -1.41492 -12.2079)
(5.56028 -0.714073 -12.5637)
(5.56058 -0.713942 -12.5639)
(5.56057 -0.713941 -12.5639)
(5.56056 -0.713948 -12.5639)
(-32.8889 -21.1755 -9.74241)
(-32.9084 -21.1849 -9.74943)
(-32.8888 -21.1754 -9.74242)
(-32.4535 -20.9447 -9.766)
(5.04666 -0.987428 -12.5259)
(5.56047 -0.713978 -12.5638)
(5.56055 -0.713938 -12.5639)
(5.56056 -0.713939 -12.5639)
(5.56055 -0.713938 -12.5639)
(5.56055 -0.713937 -12.5639)
(-32.9766 -21.2179 -9.77397)
(-32.9858 -21.2223 -9.7773)
(-30.7735 -19.995 -9.13463)
(3.11877 -1.1343 0.704348)
(3.18559 -1.03781 0.727896)
(3.09603 -1.00861 0.707434)
(3.18565 -1.03779 0.727728)
(3.29992 -1.05267 0.471435)
(2.87064 -1.32584 0.139278)
(-52.9372 -27.9026 16.6363)
(-32.9866 -21.2228 -9.77755)
(-32.9964 -21.2275 -9.78107)
(-32.9865 -21.2228 -9.77752)
(-32.5471 -20.9751 -9.64903)
(2.08866 -1.30065 0.430184)
(2.64941 -0.862635 0.596517)
(4.17133 -0.81017 -5.96411)
(5.55888 -0.714087 -12.5555)
(5.55972 -0.714087 -12.5603)
(4.81542 -1.0547 -12.1786)
(-32.9768 -21.2181 -9.77403)
(-32.9866 -21.2228 -9.77755)
(-32.9765 -21.2179 -9.77403)
(-31.4836 -20.4178 -9.82221)
(5.2302 -0.798563 -11.7835)
(5.49418 -0.714753 -12.2965)
(5.56054 -0.713943 -12.5638)
(5.56058 -0.713942 -12.5639)
(5.56058 -0.713941 -12.5639)
(5.56056 -0.713947 -12.5639)
(-32.9668 -21.2132 -9.77053)
(-32.9755 -21.2174 -9.77412)
(-28.9966 -19.1008 -10.0584)
(5.50097 -0.745628 -12.5595)
(5.56053 -0.713942 -12.5638)
(5.56055 -0.713938 -12.5639)
(5.56056 -0.713939 -12.5639)
(5.56057 -0.71394 -12.5639)
(5.56056 -0.713939 -12.5639)
(5.56055 -0.713938 -12.5639)
(-32.9991 -21.2288 -9.78207)
(-33.0039 -21.231 -9.78392)
(-28.4321 -18.6984 -8.45684)
(3.23043 -1.11822 0.73353)
(3.25284 -1.05972 0.743266)
(3.18569 -1.03782 0.727923)
(3.2529 -1.0597 0.743051)
(3.35114 -1.06937 0.48309)
(2.85286 -1.3809 0.172358)
(-51.3048 -27.9573 16.5492)
(-33.0062 -21.2323 -9.78459)
(-33.0127 -21.2355 -9.78693)
(-33.0059 -21.2321 -9.78451)
(-32.0551 -20.6971 -9.50762)
(2.49744 -1.16097 0.541825)
(2.78435 -0.906351 0.625147)
(4.22365 -0.827204 -5.95215)
(5.55851 -0.714145 -12.5534)
(5.55952 -0.714138 -12.5595)
(4.71486 -1.09904 -12.1286)
(-32.9997 -21.2291 -9.78224)
(-33.0062 -21.2323 -9.78459)
(-32.9989 -21.2287 -9.78225)
(-29.8704 -19.5522 -9.88765)
(5.30417 -0.765353 -11.7853)
(5.49737 -0.715793 -12.2957)
(5.56052 -0.713943 -12.5637)
(5.56058 -0.713941 -12.5639)
(5.56057 -0.713941 -12.5639)
(5.55452 -0.713521 -12.5615)
(-32.9926 -21.2256 -9.77995)
(-32.9962 -21.2273 -9.78249)
(-25.2116 -17.0859 -10.3418)
(5.52773 -0.731381 -12.5614)
(5.56052 -0.71394 -12.5638)
(5.56054 -0.713937 -12.5638)
(5.56055 -0.713938 -12.5639)
(5.56056 -0.713939 -12.5639)
(5.56055 -0.713938 -12.5639)
(5.55821 -0.714116 -12.5611)
(-33.0101 -21.234 -9.76387)
(-33.0113 -21.2345 -9.76662)
(-26.0343 -17.3752 -7.74477)
(3.29213 -1.12081 0.74657)
(3.30523 -1.07678 0.753135)
(3.25301 -1.05975 0.741439)
(3.30527 -1.07676 0.752869)
(3.39216 -1.08276 0.490901)
(2.80984 -1.43256 0.200233)
(-48.4072 -26.004 14.9861)
(-33.016 -21.237 -9.76797)
(-33.0209 -21.2394 -9.77173)
(-33.0154 -21.2367 -9.7678)
(-31.4748 -20.3719 -9.31874)
(2.68404 -1.12962 0.588129)
(2.88949 -0.940392 0.644897)
(4.26554 -0.840852 -5.92467)
(5.55803 -0.714205 -12.5165)
(5.33726 -0.694152 -12.4576)
(-25.8628 2.32074 -4.83952)
(-33.0112 -21.2347 -9.7642)
(-33.016 -21.237 -9.76796)
(-33.0096 -21.2339 -9.76422)
(-28.1428 -18.6267 -9.92542)
(5.3325 -0.755417 -11.7463)
(5.49992 -0.71663 -12.2579)
(5.5605 -0.713944 -12.5292)
(5.56054 -0.71394 -12.5329)
(5.44376 -0.707307 -12.4745)
(-21.5637 1.22983 -1.99942)
(-33.0051 -21.2316 -9.76053)
(-33.0043 -21.2311 -9.76467)
(-21.7127 -15.2239 -10.5682)
(5.53668 -0.726625 -12.5207)
(5.56052 -0.713939 -12.5259)
(5.56053 -0.713937 -12.5294)
(5.56054 -0.713938 -12.5328)
(5.56053 -0.71394 -12.5363)
(5.49936 -0.718606 -12.4611)
(-10.8539 -1.95288 6.79753)
)
;

boundaryField
{
    inlet
    {
        type            calculated;
        value           nonuniform 0();
    }
    outlet
    {
        type            calculated;
        value           nonuniform 0();
    }
    bottom
    {
        type            calculated;
        value           uniform (0 0 0);
    }
    top
    {
        type            symmetryPlane;
    }
    side1
    {
        type            symmetryPlane;
    }
    side2
    {
        type            symmetryPlane;
    }
    procBoundary13to5
    {
        type            processor;
        value           nonuniform List<vector> 
50
(
(14.3302 1.70431 7.23408)
(14.3493 1.7137 7.24102)
(14.3295 1.70419 7.23379)
(12.9175 1.31345 6.3883)
(3.74836 -1.19523 0.868086)
(3.73351 -1.19267 0.860532)
(8.72543 9.06846 5.74211)
(11.1091 13.9607 8.07323)
(11.245 15.4108 9.234)
(-22.9795 -24.2484 2.77867)
(-32.8891 -21.1754 -9.74241)
(-32.908 -21.1848 -9.74934)
(-32.1816 -20.7899 -9.53779)
(3.28255 -1.45353 0.72324)
(3.72348 -1.21311 0.850799)
(3.72359 -1.21305 0.85083)
(3.72363 -1.21295 0.850876)
(3.72362 -1.21284 0.850959)
(3.05563 -1.53207 1.03949)
(-59.4503 -31.3949 18.6831)
(-29.1866 -19.1523 -8.67598)
(-20.4724 -14.4021 -6.15399)
(3.69803 -1.22698 0.843431)
(3.72358 -1.21305 0.850827)
(3.72359 -1.21305 0.85083)
(3.7236 -1.21305 0.850831)
(3.72359 -1.21305 0.85083)
(3.72353 -1.21308 0.85084)
(3.1208 -1.50056 1.0212)
(-59.7874 -31.5058 18.8043)
(-25.5829 -17.1868 -7.63421)
(-13.3675 -10.5286 -4.09783)
(3.70937 -1.22079 0.846714)
(3.72358 -1.21305 0.850827)
(3.72359 -1.21305 0.850829)
(3.72359 -1.21305 0.85083)
(3.72359 -1.21305 0.850829)
(3.72351 -1.2131 0.850848)
(3.0726 -1.59079 1.06374)
(-50.2459 -30.0741 17.4574)
(-22.2613 -15.3676 -6.65404)
(-8.96024 -8.12614 -2.81615)
(3.71316 -1.21873 0.845251)
(3.72357 -1.21305 0.848492)
(3.72358 -1.21305 0.848727)
(3.72359 -1.21305 0.848961)
(3.72358 -1.21305 0.848728)
(3.72348 -1.21313 0.848527)
(3.02985 -1.69488 1.10843)
(-42.9741 -29.0497 16.4095)
)
;
    }
    procBoundary13to12
    {
        type            processor;
        value           nonuniform List<vector> 
20
(
(14.3301 1.70431 7.23407)
(14.3494 1.71371 7.24104)
(14.33 1.70432 7.23407)
(14.3108 1.69493 7.22712)
(-32.889 -21.1755 -9.74242)
(-32.9084 -21.1849 -9.74944)
(-32.8889 -21.1754 -9.74242)
(-32.8697 -21.166 -9.73542)
(-32.9674 -21.2133 -9.77052)
(-32.9769 -21.2181 -9.77404)
(-32.9674 -21.2134 -9.77054)
(-32.9579 -21.2087 -9.76705)
(-32.9931 -21.2261 -9.77981)
(-33 -21.2292 -9.78226)
(-32.9939 -21.2261 -9.77994)
(-32.9876 -21.2229 -9.77765)
(-33.0272 -21.2324 -9.76233)
(-33.0118 -21.2348 -9.76425)
(-33.0074 -21.2325 -9.76051)
(-33.0027 -21.23 -9.75681)
)
;
    }
    procBoundary13to14
    {
        type            processor;
        value           nonuniform List<vector> 
20
(
(-19.579 -21.6907 1.9589)
(-17.7574 -19.6781 1.76585)
(4.94161 -1.20645 -12.1625)
(5.56051 -0.713963 -12.5637)
(-53.5568 -28.2081 16.824)
(-47.3356 -24.9823 14.7061)
(5.48902 -0.746226 -12.5257)
(5.56057 -0.713943 -12.5638)
(-52.7559 -27.774 16.576)
(-46.092 -24.3161 14.3321)
(5.49753 -0.742134 -12.5299)
(5.56046 -0.713946 -12.5637)
(-52.7568 -28.1646 16.7554)
(-46.4253 -24.0669 14.0256)
(-12.1479 0.777555 -7.07869)
(-1.88565 -1.27577 -3.768)
(-50.3504 -25.4635 14.6351)
(-28.0148 2.72521 -5.46791)
(-24.8829 1.89887 -3.16387)
(-11.604 -1.99134 7.78133)
)
;
    }
    procBoundary13to21
    {
        type            processor;
        value           nonuniform List<vector> 
50
(
(14.311 1.69493 7.22713)
(14.3299 1.7043 7.23404)
(14.3105 1.69492 7.22709)
(14.2904 1.68534 7.21847)
(11.3921 0.950346 1.3983)
(5.00224 -0.64075 -11.2854)
(4.93581 -0.633727 -11.1523)
(4.85782 -0.623714 -10.9761)
(4.93583 -0.633729 -11.1523)
(4.99824 -0.641755 -11.2933)
(-32.8702 -21.1661 -9.73544)
(-32.8887 -21.1754 -9.74239)
(-32.8688 -21.1658 -9.73539)
(-31.5299 -20.4424 -9.78687)
(4.81091 -0.743228 -11.2854)
(4.93565 -0.63373 -11.152)
(4.85761 -0.623687 -10.9756)
(4.7573 -0.610807 -10.749)
(4.85761 -0.623687 -10.9756)
(4.93569 -0.633719 -11.152)
(-32.9578 -21.2082 -9.76709)
(-32.9617 -21.2105 -9.77072)
(-22.5115 -15.5578 -10.2182)
(4.9766 -0.653405 -11.2923)
(4.93566 -0.633712 -11.152)
(4.85757 -0.623683 -10.9755)
(4.75719 -0.610792 -10.7487)
(4.6234 -0.593614 -10.4464)
(4.75719 -0.610792 -10.7487)
(4.85742 -0.623699 -10.9754)
(-32.9863 -21.2217 -9.77772)
(-32.9795 -21.2187 -9.7805)
(-15.7468 -11.9104 -10.5596)
(5.0376 -0.65467 -11.4082)
(4.99821 -0.641738 -11.2932)
(4.93571 -0.633713 -11.152)
(4.85761 -0.623687 -10.9756)
(4.7573 -0.610807 -10.749)
(4.85276 -0.62413 -10.9703)
(-5.48187 -1.57535 0.338646)
(-32.9996 -21.2278 -9.75695)
(-32.9805 -21.2186 -9.76164)
(-11.1529 -9.44757 -10.7846)
(5.08982 -0.658576 -11.4656)
(5.04612 -0.648846 -11.3658)
(4.98387 -0.643037 -11.2431)
(4.89426 -0.637487 -11.0757)
(4.6566 -0.642092 -10.7284)
(-12.7742 -2.23449 8.3473)
(-13.2797 -2.28018 8.91029)
)
;
    }
}


// ************************************************************************* //
