/*--------------------------------*- C++ -*----------------------------------*\
| =========                 |                                                 |
| \\      /  F ield         | OpenFOAM: The Open Source CFD Toolbox           |
|  \\    /   O peration     | Version:  2.4.0                                 |
|   \\  /    A nd           | Web:      www.OpenFOAM.org                      |
|    \\/     M anipulation  |                                                 |
\*---------------------------------------------------------------------------*/
FoamFile
{
    version     2.0;
    format      ascii;
    class       volVectorField;
    location    "0.04";
    object      Ub;
}
// * * * * * * * * * * * * * * * * * * * * * * * * * * * * * * * * * * * * * //

dimensions      [0 1 -1 0 0 0 0];

internalField   nonuniform List<vector> 
200
(
(48.0356 -84.2485 43.8842)
(69.9342 37.3959 33.9727)
(118.545 -35.5513 -6.87082)
(96.3095 -68.5067 52.4595)
(166.171 -175.685 -102.131)
(63.7819 -154.128 43.8988)
(120.902 -245.867 -45.0669)
(53.0272 -110.455 6.92545)
(99.9968 -283.859 -64.3931)
(55.8918 -115.61 -44.0045)
(7.00641 -98.1442 25.4922)
(47.1744 -152.326 -2.21359)
(48.655 -43.1263 26.5501)
(114.813 -133.198 -33.0282)
(55.6014 -116.04 23.4282)
(145.617 -213.355 -45.9884)
(41.0522 -145.96 -5.55759)
(136.202 -230.098 -4.87881)
(42.806 -131.353 -36.9357)
(125.196 -227.629 -7.05355)
(46.648 -204.536 -40.4553)
(5.3805 -70.5447 -0.0898263)
(69.4569 -184.515 -16.652)
(23.4214 -86.7421 -6.13495)
(115.911 -205.994 3.31167)
(22.9276 -147.433 -43.1934)
(139.784 -218.539 29.3187)
(12.3258 -162.881 -73.5539)
(135.482 -204.932 34.8775)
(17.3582 -160.854 -87.0267)
(-12.7372 -59.72 -17.9184)
(60.7779 -213.981 16.5252)
(-15.9764 -100.12 -25.1242)
(100.019 -226.211 63.6744)
(-9.9936 -151.38 -90.0975)
(129.537 -212.21 59.7469)
(-17.092 -180.631 -120.215)
(130.826 -183.421 54.4221)
(-24.4615 -178.585 -123.969)
(117.775 -161.91 46.0727)
(91.5416 83.341 22.9201)
(122.089 17.0774 28.2218)
(172.832 142.192 51.7524)
(196.718 -47.5342 -101.203)
(98.5276 -128.061 82.7797)
(126.944 -178.508 48.4884)
(97.9344 -102.393 49.4252)
(102.316 -221.14 8.90574)
(44.2199 -114.965 9.43133)
(43.845 -243.59 -20.416)
(63.6845 -42.8374 63.224)
(91.4555 41.4162 52.8513)
(129.381 -4.5294 45.0218)
(130.347 32.9572 31.4253)
(162.584 -128.836 -68.3735)
(83.9019 -119.248 65.3436)
(131.164 -175.156 33.2402)
(70.5821 -100.724 18.5944)
(107.648 -179.367 22.2446)
(27.6418 -117.784 -37.3798)
(28.6383 -47.8956 24.5854)
(70.5104 -100.841 47.4861)
(69.7668 0.695102 29.8103)
(126.363 -84.432 22.3595)
(91.8312 -34.9016 13.5779)
(145.258 -166.657 -15.0796)
(56.8088 -103.117 27.5727)
(132.21 -152.089 32.9332)
(35.8307 -88.1478 -24.3073)
(102.754 -155.227 24.3821)
(56.1978 -153.023 22.0022)
(25.0307 -38.6802 14.7237)
(88.2414 -142.109 37.9481)
(55.3672 -29.7346 8.05596)
(134.601 -142.675 30.7544)
(48.1812 -72.5194 -18.6035)
(138.26 -158.598 31.9887)
(19.1301 -86.9106 -28.3144)
(118.705 -107.57 25.8852)
(-9.98445 -80.0272 -71.2967)
(109.571 28.9025 29.806)
(125.039 61.248 40.8627)
(159.437 55.9499 -9.23707)
(105.574 -34.1904 48.7343)
(100.098 -86.2962 62.9558)
(127.778 -32.6208 28.3738)
(92.329 -154.964 23.9432)
(113.354 -27.5142 15.3062)
(-2.91979 -309.425 6.80194)
(119.878 17.9667 39.6913)
(104.497 24.2379 39.0576)
(119.768 5.87282 64.3877)
(139.73 76.9129 24.913)
(164.457 -16.9538 -28.466)
(107.306 -57.0681 49.1363)
(115.458 -99.2657 46.8039)
(123.428 -33.2909 21.5775)
(101.261 -113.644 2.72308)
(97.0264 -22.6314 -4.60497)
(-38.7085 -327.325 -31.7286)
(99.5454 -20.4383 58.9242)
(106.901 17.7678 30.7072)
(131.304 -9.52979 49.9738)
(138.517 33.1559 8.14078)
(148.309 -67.4924 -25.197)
(105.314 -48.8856 28.5027)
(113.698 -107.159 26.4885)
(110.069 -30.0219 9.61997)
(130.666 -11.5933 -8.03193)
(63.9608 -28.39 -31.2779)
(89.5534 -4.17095 -7.43137)
(113.553 -47.2486 30.7593)
(115.204 2.60616 -12.3875)
(140.446 -36.1084 30.0445)
(131.93 14.6036 -18.5271)
(135.082 -82.051 -18.3495)
(102.551 -22.3608 4.01191)
(114.079 -119.847 11.329)
(92.2843 -31.882 -18.6857)
(114.628 29.7849 -26.2504)
(98.3527 50.5677 3.22536)
(108.242 41.1787 12.0124)
(113.372 38.1798 10.2081)
(105.835 5.47326 34.1297)
(124.223 16.4089 17.7121)
(106.958 -51.4585 45.8028)
(132.357 2.53238 15.3331)
(76.11 -158.965 45.887)
(142.107 73.7751 62.5471)
(137.54 34.8413 53.0679)
(95.3492 42.3324 9.55969)
(107.742 48.1254 4.19361)
(122.093 30.7155 15.7475)
(119.651 29.4484 12.9798)
(117.376 -3.57207 34.3216)
(129.714 11.6266 14.2731)
(117.25 -47.3696 35.8462)
(122.322 4.8932 13.0496)
(87.129 -85.0172 27.2751)
(124.165 11.8263 4.85737)
(67.9404 62.5532 -10.9562)
(107.144 31.4497 15.6703)
(115.212 44.2408 3.37941)
(129.444 20.4336 14.9055)
(120.846 23.0895 8.33763)
(119.793 -4.70811 26.3473)
(121.726 10.1723 8.6556)
(114.31 -39.3785 27.4541)
(117.025 5.14497 8.22975)
(89.1954 -64.1867 9.36634)
(130.461 22.1614 -10.8641)
(81.134 53.1284 -15.4215)
(123.306 25.354 11.4117)
(121.981 44.0626 -4.32907)
(132.226 19.3763 10.7385)
(115.283 29.9203 -3.94137)
(112.925 -2.534 15.925)
(100.651 13.9029 -2.99729)
(99.0967 -24.6039 16.971)
(85.4411 6.93841 -17.7813)
(111.194 5.83418 -32.4526)
(122.95 17.5127 -14.8978)
(128.51 20.4056 3.66395)
(125.191 25.5142 -5.47158)
(124.639 14.4869 15.4321)
(125.867 26.811 -6.33761)
(126.219 -1.83403 23.3184)
(120.938 29.2239 -11.859)
(141.738 24.3628 26.9154)
(111.464 15.6249 -29.9646)
(143.109 14.0598 -51.8283)
(139.378 13.4911 -15.4689)
(134.751 25.167 -16.4376)
(135.037 23.8503 1.82057)
(132.694 31.5111 -9.80569)
(133.988 20.7889 12.3739)
(129.666 34.7566 -12.3637)
(133.883 18.9008 15.7425)
(122.332 32.9594 -19.327)
(144.111 39.7606 53.8347)
(191.149 -1.11953 -53.0389)
(155.481 31.9664 -52.0292)
(153.093 21.7504 -15.0492)
(143.256 33.1155 -19.6017)
(142.769 30.8689 -0.519633)
(136.804 36.6559 -13.8475)
(137.981 27.6827 8.22189)
(131.189 36.7275 -16.7079)
(139.131 26.9006 22.504)
(135.598 36.4979 -28.4424)
(175.06 -2.73978 573.063)
(204.183 30.0795 -39.5375)
(158.906 50.8725 -45.761)
(160.2 34.1164 -12.2955)
(144.056 43.5278 -21.1324)
(142.258 40.861 -3.11866)
(132.427 44.6195 -17.2594)
(130.563 35.2359 6.14023)
(123.753 32.2448 -22.3102)
(122.358 26.0203 45.8096)
)
;

boundaryField
{
    inlet
    {
        type            fixedValue;
        value           nonuniform 0();
    }
    outlet
    {
        type            zeroGradient;
    }
    bottom
    {
        type            fixedValue;
        value           uniform (0 0 0);
    }
    top
    {
        type            symmetryPlane;
    }
    side1
    {
        type            symmetryPlane;
    }
    side2
    {
        type            symmetryPlane;
    }
    procBoundary13to5
    {
        type            processor;
        value           nonuniform List<vector> 
50
(
(113.286 56.7362 41.1574)
(121.652 13.8207 8.04301)
(144.093 138.711 42.8225)
(183.475 -97.8848 -131.403)
(73.6572 -182.114 67.9327)
(105.28 -259.284 -50.3942)
(56.0979 -120.794 38.1224)
(74.1063 -322.682 -108.975)
(81.8173 -69.3983 19.7669)
(55.0083 -414.637 -201.454)
(85.6876 -9.2551 45.4281)
(200.742 390.704 -71.0145)
(201.754 115.287 -108.803)
(85.0508 -118.195 78.1587)
(101.122 -170.879 66.931)
(112.372 -95.6721 59.1169)
(84.7552 -263.683 2.63882)
(83.9967 -104.697 47.6082)
(18.4802 -401.601 -21.4699)
(133.931 19.2654 99.1057)
(142.379 70.4358 3.21691)
(135.664 69.7778 -2.68456)
(101.699 9.26765 31.1354)
(73.128 -59.562 62.866)
(114.961 -23.1686 32.5257)
(77.7225 -152.345 47.7085)
(119.607 -50.305 22.1718)
(32.5122 -292.8 44.7037)
(139.031 17.3907 76.6684)
(155.313 -0.540905 31.1644)
(84.0739 43.2833 2.42851)
(99.0197 42.1571 10.4388)
(96.5707 17.0344 29.6682)
(111.481 22.2968 21.4997)
(91.6736 -42.8762 52.8807)
(124.885 1.02525 25.0291)
(92.1127 -114.596 63.0911)
(138.85 11.7162 51.4317)
(167.386 -8.04083 30.2691)
(129.388 -29.1398 34.7629)
(152.66 -37.7023 10.6871)
(30.5029 75.1537 -83.921)
(120.183 12.9288 -3.68973)
(124.752 3.04637 15.2035)
(120.172 16.0799 0.499919)
(125.634 -2.80662 23.4961)
(122.667 17.0936 -5.01342)
(145.392 4.43037 16.2675)
(115.654 1.78651 -17.0548)
(147.773 9.98969 54.6149)
)
;
    }
    procBoundary13to12
    {
        type            processor;
        value           nonuniform List<vector> 
20
(
(13.0847 -81.4455 6.46063)
(27.2746 -177.149 10.9866)
(19.2169 -91.6068 10.639)
(44.7183 -213.99 -53.4292)
(80.3289 -8.04106 38.9938)
(18.9789 -31.8434 28.474)
(45.6223 -137.57 27.2586)
(16.8895 -41.2648 4.9522)
(101.232 41.223 19.4114)
(87.5546 2.57125 42.4402)
(81.7342 7.01105 37.3323)
(102.371 -45.1476 17.8132)
(89.1768 47.9064 0.955468)
(64.4826 74.2002 -18.5793)
(112.623 28.5057 -11.5986)
(132.146 14.6794 153.202)
(134.067 -4.21135 -60.6171)
(165.964 -21.6025 -56.2624)
(142.581 -68.2348 622.261)
(83.9552 22.5123 -75.1402)
)
;
    }
    procBoundary13to14
    {
        type            processor;
        value           nonuniform List<vector> 
20
(
(75.4393 -366.195 -168.218)
(42.5333 -153.539 -76.0023)
(122.039 -189.908 25.6329)
(-13.5621 -164.133 -113.358)
(33.7546 -96.701 -4.33689)
(103.667 -127.829 22.9282)
(10.5822 -104.653 -54.9081)
(75.7887 -120.401 7.3919)
(101.355 -1.94855 29.6521)
(102.048 28.9821 13.9691)
(-8.77163 -212.782 -20.5749)
(32.8443 -39.6339 -74.592)
(111.3 -23.103 0.0383844)
(138.035 18.2117 20.7489)
(105.819 7.89013 -15.134)
(84.8483 -15.3373 38.2051)
(152.879 62.7213 101.78)
(118.807 33.9963 -38.9287)
(139.152 51.5172 76.9727)
(130.727 66.4206 -59.557)
)
;
    }
    procBoundary13to21
    {
        type            processor;
        value           nonuniform List<vector> 
50
(
(52.669 -221.627 40.4901)
(-44.7425 -117.833 -28.575)
(86.9986 -249.788 122.317)
(-52.879 -183.433 -145.153)
(111.01 -202.303 53.5063)
(-57.346 -186.395 -150.257)
(107.542 -156.071 37.6764)
(-67.3675 -177.645 -133.954)
(81.4971 -120.275 35.5767)
(-65.4023 -159.232 -116.569)
(2.33782 -34.2867 9.21374)
(92.4934 -170.322 60.1626)
(23.8542 -43.955 -15.1363)
(126.114 -159.425 52.2803)
(27.6696 -53.4061 -37.2377)
(131.547 -143.424 29.4091)
(-6.92738 -80.7765 -60.8041)
(100.304 -119.866 38.3071)
(-26.695 -53.501 -62.4941)
(61.251 -55.4194 -6.62936)
(105.92 -84.5432 2.68018)
(100.008 6.96511 -34.9561)
(126.732 -65.7389 13.4781)
(113.438 14.0749 -36.1653)
(140.796 -52.4004 10.538)
(107.467 19.7304 -30.8278)
(122.432 -74.8594 -20.2467)
(76.8125 -1.99423 -21.0492)
(76.2078 -72.9281 -16.2492)
(64.1526 60.0527 -5.98053)
(144.296 7.65059 20.0588)
(143.25 -10.5307 1.83634)
(110.445 36.609 -23.2771)
(136.918 19.7363 8.94368)
(122.879 45.2873 -16.8068)
(125.509 31.4835 7.35187)
(106.665 42.9205 -17.2767)
(90.7356 7.15232 5.89271)
(84.4563 8.19228 -10.9489)
(68.2316 -31.0323 13.8984)
(103.672 25.0143 -60.2202)
(167.799 83.5832 314.997)
(185.444 39.9117 -7.42501)
(156.573 67.2473 -40.5219)
(147.089 52.1328 5.05152)
(134.727 55.0193 -24.4751)
(120.852 55.9059 1.31067)
(109.356 50.8388 -23.3016)
(99.5843 43.7556 18.054)
(89.1801 47.155 -39.8472)
)
;
    }
}


// ************************************************************************* //
