/*--------------------------------*- C++ -*----------------------------------*\
| =========                 |                                                 |
| \\      /  F ield         | OpenFOAM: The Open Source CFD Toolbox           |
|  \\    /   O peration     | Version:  2.4.0                                 |
|   \\  /    A nd           | Web:      www.OpenFOAM.org                      |
|    \\/     M anipulation  |                                                 |
\*---------------------------------------------------------------------------*/
FoamFile
{
    version     2.0;
    format      ascii;
    class       volVectorField;
    location    "0.02";
    object      Ua;
}
// * * * * * * * * * * * * * * * * * * * * * * * * * * * * * * * * * * * * * //

dimensions      [0 1 -1 0 0 0 0];

internalField   nonuniform List<vector> 
200
(
(0.823526 0.54643 0.0232963)
(0.550569 0.325505 0.0191399)
(0.493488 0.291528 0.0171955)
(0.647837 0.372398 0.0319714)
(0.66682 0.375442 0.0401385)
(0.755032 0.423405 0.0456088)
(1.93148 0.777564 0.141691)
(2.33657 0.884611 0.177044)
(2.16591 0.872131 0.133607)
(1.86078 0.832104 0.075854)
(0.782627 0.517487 0.022298)
(0.514157 0.303952 0.017873)
(0.459961 0.271685 0.0160293)
(0.605008 0.347797 0.0298192)
(0.621104 0.349694 0.0373827)
(0.706544 0.396175 0.0426808)
(1.83783 0.744799 0.134413)
(2.2807 0.867396 0.172389)
(2.17707 0.870357 0.138056)
(1.90441 0.837319 0.0845512)
(0.743915 0.490303 0.0213344)
(0.482132 0.284999 0.0167588)
(0.430651 0.254338 0.01501)
(0.567257 0.326113 0.0279243)
(0.581144 0.327189 0.0349737)
(0.663638 0.372078 0.0400899)
(1.74655 0.712395 0.12736)
(2.22256 0.848966 0.167612)
(2.17943 0.866451 0.141298)
(1.94095 0.84099 0.0922544)
(0.707237 0.463347 0.0204073)
(0.453707 0.267403 0.0157698)
(0.404782 0.238371 0.0141105)
(0.533679 0.305935 0.0262408)
(0.545884 0.306485 0.0328477)
(0.625334 0.349544 0.0377769)
(1.65803 0.678589 0.120553)
(2.16245 0.826965 0.162726)
(2.1741 0.85793 0.143511)
(1.97069 0.840447 0.0990178)
(0.846952 0.556628 0.026153)
(0.613893 0.358917 0.0257445)
(0.57693 0.333423 0.0281159)
(1.51057 0.59921 0.363385)
(0.769131 0.426174 0.0535271)
(0.846321 0.467163 0.0558543)
(1.95048 0.742069 0.190149)
(2.3657 0.532313 0.261174)
(2.32796 0.46597 0.25125)
(2.23734 0.45148 0.229909)
(0.80743 0.528729 0.0251565)
(0.575811 0.336615 0.0241534)
(0.540899 0.312474 0.0264537)
(1.4502 0.579127 0.344702)
(0.720814 0.399244 0.0503337)
(0.794906 0.439083 0.0524566)
(1.86249 0.718 0.177055)
(2.33681 0.550286 0.253975)
(2.32457 0.481814 0.248731)
(2.2414 0.463394 0.229188)
(0.769803 0.50239 0.0241854)
(0.542026 0.316824 0.0227526)
(0.509 0.293917 0.0249941)
(1.3902 0.558789 0.326545)
(0.678022 0.375388 0.0475085)
(0.749033 0.413951 0.0494432)
(1.77574 0.692836 0.165097)
(2.30247 0.565346 0.246385)
(2.31847 0.496984 0.245883)
(2.2443 0.475268 0.228287)
(0.733972 0.476005 0.0232454)
(0.511798 0.298198 0.0215084)
(0.480503 0.276526 0.0236969)
(1.33092 0.536809 0.308956)
(0.639783 0.35304 0.0449829)
(0.707747 0.390078 0.0467427)
(1.69081 0.665014 0.154119)
(2.2629 0.5756 0.23847)
(2.30942 0.509677 0.242707)
(2.24585 0.485412 0.227198)
(0.869424 0.566147 0.0292089)
(0.671496 0.3886 0.0325217)
(0.652927 0.370329 0.0393996)
(1.67695 0.642898 0.427327)
(0.86052 0.47017 0.0668753)
(0.927973 0.505245 0.0658579)
(1.96652 0.712577 0.230345)
(2.37212 0.445067 0.283548)
(2.35659 0.393049 0.273283)
(2.30468 0.383042 0.258221)
(0.831137 0.539216 0.0281841)
(0.632212 0.365867 0.0305785)
(0.615057 0.348735 0.0371917)
(1.6347 0.629574 0.413468)
(0.810607 0.442679 0.0632443)
(0.874547 0.476837 0.0620202)
(1.88362 0.695367 0.213064)
(2.35175 0.461469 0.278282)
(2.35337 0.40474 0.271573)
(2.30585 0.391491 0.257605)
(0.794499 0.513674 0.027182)
(0.597112 0.345532 0.028872)
(0.581199 0.329395 0.035256)
(1.59107 0.615534 0.399462)
(0.765914 0.418047 0.0600089)
(0.826544 0.451149 0.0586123)
(1.80108 0.676093 0.197461)
(2.32675 0.476562 0.27242)
(2.34835 0.416407 0.269555)
(2.30629 0.400129 0.256831)
(0.759458 0.487829 0.0262107)
(0.565498 0.326148 0.0273595)
(0.550663 0.310973 0.0335348)
(1.54629 0.599056 0.385355)
(0.725558 0.39458 0.0570935)
(0.78304 0.426374 0.0555508)
(1.7196 0.653255 0.183298)
(2.29699 0.488535 0.265995)
(2.34128 0.426534 0.267217)
(2.30585 0.40753 0.25589)
(0.891018 0.575029 0.0324566)
(0.724246 0.415102 0.0394647)
(0.722568 0.402985 0.0509858)
(1.74757 0.661405 0.454486)
(0.942578 0.508411 0.080185)
(1.00137 0.538478 0.0756626)
(1.98023 0.687774 0.264098)
(2.37446 0.405537 0.294791)
(2.36824 0.362523 0.28315)
(2.33261 0.354385 0.270509)
(0.853836 0.549003 0.0313746)
(0.6841 0.392174 0.0371426)
(0.683343 0.381087 0.0481902)
(1.71541 0.651607 0.443569)
(0.891802 0.480824 0.0761112)
(0.946624 0.51013 0.0714062)
(1.9019 0.676069 0.243774)
(2.35822 0.419725 0.290766)
(2.36538 0.37176 0.281978)
(2.33298 0.360942 0.270107)
(0.8181 0.524214 0.0303189)
(0.648016 0.371519 0.0351116)
(0.647997 0.361285 0.0457474)
(1.68163 0.641086 0.432357)
(0.845911 0.45585 0.0724662)
(0.897133 0.48425 0.0676242)
(1.82326 0.661652 0.22544)
(2.33805 0.433269 0.286129)
(2.36112 0.381132 0.280535)
(2.33279 0.367713 0.269569)
(0.783792 0.49888 0.0292985)
(0.615334 0.351587 0.0333172)
(0.615875 0.342135 0.0435796)
(1.64637 0.627891 0.420874)
(0.804101 0.431673 0.0691658)
(0.852007 0.458917 0.064221)
(1.74506 0.643008 0.208828)
(2.31373 0.444468 0.28089)
(2.35525 0.389241 0.278808)
(2.33192 0.373366 0.268886)
(0.911858 0.583341 0.0357627)
(0.772955 0.438925 0.0464)
(0.786856 0.432051 0.0625976)
(1.78667 0.671623 0.467702)
(1.01675 0.541779 0.0931304)
(1.06779 0.567611 0.0850035)
(1.99212 0.666647 0.291683)
(2.37536 0.382951 0.300841)
(2.37442 0.345692 0.287843)
(2.34781 0.338582 0.276367)
(0.87567 0.558165 0.0345939)
(0.732203 0.415982 0.0436771)
(0.746643 0.410107 0.0591832)
(1.76072 0.663952 0.458593)
(0.965663 0.514444 0.0886079)
(1.01227 0.539618 0.0803474)
(1.91791 0.659434 0.269173)
(2.36154 0.395455 0.297576)
(2.37181 0.353401 0.286961)
(2.34784 0.343987 0.27607)
(0.84076 0.534094 0.0334615)
(0.695388 0.395182 0.0413058)
(0.710175 0.390096 0.0562101)
(1.73323 0.655618 0.449169)
(0.919115 0.489465 0.0845524)
(0.961792 0.51383 0.0762089)
(1.84286 0.649078 0.248818)
(2.34431 0.407633 0.29373)
(2.36805 0.361291 0.285843)
(2.34741 0.349597 0.275657)
(0.807137 0.509248 0.0323733)
(0.661888 0.374868 0.0392181)
(0.676823 0.370456 0.0535781)
(1.70424 0.644499 0.439438)
(0.876373 0.464902 0.0808695)
(0.915521 0.488209 0.072481)
(1.76778 0.634004 0.23035)
(2.32342 0.417858 0.289298)
(2.36295 0.368016 0.284473)
(2.34642 0.354116 0.275117)
)
;

boundaryField
{
    inlet
    {
        type            calculated;
        value           nonuniform 0();
    }
    outlet
    {
        type            calculated;
        value           nonuniform 0();
    }
    bottom
    {
        type            calculated;
        value           uniform (0 0 0);
    }
    top
    {
        type            symmetryPlane;
    }
    side1
    {
        type            symmetryPlane;
    }
    side2
    {
        type            symmetryPlane;
    }
    procBoundary27to19
    {
        type            processor;
        value           nonuniform List<vector> 
50
(
(0.866842 0.576896 0.0243736)
(0.594816 0.351715 0.0206792)
(0.532239 0.314487 0.018544)
(0.69898 0.401744 0.0345939)
(0.719637 0.405222 0.0433213)
(0.810465 0.454549 0.0489573)
(2.02711 0.81051 0.149167)
(2.39 0.90053 0.181572)
(2.14444 0.87158 0.127699)
(1.80938 0.825457 0.0660382)
(0.888719 0.585835 0.0272621)
(0.659827 0.385794 0.0277133)
(0.618347 0.357427 0.0301382)
(1.57051 0.619002 0.382125)
(0.824274 0.456931 0.0571856)
(0.904705 0.498919 0.0597537)
(2.03912 0.764438 0.204669)
(2.38915 0.511535 0.267959)
(2.32895 0.449593 0.253466)
(2.23217 0.43973 0.230423)
(0.909849 0.594191 0.0303984)
(0.718628 0.415791 0.0349736)
(0.696366 0.394883 0.0421965)
(1.71723 0.655528 0.440654)
(0.916902 0.501216 0.0710194)
(0.988286 0.537035 0.0702784)
(2.04913 0.726887 0.249752)
(2.38817 0.427552 0.288234)
(2.35828 0.381411 0.274722)
(2.30283 0.374907 0.258669)
(0.93029 0.601999 0.0337752)
(0.77224 0.44235 0.0424508)
(0.767579 0.427728 0.0546425)
(1.7777 0.67055 0.464794)
(0.999425 0.539252 0.0848294)
(1.06286 0.569881 0.0805829)
(2.05759 0.695806 0.286935)
(2.38717 0.390853 0.298247)
(2.36997 0.353461 0.28409)
(2.33174 0.348135 0.27077)
(0.950149 0.609311 0.0372595)
(0.821572 0.466039 0.0499634)
(0.833106 0.456713 0.0671765)
(1.81074 0.678728 0.476223)
(1.07349 0.572048 0.0982875)
(1.12988 0.598318 0.0904033)
(2.06486 0.66969 0.316899)
(2.38617 0.370229 0.303577)
(2.3761 0.338186 0.288524)
(2.34738 0.333458 0.276542)
)
;
    }
    procBoundary27to26
    {
        type            processor;
        value           nonuniform List<vector> 
20
(
(0.915369 0.629412 0.0239063)
(0.891311 0.611377 0.0234096)
(0.866242 0.592777 0.0228753)
(0.840416 0.572041 0.0223113)
(0.928889 0.635685 0.0252829)
(0.905336 0.617924 0.0248212)
(0.880762 0.599602 0.0243195)
(0.855421 0.579037 0.0237861)
(0.94175 0.641463 0.0267516)
(0.918705 0.62399 0.0263169)
(0.894628 0.605958 0.0258411)
(0.869772 0.585572 0.0253324)
(0.954025 0.646792 0.0283126)
(0.931481 0.629618 0.0278963)
(0.907895 0.611882 0.0274393)
(0.88352 0.591679 0.0269493)
(0.965809 0.651726 0.029859)
(0.943757 0.634859 0.0294486)
(0.920655 0.617424 0.0289999)
(0.896755 0.597407 0.0285193)
)
;
    }
    procBoundary27to28
    {
        type            processor;
        value           nonuniform List<vector> 
20
(
(1.67841 0.941014 0.0500044)
(1.6817 0.94179 0.0505927)
(1.68541 0.942314 0.0512621)
(1.68952 0.939832 0.0520172)
(1.75715 0.868911 0.0765633)
(1.76402 0.866165 0.0784719)
(1.77133 0.863106 0.0804855)
(1.77894 0.857198 0.0825689)
(1.82628 0.8056 0.100025)
(1.83523 0.800734 0.102737)
(1.84454 0.795584 0.105544)
(1.854 0.787779 0.108383)
(1.8866 0.75035 0.120629)
(1.8966 0.744315 0.123791)
(1.90687 0.738055 0.127027)
(1.91714 0.729324 0.130255)
(1.93921 0.702145 0.138106)
(1.9496 0.695563 0.141442)
(1.96018 0.68882 0.144826)
(1.97063 0.679758 0.148168)
)
;
    }
}


// ************************************************************************* //
