/*--------------------------------*- C++ -*----------------------------------*\
| =========                 |                                                 |
| \\      /  F ield         | OpenFOAM: The Open Source CFD Toolbox           |
|  \\    /   O peration     | Version:  2.4.0                                 |
|   \\  /    A nd           | Web:      www.OpenFOAM.org                      |
|    \\/     M anipulation  |                                                 |
\*---------------------------------------------------------------------------*/
FoamFile
{
    version     2.0;
    format      ascii;
    class       volScalarField;
    location    "0.02";
    object      p;
}
// * * * * * * * * * * * * * * * * * * * * * * * * * * * * * * * * * * * * * //

dimensions      [1 -1 -2 0 0 0 0];

internalField   nonuniform List<scalar> 
200
(
-4.23506
13.8705
14.5738
40.4011
36.5599
25.1488
33.6175
16.4327
10.5631
3.75042
19.7625
28.6564
41.4086
8.48194
-0.187835
16.6157
4.50832
4.9951
1.6948
0.908014
44.6123
21.8976
4.80481
-31.1066
-18.6257
-16.5402
-3.19187
-7.26831
-9.80406
-5.97509
9.13391
2.10061
-20.3161
-4.57789
-13.8666
-3.63253
-8.33263
-13.9626
-11.2432
-6.68732
-7.26682
-4.20196
-12.2667
-16.7172
-26.2156
-12.6104
-13.0428
-10.1213
-15.5914
-5.80315
-15.9912
-24.4244
-41.0851
-70.9753
-42.0094
-38.9921
-19.1936
-25.3412
-16.615
-11.3278
-41.0739
-56.5012
-85.8194
-63.7001
-55.692
-23.3535
-23.306
-15.2006
-17.2166
-10.6819
-55.9474
-79.4878
-59.6916
-51.4346
-24.6964
-16.2631
-11.9355
-8.88023
-9.76888
3.09828
-9.85779
-16.2367
-25.5846
-20.4946
-13.9465
-20.667
-17.5214
-33.2601
-25.2847
-16.4763
-18.4774
-24.904
-34.3846
-30.3684
-36.9389
-14.0453
-26.2479
-18.8846
-23.0781
-10.8952
-16.8415
-23.6464
-25.7455
-27.8557
-7.30203
-4.5776
-1.87264
-3.8422
-8.63908
7.76292
-13.718
-12.7481
-13.1127
-6.70805
0.694151
3.12204
5.00893
-1.89689
-0.22684
-3.68325
-11.0147
-21.2224
-31.9343
-33.4214
-32.4636
-12.1705
-27.4283
-24.2677
-39.4192
-17.8189
-13.1185
-17.1381
-18.2368
-17.0114
1.76143
5.34725
4.12726
0.936197
-10.8561
10.4299
-7.06373
-6.72157
-5.69812
0.752612
14.0511
18.6252
21.4049
1.29202
5.67218
-7.58864
-4.93809
-3.27802
-0.0122927
4.39304
8.94256
13.3757
12.6255
9.22904
-0.510086
1.6452
5.80261
12.8677
11.2392
15.8111
29.4674
41.6307
48.451
19.9137
-4.93318
-0.538617
3.06362
7.39866
12.4453
25.3184
37.841
35.6175
33.6907
8.94329
8.73165
-1.24294
3.24701
6.07704
12.7254
16.53
27.2797
25.8778
18.7897
9.48103
3.15999
-2.79866
0.64639
7.72459
8.27774
14.3499
13.6394
19.4402
14.1268
12.5794
5.02113
2.70212
)
;

boundaryField
{
    inlet
    {
        type            zeroGradient;
    }
    outlet
    {
        type            fixedValue;
        value           uniform 0;
    }
    bottom
    {
        type            zeroGradient;
    }
    top
    {
        type            symmetryPlane;
    }
    side1
    {
        type            symmetryPlane;
    }
    side2
    {
        type            symmetryPlane;
    }
    procBoundary23to15
    {
        type            processor;
        value           nonuniform List<scalar> 
50
(
5.29416
7.30447
21.4066
26.0035
27.2287
40.9316
27.0145
20.2439
13.1405
5.04823
0.666626
5.53104
2.27464
-4.3148
5.85625
1.95434
1.07587
1.56636
-0.22663
-1.16336
-1.56118
-7.73068
-9.44925
-14.6182
-7.49177
-4.59174
-17.0658
-20.8899
-20.3121
-7.31172
-16.0991
-17.7706
-30.5736
-36.6024
-42.3454
-45.6384
-50.3532
-68.5562
-41.9953
-17.1802
-4.39629
1.52832
7.70987
4.22778
8.21387
26.5125
-6.52846
-23.4947
-24.7185
-9.3047
)
;
    }
    procBoundary23to22
    {
        type            processor;
        value           nonuniform List<scalar> 
20
(
-9.08822
2.65368
17.0914
18.5064
-14.2554
-20.5295
-26.2948
-46.4307
-4.16266
-12.9042
-14.0882
-9.69025
-9.50653
-11.5341
-7.70644
-7.92564
4.48831
0.0990369
-2.26045
0.422511
)
;
    }
    procBoundary23to31
    {
        type            processor;
        value           nonuniform List<scalar> 
50
(
-0.398296
-8.26977
-4.92701
-9.58585
-3.143
-2.43798
-15.0972
-11.9911
-20.0658
-8.1877
-51.316
-41.1472
-39.9547
-25.8859
-16.2218
-17.3381
-13.9788
-19.8019
-11.4764
-10.9237
-7.10618
-7.31323
-6.21907
-5.38673
-8.47502
-8.9973
-10.7644
-4.57428
-2.94423
4.68312
-5.70703
-1.9011
-0.877782
2.4694
2.45985
4.76496
3.35535
9.92964
4.16454
2.10677
6.06171
7.05796
15.9004
14.2925
19.2857
15.3034
19.9387
16.5102
12.8243
3.86969
)
;
    }
}


// ************************************************************************* //
