/*--------------------------------*- C++ -*----------------------------------*\
| =========                 |                                                 |
| \\      /  F ield         | OpenFOAM: The Open Source CFD Toolbox           |
|  \\    /   O peration     | Version:  2.4.0                                 |
|   \\  /    A nd           | Web:      www.OpenFOAM.org                      |
|    \\/     M anipulation  |                                                 |
\*---------------------------------------------------------------------------*/
FoamFile
{
    version     2.0;
    format      ascii;
    class       volVectorField;
    location    "0.02";
    object      Ua;
}
// * * * * * * * * * * * * * * * * * * * * * * * * * * * * * * * * * * * * * //

dimensions      [0 1 -1 0 0 0 0];

internalField   nonuniform List<vector> 
200
(
(2.61688 2.04135 0.335519)
(2.30816 1.75305 0.31405)
(-3.02938 -3.23188 -0.0578403)
(-3.04797 -3.24924 -0.0591352)
(-3.04798 -3.24925 -0.0591355)
(-3.04721 -3.24867 -0.0591489)
(-0.994841 -1.70526 -0.0951808)
(3.10656 1.37903 -0.167198)
(3.107 1.38098 -0.167115)
(3.10471 1.3813 -0.166961)
(2.61692 2.04144 0.335568)
(2.27191 1.71921 0.311549)
(-3.02643 -3.22925 -0.0576912)
(-3.04666 -3.24826 -0.0591583)
(-3.0439 -3.24618 -0.0592073)
(1.05758 -0.161802 -0.131146)
(3.10987 1.38155 -0.167176)
(3.11064 1.38212 -0.16722)
(3.10453 1.38176 -0.166875)
(3.09657 1.38129 -0.166431)
(2.61686 2.04141 0.335575)
(2.23608 1.68575 0.309091)
(-3.02166 -3.225 -0.0565798)
(-3.04155 -3.24391 -0.0572062)
(-3.02746 -3.2322 -0.0529799)
(2.28091 1.1828 1.53914)
(2.92925 1.7317 1.73438)
(2.88931 1.72724 1.72473)
(-3.15588 1.02652 0.262042)
(-3.307 1.009 0.225475)
(2.61679 2.04134 0.335829)
(2.31761 1.7357 0.94462)
(2.02207 1.36961 3.13755)
(2.46192 1.77331 3.41736)
(2.70781 2.00226 3.5731)
(2.78603 2.08174 3.62342)
(2.76428 2.07803 3.61156)
(2.69971 2.06683 3.57627)
(-3.36106 1.01189 0.260425)
(-3.42597 1.00057 0.224901)
(2.61723 2.04175 0.335631)
(2.61734 2.04183 0.335646)
(2.59873 2.02445 0.334351)
(-2.73982 -2.96146 -0.0376372)
(-3.04772 -3.24903 -0.0590976)
(-3.04675 -3.2483 -0.0591104)
(-0.994666 -1.70512 -0.0951421)
(3.10539 1.37816 -0.167166)
(3.10638 1.38072 -0.16708)
(3.10396 1.38116 -0.166911)
(2.61719 2.04172 0.335626)
(2.61732 2.04182 0.335644)
(2.5964 2.02227 0.334188)
(-2.70241 -2.9268 -0.0351792)
(-3.04253 -3.24513 -0.0592052)
(1.05755 -0.161819 -0.131112)
(3.10965 1.38139 -0.167138)
(3.11064 1.38212 -0.16719)
(3.10365 1.38171 -0.166796)
(3.09481 1.38119 -0.166302)
(2.61714 2.04168 0.33562)
(2.6173 2.0418 0.335641)
(2.59407 2.02009 0.334028)
(-2.66147 -2.88904 -0.0305082)
(-3.02215 -3.22776 -0.0514313)
(2.27728 1.18264 1.53828)
(2.92246 1.73086 1.73273)
(2.87604 1.7257 1.72152)
(-3.10748 1.03213 0.273752)
(-3.28174 1.01193 0.231586)
(2.6171 2.04165 0.335614)
(2.61728 2.04178 0.335655)
(2.59773 2.0198 0.427404)
(2.45787 1.77383 3.40058)
(2.70134 2.00113 3.56951)
(2.77723 2.08015 3.61856)
(2.75122 2.07571 3.60438)
(2.67424 2.06236 3.5623)
(-3.33563 1.01631 0.274335)
(-3.41307 1.00281 0.231956)
(2.61718 2.04171 0.335625)
(2.61731 2.04181 0.335644)
(2.60118 2.01981 0.342305)
(1.46578 0.472951 0.809503)
(1.44612 0.446128 0.817644)
(1.44608 0.446074 0.817602)
(1.54939 0.504181 0.756382)
(3.09546 1.37438 -0.158962)
(2.1321 1.23937 0.069447)
(1.44065 1.14036 0.235105)
(2.61714 2.04168 0.33562)
(2.6173 2.0418 0.335641)
(2.60358 2.02639 0.337592)
(0.595865 -0.225726 0.620929)
(0.50536 -0.327572 0.633655)
(1.51018 0.331822 0.324771)
(3.10897 1.38105 -0.166607)
(3.11063 1.38213 -0.167155)
(3.10275 1.38166 -0.166705)
(3.09297 1.38108 -0.166151)
(2.6171 2.04164 0.335614)
(2.61728 2.04179 0.335638)
(2.60335 2.02735 0.336273)
(-0.134982 -0.809506 0.459711)
(-0.336862 -1.01981 0.471337)
(2.25849 1.16401 1.47446)
(2.91562 1.72997 1.73103)
(2.86282 1.72416 1.71832)
(-3.05981 1.03766 0.285283)
(-3.25669 1.01483 0.237646)
(2.61705 2.04161 0.335608)
(2.61726 2.04177 0.335646)
(2.60566 2.028 0.387307)
(2.44229 1.74674 3.29301)
(2.68932 1.99022 3.54011)
(2.76843 2.07855 3.61367)
(2.7382 2.07339 3.59721)
(2.64897 2.05791 3.54844)
(-3.31039 1.0207 0.288137)
(-3.40022 1.00504 0.238978)
(2.61713 2.04167 0.335618)
(2.61728 2.04179 0.335644)
(2.59704 2.00769 0.351289)
(1.88923 0.817015 0.896749)
(1.88166 0.804259 0.902617)
(1.88051 0.804179 0.902671)
(-0.0119732 0.712489 1.00704)
(-2.35388 0.591451 1.15092)
(-2.43705 0.579586 1.17067)
(-2.4371 0.579579 1.17068)
(2.61709 2.04164 0.335614)
(2.61727 2.04178 0.335639)
(2.60413 2.02384 0.341079)
(1.48187 0.494753 0.802904)
(1.44648 0.446349 0.817478)
(1.79405 0.642176 0.611477)
(3.1019 1.3796 -0.163896)
(3.10134 1.38079 -0.164876)
(0.268758 0.971384 0.517394)
(-0.656697 0.837672 0.740195)
(2.61705 2.04161 0.335608)
(2.61725 2.04177 0.335636)
(2.60545 2.02764 0.338294)
(1.01782 0.130048 0.693799)
(0.923287 0.0163208 0.71654)
(2.23328 1.13673 1.38136)
(2.90805 1.72886 1.72918)
(2.8486 1.7224 1.71502)
(-3.00825 1.03934 0.303701)
(-3.22454 1.01366 0.252203)
(2.617 2.04157 0.335602)
(2.61723 2.04175 0.335642)
(2.6077 2.02943 0.374442)
(2.4181 1.69801 3.1163)
(2.67229 1.97015 3.48656)
(2.75964 2.07692 3.60877)
(2.72523 2.07108 3.59006)
(2.6239 2.0535 3.53468)
(-3.28537 1.02505 0.301824)
(-3.38744 1.00725 0.245963)
(2.61708 2.04163 0.33499)
(2.61725 2.04176 0.334954)
(2.59054 1.99216 0.360587)
(2.00887 0.913764 0.919122)
(2.00412 0.904949 0.923963)
(2.00123 0.904733 0.923858)
(-0.752208 0.704818 1.06854)
(-2.41552 0.582605 1.1604)
(-2.43714 0.579573 1.16588)
(-2.43716 0.57957 1.16539)
(2.61704 2.0416 0.334917)
(2.61725 2.04176 0.334879)
(2.60273 2.019 0.344083)
(1.78566 0.740384 0.864023)
(1.76546 0.708665 0.877131)
(1.93025 0.792105 0.747614)
(3.07808 1.37548 -0.155959)
(3.06544 1.37561 -0.155951)
(-1.37099 0.733967 0.909043)
(-1.85157 0.664476 1.02394)
(2.617 2.04157 0.334842)
(2.61723 2.04174 0.334805)
(2.6056 2.02587 0.33953)
(1.50216 0.522025 0.792412)
(1.4481 0.44783 0.815919)
(2.20921 1.11002 1.28724)
(2.89863 1.72725 1.72362)
(2.83148 1.72 1.70833)
(-2.94846 1.0323 0.336761)
(-3.17725 1.00336 0.284764)
(2.61695 2.04153 0.334767)
(2.61721 2.04173 0.334742)
(2.60814 2.02893 0.367558)
(2.38909 1.63619 2.89309)
(2.651 1.94195 3.40426)
(2.75087 2.07528 3.59671)
(2.71229 2.06876 3.57644)
(2.59902 2.04911 3.51522)
(-3.26053 1.02937 0.314862)
(-3.37472 1.00945 0.252444)
)
;

boundaryField
{
    inlet
    {
        type            calculated;
        value           nonuniform 0();
    }
    outlet
    {
        type            calculated;
        value           uniform (0 0 0);
    }
    bottom
    {
        type            calculated;
        value           uniform (0 0 0);
    }
    top
    {
        type            symmetryPlane;
    }
    side1
    {
        type            symmetryPlane;
    }
    side2
    {
        type            symmetryPlane;
    }
    procBoundary23to15
    {
        type            processor;
        value           nonuniform List<vector> 
50
(
(1.95072 1.22761 0.0466839)
(1.73129 1.10899 0.0635929)
(-2.59289 -2.77495 -0.0495139)
(-2.60775 -2.77996 -0.0505886)
(-2.53447 -2.70183 -0.0491682)
(-2.60731 -2.77964 -0.0505984)
(-1.50785 -1.9943 -0.0747838)
(3.10073 1.37483 -0.167087)
(3.10621 1.37973 -0.167148)
(3.10617 1.38079 -0.167087)
(2.17601 1.69751 0.279028)
(2.23912 1.74676 0.28713)
(2.26744 1.7636 0.294346)
(-0.186273 -0.83012 0.444688)
(-0.239488 -0.886201 0.450082)
(-0.267099 -0.915635 0.449467)
(0.0892349 -0.680589 0.380471)
(3.0957 1.37213 -0.164585)
(2.84735 1.34184 -0.104334)
(2.6101 1.30889 -0.0472703)
(2.239 1.74665 0.287128)
(2.27703 1.73661 0.333245)
(2.13331 1.01356 0.949167)
(2.13261 1.01061 0.951583)
(2.13262 1.01061 0.951585)
(2.13261 1.01061 0.951583)
(2.13252 1.0106 0.951575)
(1.82459 0.990031 0.947737)
(-2.41157 0.582203 1.16902)
(-2.43067 0.580327 1.1701)
(2.28621 1.78346 0.293212)
(2.29767 1.71108 0.380146)
(2.13307 1.01231 0.950248)
(2.13263 1.01062 0.951586)
(2.13263 1.01062 0.951588)
(2.13107 1.01047 0.951662)
(-0.432864 0.768629 1.07459)
(-2.43623 0.57966 1.17066)
(-2.43718 0.579568 1.17071)
(-2.43718 0.579568 1.17071)
(2.32294 1.81207 0.297346)
(2.30576 1.67586 0.425235)
(2.13298 1.01189 0.947741)
(2.13263 1.01062 0.948976)
(2.13263 1.01062 0.949239)
(2.12882 1.01026 0.949158)
(-1.1542 0.700588 1.10457)
(-2.4366 0.579624 1.16586)
(-2.43718 0.579568 1.16637)
(-2.43718 0.579568 1.16588)
)
;
    }
    procBoundary23to22
    {
        type            processor;
        value           nonuniform List<vector> 
20
(
(2.24109 1.65667 0.224015)
(2.28262 1.74425 0.267506)
(2.31929 1.79014 0.284173)
(2.34925 1.8209 0.29319)
(2.17613 1.69764 0.279065)
(2.23915 1.7468 0.287146)
(2.28641 1.78367 0.293206)
(2.32316 1.81233 0.297918)
(2.23914 1.7468 0.287145)
(2.2864 1.78366 0.293205)
(2.32315 1.81233 0.297918)
(2.35255 1.83526 0.301687)
(2.28639 1.78366 0.293204)
(2.32315 1.81233 0.297917)
(2.35255 1.83526 0.301687)
(2.37659 1.85402 0.30477)
(2.32317 1.81234 0.297299)
(2.35257 1.83528 0.301)
(2.37661 1.85404 0.304014)
(2.39665 1.86966 0.306514)
)
;
    }
    procBoundary23to31
    {
        type            processor;
        value           nonuniform List<vector> 
50
(
(2.61445 2.03903 0.336749)
(0.633723 0.110151 1.30422)
(-0.182165 -0.68484 1.74287)
(-0.163417 -0.664339 1.74656)
(-0.164304 -0.660047 1.73564)
(-0.181534 -0.668081 1.71192)
(-0.212845 -0.683715 1.67588)
(-0.263621 -0.699178 1.62293)
(-2.77243 0.733516 0.231073)
(-2.29657 0.226198 0.242863)
(2.61705 2.0416 0.335606)
(2.6171 2.04161 0.335712)
(2.04194 1.48121 0.62858)
(-0.150047 -0.652422 1.76153)
(-0.150164 -0.64756 1.75519)
(-0.163968 -0.652359 1.73634)
(-0.19077 -0.66327 1.70701)
(-0.236569 -0.670932 1.66323)
(-2.82948 0.745431 0.248585)
(-2.34143 0.23756 0.251756)
(2.617 2.04157 0.3356)
(2.61713 2.04165 0.33568)
(2.27399 1.7067 0.511925)
(-0.133623 -0.638799 1.76911)
(-0.137834 -0.636619 1.76981)
(-0.150335 -0.639539 1.75567)
(-0.174392 -0.647014 1.73084)
(-0.218035 -0.648962 1.69259)
(-2.866 0.75165 0.264858)
(-2.37396 0.24548 0.259985)
(2.61695 2.04153 0.335594)
(2.61713 2.04165 0.335669)
(2.36241 1.79218 0.467254)
(-0.114343 -0.623729 1.7696)
(-0.127885 -0.627903 1.77957)
(-0.140524 -0.62975 1.77069)
(-0.161986 -0.633707 1.74956)
(-0.205182 -0.631194 1.71463)
(-2.88894 0.754114 0.280232)
(-2.39787 0.250994 0.26773)
(2.61691 2.04149 0.33469)
(2.61711 2.04163 0.334696)
(2.4093 1.83712 0.442279)
(-0.0901585 -0.605351 1.76021)
(-0.118852 -0.620149 1.78155)
(-0.133503 -0.622176 1.77868)
(-0.152445 -0.622543 1.76106)
(-0.196292 -0.616363 1.72841)
(-2.90248 0.753993 0.294364)
(-2.41554 0.254769 0.274553)
)
;
    }
}


// ************************************************************************* //
