/*--------------------------------*- C++ -*----------------------------------*\
| =========                 |                                                 |
| \\      /  F ield         | OpenFOAM: The Open Source CFD Toolbox           |
|  \\    /   O peration     | Version:  2.4.0                                 |
|   \\  /    A nd           | Web:      www.OpenFOAM.org                      |
|    \\/     M anipulation  |                                                 |
\*---------------------------------------------------------------------------*/
FoamFile
{
    version     2.0;
    format      ascii;
    class       volVectorField;
    location    "0.02";
    object      Ur;
}
// * * * * * * * * * * * * * * * * * * * * * * * * * * * * * * * * * * * * * //

dimensions      [0 1 -1 0 0 0 0];

internalField   nonuniform List<vector> 
200
(
(-0.187663 -1.01139 6.57027)
(-2.19198 -2.93945 2.71318)
(-6.3546 -7.06303 14.1565)
(-16.2349 -4.27663 0.152111)
(-4.1942 -10.0578 37.4021)
(-27.0335 14.254 -6.3433)
(-5.58447 -3.56613 0.046473)
(-3.37164 -2.44963 0.18401)
(-0.812553 -2.11856 1.50027)
(-1.10098 1.31207 2.78723)
(-2.55943 -1.77353 4.10804)
(-2.46972 0.164803 20.4421)
(-16.3654 -6.54556 2.79644)
(-4.01488 -9.31655 61.7868)
(-33.9859 4.07169 -5.33024)
(-6.30379 -4.85481 -3.30251)
(-4.66967 -9.74505 -2.32953)
(-1.25815 -7.71956 -3.28462)
(0.629922 -0.0910931 1.14183)
(1.48418 1.10143 2.08146)
(-2.80657 -1.22955 21.4219)
(-4.57317 -3.04078 5.67984)
(-6.14345 -14.229 62.0739)
(-24.4176 -8.76596 -3.16474)
(-13.5004 -9.94769 -5.4722)
(-5.52532 -10.0771 -1.18325)
(-3.95894 -9.03209 -4.49147)
(-1.75344 -2.8187 0.298239)
(-7.17709 -3.27653 -7.18328)
(-3.94007 2.50904 2.65937)
(-1.72759 -3.25951 4.93005)
(-1.43417 -13.5483 54.335)
(-15.2309 -6.10967 -0.237521)
(-8.89009 -3.12265 -2.09973)
(-6.85484 -7.67959 0.498842)
(-6.59097 -8.47113 -3.37808)
(-3.44558 -4.50306 1.89477)
(-3.53742 -4.63168 -3.56551)
(-7.77722 -4.7367 4.60196)
(-6.50237 2.05741 -1.35272)
(-1.19844 -3.80435 2.87727)
(-3.24093 -2.85713 2.3447)
(-3.12458 -6.30463 1.09318)
(-8.79438 -8.42681 3.54753)
(-10.5862 -8.23824 0.086002)
(-6.47613 -7.37101 1.89328)
(-3.9261 -10.4291 -5.72825)
(1.88262 -5.0074 -4.56084)
(3.2846 -0.775731 -3.49289)
(2.57292 -0.117395 -4.67415)
(-4.96416 0.990262 4.77138)
(-4.866 -2.06904 3.56059)
(-4.79392 1.73002 7.9788)
(-12.1261 -6.62142 3.81794)
(-6.70907 -4.86197 12.5977)
(-3.79552 -9.13811 -5.42102)
(-0.799857 -8.64865 -7.78315)
(-0.17007 -1.95509 -5.92108)
(-1.4719 -3.69652 -10.5573)
(1.43845 4.82892 -3.69786)
(-5.82925 0.425289 2.14089)
(-5.11618 4.85722 6.10825)
(-5.15059 4.16146 3.74033)
(-6.73797 1.22567 9.89471)
(-9.03972 -8.80911 -2.21775)
(-3.12328 -8.62168 -6.7266)
(-1.82157 -2.03015 -2.24931)
(-4.04445 -5.1759 -9.6601)
(-7.41978 2.46391 -2.64676)
(-10.3133 -5.07342 -22.2089)
(-3.86951 6.73548 4.18731)
(-4.23273 3.60299 0.233675)
(-1.28643 9.60709 2.90708)
(-2.9068 0.399389 2.80143)
(-2.1995 -5.63901 -2.93827)
(-1.68344 -3.19418 1.23695)
(-3.79207 -6.23747 -6.52287)
(-3.09332 0.530847 3.78863)
(-10.0157 -2.48178 -7.96561)
(-8.97734 0.510407 2.55375)
(-3.96202 3.32797 4.57232)
(-4.38501 0.320129 5.85293)
(-4.41803 -0.284017 2.65363)
(-9.41641 -3.27838 10.6109)
(-5.59743 -3.32545 6.36394)
(-2.00647 -7.79782 -5.09622)
(-1.16678 -8.96257 -8.57242)
(2.52792 -2.03804 -6.6604)
(1.18785 -4.09727 -12.4399)
(2.76917 3.18078 -2.19493)
(-3.59782 3.22481 5.64631)
(-5.08301 4.18816 4.39128)
(-4.55523 0.825477 6.69307)
(-7.91021 -4.0059 3.75586)
(-3.94575 -6.91605 -1.34795)
(-2.96901 -10.0825 -8.64818)
(-0.508604 -1.1075 -5.54496)
(-3.34196 -6.23032 -13.3389)
(-1.87689 5.80946 -3.35229)
(-3.78194 0.0876674 -9.71729)
(-3.52231 7.32255 4.22957)
(-2.64049 2.67991 7.12314)
(-3.62847 2.4444 3.4673)
(-4.2264 -2.941 3.6056)
(-4.69979 -8.92904 -5.74962)
(-1.8193 -1.36815 -1.26714)
(-4.43432 -6.49715 -10.3832)
(-3.66929 3.93736 0.128224)
(-12.4601 -4.2069 -10.9884)
(-12.0593 1.70168 2.69796)
(-2.98439 2.73733 4.20657)
(-1.9415 6.30689 4.67052)
(-0.674075 1.98444 6.40151)
(-0.62747 -1.87699 1.26309)
(-0.400349 -0.871611 4.87542)
(-1.93756 -4.52557 -3.35812)
(-3.93571 0.495514 7.21193)
(-5.73679 -2.56874 -1.32213)
(-10.7683 -1.28305 8.10464)
(-13.5064 -2.47555 -0.612769)
(-2.06645 2.86764 5.40129)
(-2.91562 5.68523 2.71268)
(-2.63909 3.58348 7.06977)
(-4.62419 -1.29298 1.81004)
(-1.51693 -1.67029 -0.147567)
(-2.03454 -7.72702 -8.48874)
(-2.56862 -0.245271 -5.12769)
(-7.74277 -8.01968 -16.4678)
(-4.86721 4.43626 -6.57219)
(-9.41703 -7.62415 -19.0212)
(-2.28392 5.30168 1.53326)
(-0.985154 3.49154 5.68179)
(-1.12064 2.53712 0.648104)
(-0.927403 -0.270156 2.61463)
(-2.01387 -7.5628 -7.08296)
(-1.56664 0.0122435 -3.03042)
(-4.06083 -7.17421 -14.9659)
(-4.21626 5.73641 -2.95687)
(-10.8509 -2.99406 -12.0025)
(-11.036 6.42677 1.56502)
(-2.38895 2.1837 3.79641)
(-1.0957 4.92695 0.596967)
(0.848494 2.7716 4.87823)
(-0.848487 -2.59783 -3.63869)
(-1.70748 -0.552065 2.42386)
(-2.02871 -3.58413 -6.06161)
(-5.21886 1.42156 5.77261)
(-7.29066 -0.9169 -4.38428)
(-14.0893 -0.862716 7.08906)
(-15.5519 -0.649302 -2.45333)
(-3.31221 5.92695 0.612316)
(-2.75793 1.07781 3.13778)
(-1.27753 3.69911 -1.08421)
(-0.717315 1.10334 7.9402)
(-0.704733 2.63128 -1.00564)
(-2.60401 3.27469 12.22)
(-2.79602 2.04918 3.2589)
(-6.71121 -0.276972 11.832)
(-12.2733 1.77366 -0.466214)
(-13.5731 -0.880775 3.58982)
(0.827166 4.08838 0.290004)
(-0.819941 3.92775 5.15539)
(-0.667171 6.67658 -1.14857)
(-0.16844 2.44325 6.03738)
(-0.716196 -1.62054 -5.50624)
(-1.01148 1.00284 0.405204)
(-7.88756 -3.76026 -14.2668)
(-7.92881 5.27216 -1.785)
(-14.0479 -0.146295 -19.8737)
(-15.9655 3.04168 3.49919)
(-2.29032 2.75124 2.76929)
(-1.93011 6.35348 -2.91162)
(-1.09825 4.05796 5.47426)
(-1.07809 5.16157 -4.0403)
(-2.53024 1.61471 6.08211)
(-3.61603 -0.239621 -4.79643)
(-6.93503 -0.240386 5.08881)
(-7.86203 2.13719 -5.22307)
(-13.5751 -0.302401 6.97037)
(-14.0936 3.73127 -0.71109)
(-3.26173 4.96487 -1.33028)
(-2.96643 3.50272 2.7671)
(-2.32772 5.68363 -5.8726)
(-3.46319 3.0223 6.14247)
(-4.07004 4.32124 -7.44426)
(-5.52137 4.26964 10.5375)
(-4.30899 5.55644 2.46654)
(-7.58697 -0.302859 10.3857)
(-11.0723 3.22056 -1.12074)
(-12.0565 -0.31195 3.73582)
(-1.56663 5.853 3.89459)
(-3.11415 4.83271 -3.15139)
(-3.44319 3.82539 2.74047)
(-3.7663 4.93742 -6.2848)
(-3.44999 6.31221 9.62059)
(-3.93008 5.12095 -5.40397)
(-3.47578 8.84914 12.8147)
(-2.53807 5.61443 5.40406)
(-10.4782 0.990173 4.08888)
(-9.37223 2.79709 -0.640306)
)
;

boundaryField
{
    inlet
    {
        type            calculated;
        value           nonuniform 0();
    }
    outlet
    {
        type            calculated;
        value           nonuniform List<vector> 
20
(
(-4.20569 -0.0692367 2.95419)
(-1.61239 -0.279858 2.24789)
(-0.633071 1.50004 2.4339)
(-3.0764 1.05684 -1.57762)
(-0.53104 -1.49856 -4.50724)
(-1.65636 3.44773 -3.53155)
(-7.03153 -6.08534 -22.4405)
(-5.56428 -0.492403 2.32179)
(1.32852 2.04041 -2.43003)
(-6.87491 -1.29341 -9.55114)
(-8.80265 0.686852 2.46031)
(-10.1062 -3.48059 -0.851747)
(-6.97993 -8.20373 -20.1918)
(-10.3793 5.5891 0.824823)
(-12.3273 -1.66296 -2.70554)
(-10.1857 -1.88803 3.34386)
(-13.5284 2.46211 2.33381)
(-12.2421 3.0668 -1.73503)
(-8.87925 -1.31532 3.45106)
(-5.99751 1.78763 -0.892749)
)
;
    }
    bottom
    {
        type            calculated;
        value           uniform (0 0 0);
    }
    top
    {
        type            symmetryPlane;
    }
    side1
    {
        type            symmetryPlane;
    }
    side2
    {
        type            symmetryPlane;
    }
    procBoundary23to15
    {
        type            processor;
        value           nonuniform List<vector> 
50
(
(5.16234 0.686129 -3.85452)
(-2.35277 -3.98967 2.51562)
(-4.52391 -8.59635 -0.642647)
(-4.03219 -6.51686 10.9617)
(-8.99056 -2.26917 -1.88288)
(-5.3798 -3.56005 2.78383)
(-7.34212 -1.67796 0.138957)
(-0.294457 -0.722146 3.03793)
(0.845385 -0.081843 3.27078)
(0.925024 -0.881677 0.910056)
(-2.84885 -4.1198 -0.341216)
(-0.708814 -5.85929 -2.3085)
(-1.76391 -3.70964 -1.62586)
(-3.15223 -8.65413 -3.53909)
(-3.09318 -5.52287 -1.25592)
(-4.12975 -6.90741 -1.78991)
(-3.45005 -5.46979 -1.1376)
(1.29744 -4.91735 -3.57607)
(2.48093 -2.78919 -4.36548)
(2.64617 -1.41025 -0.379583)
(-2.79365 1.59823 5.44329)
(-4.47073 0.840233 3.78225)
(-4.71349 -2.0128 4.8499)
(-3.05594 -5.21089 -0.758837)
(-8.80273 0.737376 13.6057)
(-2.65657 -1.5635 2.53981)
(0.233561 -5.557 -4.5834)
(2.04161 -3.44734 -2.03371)
(-0.952462 0.598735 -2.08174)
(-0.411176 -0.492901 -9.99648)
(1.27765 -3.97796 6.02744)
(-3.51595 3.17964 6.53855)
(-5.99253 2.56513 4.19676)
(-5.1253 1.54944 6.42884)
(-5.56383 -1.79392 1.40578)
(-2.23764 -2.03262 -1.69093)
(-3.30866 -7.04881 -8.71575)
(-3.98098 -1.7822 -3.94079)
(-4.55644 -4.33174 -10.2383)
(-3.80189 4.67771 1.723)
(0.658452 -1.28391 8.26014)
(4.24826 -7.11887 5.55297)
(-0.965946 3.23868 6.85208)
(-3.58908 2.51714 -1.04474)
(-0.792032 1.77114 3.07898)
(-3.4606 -1.58394 -11.741)
(-3.27022 0.931048 -2.8143)
(-11.4809 0.717477 -24.8841)
(-13.96 5.9319 4.25706)
(-10.8386 6.87727 6.72219)
)
;
    }
    procBoundary23to22
    {
        type            processor;
        value           nonuniform List<vector> 
20
(
(1.61886 3.22 0.610341)
(-1.55406 0.985205 8.87563)
(-1.75116 -2.54688 3.49595)
(-2.41895 -1.54998 16.9826)
(-2.16052 -1.34066 2.37045)
(-3.4536 -1.26469 3.07837)
(-5.62118 4.44717 2.53262)
(-4.91301 3.9984 -1.19917)
(-2.8218 2.08711 5.17452)
(-4.09908 7.21578 3.61725)
(-3.90211 2.87141 3.56563)
(-3.23448 8.69171 2.71793)
(-0.939842 3.80153 2.41554)
(-2.53813 2.28151 3.68497)
(-2.94047 5.8181 1.02375)
(-3.00401 3.3343 4.77819)
(0.942927 3.13269 4.89023)
(-2.58356 4.00559 0.188598)
(-3.15008 3.96313 4.11237)
(-4.15109 4.15861 1.38905)
)
;
    }
    procBoundary23to31
    {
        type            processor;
        value           nonuniform List<vector> 
50
(
(-2.21556 -11.0943 33.2449)
(-11.394 -5.41641 -2.61423)
(-10.8653 -3.26941 -2.79965)
(-9.23236 -8.54207 -1.02097)
(-9.71603 -9.05076 -4.27421)
(-7.48497 -8.82277 0.769745)
(-7.93546 -8.30172 -5.98982)
(-7.71514 -7.09968 6.78854)
(-9.63946 -3.47943 -4.50185)
(-10.4465 -3.88438 7.68819)
(-3.19238 5.74986 -2.32455)
(-0.984282 9.2641 -1.31057)
(-2.2811 2.48305 0.618891)
(-4.67064 -4.56547 -1.86052)
(-3.95452 -6.56684 1.47783)
(-5.66753 -8.52991 -5.55964)
(-6.71419 -5.83906 5.21166)
(-6.86312 -5.7867 -2.57299)
(-8.66811 -5.34049 5.70295)
(-6.41848 0.814769 -2.71691)
(-2.04537 6.90132 2.82692)
(-1.83667 1.29876 4.36588)
(-1.04619 1.88223 1.97027)
(-3.26945 -3.67376 5.47609)
(-3.67717 -4.78358 -1.71515)
(-5.08921 -3.43445 8.34998)
(-5.18317 -5.27449 0.145081)
(-5.83673 -5.79357 8.14545)
(-8.06731 -1.94841 -0.75902)
(-7.66799 -2.37671 1.95865)
(-2.24146 3.22533 4.647)
(-2.80069 4.19196 0.507774)
(-2.78367 0.235585 3.37087)
(-4.82285 -0.0534541 -0.658031)
(-5.00092 -0.227124 6.48601)
(-4.99848 0.55545 -2.05346)
(-4.60054 2.32841 10.4031)
(-4.76298 1.0304 3.07709)
(-10.2525 -0.442487 3.63862)
(-10.2726 3.89188 0.910575)
(-4.59664 2.76814 -0.334773)
(-0.493758 9.51336 3.72443)
(-3.31094 4.03123 -4.08289)
(-7.08139 1.92311 4.34468)
(-6.87146 1.94394 -7.43114)
(-6.33187 5.72163 8.62499)
(-7.71877 2.63649 -9.0829)
(-5.63564 8.54433 11.3028)
(-8.49832 3.70671 2.33133)
(-8.885 0.518342 1.25295)
)
;
    }
}


// ************************************************************************* //
