/*--------------------------------*- C++ -*----------------------------------*\
| =========                 |                                                 |
| \\      /  F ield         | OpenFOAM: The Open Source CFD Toolbox           |
|  \\    /   O peration     | Version:  2.4.0                                 |
|   \\  /    A nd           | Web:      www.OpenFOAM.org                      |
|    \\/     M anipulation  |                                                 |
\*---------------------------------------------------------------------------*/
FoamFile
{
    version     2.0;
    format      ascii;
    class       surfaceScalarField;
    location    "0.05";
    object      phia;
}
// * * * * * * * * * * * * * * * * * * * * * * * * * * * * * * * * * * * * * //

dimensions      [0 3 -1 0 0 0 0];

internalField   nonuniform List<scalar> 
490
(
1.4558e-06
3.7267e-06
2.15282e-05
1.49056e-06
3.72315e-06
2.15348e-05
1.51997e-06
3.72014e-06
2.15403e-05
1.53335e-06
3.71766e-06
2.15449e-05
1.53336e-06
3.71766e-06
2.15449e-05
1.53495e-06
3.71766e-06
2.15449e-05
3.62338e-06
3.71649e-06
2.15452e-05
5.84546e-06
2.15865e-06
2.20043e-05
-1.32312e-06
2.89336e-06
2.07162e-05
9.8398e-06
1.65606e-05
1.39167e-06
8.34265e-06
2.15145e-05
1.45578e-06
8.16867e-06
2.15266e-05
1.50925e-06
7.72083e-06
2.15367e-05
1.53333e-06
3.74306e-06
2.15449e-05
1.53334e-06
3.7318e-06
2.15449e-05
1.53771e-06
3.72372e-06
2.15449e-05
6.73232e-06
1.31787e-06
2.15457e-05
1.38046e-05
-6.05202e-07
2.26168e-05
3.53774e-06
-5.59987e-07
2.21643e-05
4.28447e-06
1.65641e-05
-0.000135242
1.31067e-05
7.97126e-07
-0.000125926
1.28352e-05
1.41769e-06
-5.92161e-05
1.21024e-05
3.06435e-06
9.36757e-07
3.7855e-06
2.14147e-05
1.18727e-06
3.72677e-06
2.14718e-05
1.35423e-05
1.13198e-06
2.14949e-05
2.86921e-05
-1.62586e-06
2.35179e-05
3.15684e-05
-2.69344e-06
2.4186e-05
2.92763e-05
-2.68965e-06
2.41862e-05
-1.97e-06
2.3473e-05
-0.000143285
-4.97347e-08
-0.000137171
3.37046e-07
-6.64257e-05
1.4135e-06
3.48133e-07
2.12551e-05
1.55089e-05
2.14035e-05
3.08211e-05
2.35357e-05
3.15275e-05
2.38888e-05
3.15715e-05
2.41864e-05
3.15713e-05
2.41865e-05
2.41865e-05
1.42704e-06
3.73002e-06
2.15177e-05
1.47516e-06
3.7251e-06
2.15285e-05
1.51528e-06
3.72098e-06
2.15376e-05
1.53334e-06
3.71766e-06
2.15449e-05
1.53335e-06
3.71766e-06
2.15449e-05
1.53555e-06
3.71766e-06
2.15449e-05
4.67489e-06
3.71609e-06
2.15453e-05
8.75206e-06
1.54697e-06
2.2306e-05
5.34222e-07
1.8356e-06
2.14804e-05
9.83789e-06
1.65618e-05
1.34089e-06
8.54663e-06
2.14959e-05
1.42903e-06
8.43277e-06
2.15157e-05
1.50122e-06
8.12678e-06
2.1532e-05
1.53332e-06
3.75148e-06
2.15449e-05
1.53334e-06
3.73674e-06
2.15449e-05
1.53933e-06
3.72617e-06
2.15449e-05
8.53693e-06
1.19506e-06
2.15461e-05
1.76608e-05
-9.93204e-07
2.3031e-05
5.59552e-06
-1.11705e-06
2.28462e-05
4.02373e-06
1.65676e-05
-0.000142253
1.34316e-05
-5.28238e-08
-0.000136007
1.3261e-05
3.04265e-07
-6.5459e-05
1.2774e-05
1.29867e-06
7.35184e-07
3.81446e-06
2.13411e-05
1.06514e-06
3.73831e-06
2.14286e-05
1.44673e-05
1.24072e-06
2.14638e-05
2.96657e-05
-1.66878e-06
2.35577e-05
3.15699e-05
-2.69783e-06
2.41861e-05
3.01038e-05
-2.694e-06
2.41863e-05
-2.23216e-06
2.37763e-05
-0.00014744
-5.39489e-07
-0.00014351
-3.21881e-07
-7.06762e-05
3.02105e-07
-6.13339e-08
2.10865e-05
1.56064e-05
2.13143e-05
3.10213e-05
2.33419e-05
3.15134e-05
2.37664e-05
3.15715e-05
2.41863e-05
3.15714e-05
2.41865e-05
2.41865e-05
1.34088e-06
3.73996e-06
1.02924e-05
1.42903e-06
3.73095e-06
1.03419e-05
1.50122e-06
3.72351e-06
1.04734e-05
1.53332e-06
3.71766e-06
2.10748e-05
1.53334e-06
3.71766e-06
2.12755e-05
1.53739e-06
3.71766e-06
2.13475e-05
7.05734e-06
3.71494e-06
2.23277e-05
1.45032e-05
4.13365e-07
2.33502e-05
3.90988e-06
2.17046e-07
2.30794e-05
9.83198e-06
2.02414e-05
1.18887e-06
8.73786e-06
1.02109e-05
1.34889e-06
8.68023e-06
1.02422e-05
1.47714e-06
8.52634e-06
1.03078e-05
1.5333e-06
3.77657e-06
2.07469e-05
1.53332e-06
3.75149e-06
2.10746e-05
1.54424e-06
3.73382e-06
2.11996e-05
1.14504e-05
1.16159e-06
2.23657e-05
2.31811e-05
-1.61802e-06
2.37361e-05
8.22126e-06
-1.82523e-06
2.3707e-05
3.7771e-06
2.03369e-05
-0.000148718
1.37277e-05
-8.15519e-07
-0.000145687
1.36522e-05
-7.01666e-07
-7.1841e-05
1.34199e-05
-3.73945e-07
1.3425e-07
3.89762e-06
1.00652e-05
7.01253e-07
3.77262e-06
1.01324e-05
1.52586e-05
1.50511e-06
1.57347e-05
3.05989e-05
-1.54328e-06
2.33887e-05
3.15708e-05
-2.70204e-06
2.41859e-05
3.08764e-05
-2.69823e-06
2.41862e-05
-2.47725e-06
2.40545e-05
-0.000151169
-9.7139e-07
-0.000149322
-9.02845e-07
-7.52114e-05
-7.02295e-07
-1.26293e-06
9.90233e-06
1.54252e-05
1.73037e-05
3.11496e-05
2.2815e-05
3.14859e-05
2.34566e-05
3.15715e-05
2.41861e-05
3.15715e-05
2.41864e-05
2.41864e-05
-0.000152406
1.39721e-05
-9.77918e-07
-0.000151252
1.39444e-05
-9.11085e-07
-7.76544e-05
1.38621e-05
-7.1278e-07
-3.54223e-06
4.29461e-06
2.00444e-05
-1.60898e-06
4.05418e-06
2.05184e-05
1.41794e-05
3.94048e-06
1.72884e-05
3.04911e-05
-6.21487e-07
1.82383e-05
3.15704e-05
-2.71754e-06
1.92465e-05
3.08698e-05
-2.71706e-06
1.96399e-05
-2.42878e-06
1.98418e-05
-0.000153498
1.40283e-05
-1.08264e-06
-0.000152993
1.40199e-05
-1.05356e-06
-8.10179e-05
1.39948e-05
-9.66386e-07
-7.17137e-06
9.24503e-06
1.90533e-05
-3.90145e-06
9.09031e-06
1.97301e-05
1.38756e-05
5.88183e-06
1.71202e-05
3.11016e-05
-7.53066e-07
1.82811e-05
3.1571e-05
-2.71469e-06
1.92521e-05
3.13536e-05
-2.71319e-06
1.96456e-05
-2.6431e-06
1.99379e-05
-0.000154392
1.39873e-05
-1.16974e-06
-0.000154392
1.39947e-05
-1.16998e-06
-0.000154336
1.4002e-05
-1.17021e-06
-0.000154195
1.39873e-05
-1.15314e-06
-0.000110271
1.02422e-05
4.08714e-06
-1.76117e-05
4.28187e-06
1.17022e-05
3.13898e-05
-7.93656e-07
1.83051e-05
3.15713e-05
-2.70576e-06
1.92578e-05
3.15714e-05
-2.70212e-06
1.96512e-05
-2.69804e-06
1.99843e-05
-0.000154392
-1.16787e-06
-0.000154392
-1.16574e-06
-0.000154333
-1.15401e-06
-9.56335e-05
5.18148e-06
-3.01998e-06
1.33679e-05
3.10993e-05
1.79051e-05
3.14078e-05
1.83132e-05
3.15714e-05
1.92634e-05
3.15714e-05
1.96568e-05
1.99899e-05
-0.000153288
1.40086e-05
-0.000152618
1.39924e-05
-8.21979e-05
1.39445e-05
-8.64591e-06
4.93755e-06
1.12843e-05
5.47203e-06
2.77405e-05
1.87159e-05
2.80632e-05
1.88211e-05
2.83625e-05
1.68988e-05
2.85319e-05
1.52903e-05
1.39131e-05
-0.000153891
1.40396e-05
-0.000153594
1.40346e-05
-8.74062e-05
1.40199e-05
-1.48057e-05
9.64671e-06
9.80782e-06
1.17555e-05
2.78435e-05
1.8759e-05
2.80632e-05
1.87969e-05
2.83625e-05
1.6872e-05
2.85893e-05
1.52616e-05
1.38921e-05
-0.000154392
1.39805e-05
-0.000154392
1.39886e-05
-0.00015431
1.39997e-05
-8.86423e-05
1.60134e-05
2.41406e-06
1.80161e-05
2.78926e-05
1.87024e-05
2.80632e-05
1.87316e-05
2.83626e-05
1.6801e-05
2.86148e-05
1.51863e-05
1.38163e-05
-0.000154321
-0.000154142
-7.46279e-05
1.63149e-05
2.78972e-05
2.79001e-05
2.80632e-05
2.83627e-05
2.86149e-05
)
;

boundaryField
{
    inlet
    {
        type            calculated;
        value           nonuniform 0();
    }
    outlet
    {
        type            calculated;
        value           nonuniform 0();
    }
    bottom
    {
        type            calculated;
        value           uniform 0;
    }
    top
    {
        type            symmetryPlane;
        value           uniform 0;
    }
    side1
    {
        type            symmetryPlane;
        value           nonuniform 0();
    }
    side2
    {
        type            symmetryPlane;
        value           uniform 0;
    }
    procBoundary26to18
    {
        type            processor;
        value           nonuniform List<scalar> 
50
(
-3.87547e-06
-3.72109e-06
-3.71919e-06
-3.71766e-06
-3.71767e-06
-3.71769e-06
-3.71723e-06
-3.04618e-06
-4.79755e-06
-9.84308e-06
-3.72523e-06
-3.72227e-06
-3.71974e-06
-3.71766e-06
-3.71766e-06
-3.71767e-06
-3.71703e-06
-2.69726e-06
-3.95451e-06
-9.84232e-06
-3.73148e-06
-3.72599e-06
-3.72138e-06
-3.71766e-06
-3.71766e-06
-3.71766e-06
-3.71653e-06
-1.86267e-06
-2.28838e-06
-9.83987e-06
-1.39056e-05
-1.38536e-05
-1.3701e-05
-4.09361e-06
-3.93158e-06
-3.8637e-06
3.93077e-07
2.71851e-06
2.7188e-06
2.0452e-06
-1.39723e-05
-1.39424e-05
-1.38538e-05
-4.52292e-06
-4.66218e-06
-1.85959e-05
-1.88335e-05
-1.69131e-05
-1.53058e-05
-1.39133e-05
)
;
    }
    procBoundary26to25
    {
        type            processor;
        value           nonuniform List<scalar> 
20
(
-1.41345e-06
-1.31694e-06
0.000139204
0.000145774
-1.37091e-06
-1.23685e-06
0.000144787
0.00014899
-1.23684e-06
-9.97287e-07
0.000149897
0.000151878
0.000152845
0.000153689
0.000154392
0.000154392
0.000153542
0.000154003
0.000154392
0.000154361
)
;
    }
    procBoundary26to27
    {
        type            processor;
        value           nonuniform List<scalar> 
20
(
-8.63199e-06
-8.6241e-06
9.20638e-06
3.06456e-05
-8.63034e-06
-8.6195e-06
1.00459e-05
3.09957e-05
-8.62522e-06
-8.60557e-06
1.08553e-05
3.13054e-05
1.08652e-05
1.15183e-05
3.14893e-05
3.15714e-05
1.06614e-05
1.1827e-05
2.88182e-05
2.88302e-05
)
;
    }
}


// ************************************************************************* //
