/*--------------------------------*- C++ -*----------------------------------*\
| =========                 |                                                 |
| \\      /  F ield         | OpenFOAM: The Open Source CFD Toolbox           |
|  \\    /   O peration     | Version:  2.4.0                                 |
|   \\  /    A nd           | Web:      www.OpenFOAM.org                      |
|    \\/     M anipulation  |                                                 |
\*---------------------------------------------------------------------------*/
FoamFile
{
    version     2.0;
    format      ascii;
    class       volVectorField;
    location    "0.05";
    object      U;
}
// * * * * * * * * * * * * * * * * * * * * * * * * * * * * * * * * * * * * * //

dimensions      [0 1 -1 0 0 0 0];

internalField   nonuniform List<vector> 
200
(
(62.8053 -81.702 100.604)
(67.0893 -57.9384 19.7989)
(32.6235 -90.5443 77.2818)
(37.6423 -17.8628 17.3308)
(7.17395 -83.6793 39.4007)
(-6.75002 -49.501 25.2549)
(-21.9131 -170.95 -12.4035)
(-57.3771 9.14437 73.4461)
(-50.4656 -215.324 2.11123)
(-95.4846 -8.42723 -22.2272)
(152.466 -40.139 66.6004)
(132.142 -88.6008 126.793)
(88.5827 -26.3717 53.8276)
(61.0042 -55.0158 78.6643)
(35.4886 -21.9157 49.6557)
(6.71198 -84.2286 28.2811)
(-25.4076 5.89961 54.6199)
(-30.0559 -187.207 2.66088)
(-74.3783 23.3515 -7.39541)
(-57.1049 -177.827 -39.9251)
(297.249 -1.73706 175.284)
(96.939 -21.7606 262.367)
(89.275 -27.714 45.0408)
(81.1442 -12.9628 21.189)
(63.8743 -20.1499 -6.06169)
(21.8813 -12.7484 47.7324)
(1.02106 -109.806 20.9921)
(-38.8877 50.0182 10.7667)
(-40.2169 -150.911 -32.625)
(-59.1651 38.3646 -76.1165)
(155.269 -14.4143 94.9695)
(115.339 -12.2817 19.4445)
(112.09 3.07519 25.61)
(87.2856 -20.2056 -13.9626)
(70.8623 -3.88991 25.294)
(52.6871 -24.2818 7.11973)
(22.3242 25.4217 33.9395)
(-6.53942 -116.618 -12.3262)
(-33.7816 74.021 -60.8539)
(-26.0154 -133.99 -54.6943)
(41.3715 -43.3602 5.00618)
(23.7341 -59.367 111.846)
(55.2972 27.7859 35.1869)
(25.629 -45.178 23.0748)
(25.1242 -34.5773 26.351)
(34.4087 -99.1711 31.126)
(-5.19188 -32.2709 62.5646)
(17.5621 -173.253 -4.12199)
(-16.5472 -22.5426 47.4223)
(7.38626 -187.42 -44.4383)
(18.036 -99.0041 136.461)
(47.2099 5.26012 59.7154)
(25.2678 -36.1648 61.4125)
(55.1408 48.2095 75.3939)
(30.4717 -61.7995 38.5108)
(20.9089 -38.9448 38.2308)
(33.4538 -107.496 21.2536)
(-0.224318 -6.46028 50.6868)
(18.5331 -160.497 -8.31475)
(-10.768 -18.8046 -29.7635)
(15.6266 -62.3489 186.74)
(33.2749 -40.4164 62.75)
(80.7038 40.0196 37.1338)
(55.2258 -4.51171 -10.8622)
(51.9306 25.2049 146.594)
(40.197 -57.1683 48.0474)
(22.3114 -9.4619 37.6223)
(32.9748 -105.18 12.8802)
(-7.27419 20.1002 18.3008)
(11.3834 -136.19 -39.3495)
(86.2106 -25.0752 85.0554)
(87.9518 16.3436 62.5272)
(69.7459 -11.9311 16.668)
(67.9803 14.762 100.027)
(61.6172 -28.7804 48.3027)
(52.78 2.84114 62.2575)
(48.2184 -43.5452 36.3553)
(20.6002 32.781 27.3126)
(37.8163 -81.7562 -0.982594)
(-1.10274 50.7771 -41.2854)
(9.44294 -39.9198 120.924)
(42.0593 50.3149 18.8178)
(19.0471 -34.3385 63.9098)
(17.5643 -11.8716 35.5241)
(45.2432 -125.762 13.0826)
(-12.7433 -20.8729 64.6264)
(45.1554 -163.461 -3.43257)
(-30.1799 -26.7193 69.3921)
(31.8656 -192.342 -55.689)
(-13.1695 -65.1405 -52.4718)
(28.7765 43.1516 31.4219)
(-8.07793 -6.95906 109.147)
(42.4345 53.9316 48.3719)
(22.2433 -68.3823 35.3512)
(7.26708 -35.7011 43.1663)
(42.2787 -115.94 7.33583)
(-17.7091 -10.3048 51.3442)
(39.8413 -156.787 -21.1514)
(-25.1391 -27.6708 -9.78977)
(0.870654 -169.299 -58.5547)
(-14.3055 -25.0638 102.501)
(48.8948 48.9455 35.1478)
(32.9529 -15.4715 3.84535)
(33.9491 27.5845 144.053)
(30.1836 -69.2857 43.4309)
(9.56732 -10.0128 35.0844)
(40.1897 -106.194 -1.16186)
(-22.3358 13.9053 29.5412)
(9.05323 -128.982 -50.9943)
(-24.0159 30.5667 -116.408)
(50.6462 10.4001 88.1816)
(39.7046 -12.2343 33.4357)
(34.9512 13.9806 129.889)
(37.8344 -33.2357 59.7199)
(34.6289 7.55764 59.306)
(33.8332 -53.8355 28.2075)
(-1.5517 29.7368 32.0691)
(22.1818 -86.8431 -21.5344)
(-23.113 53.6259 -53.4968)
(-34.2133 -174.131 -19.4274)
(15.5615 30.6043 16.4308)
(7.81118 -59.6824 31.719)
(-20.5258 6.50641 36.7634)
(47.0109 -135.168 -26.4098)
(-50.7862 35.9337 112.854)
(59.6511 -177.856 -25.7353)
(-42.3827 -11.2436 78.0825)
(45.6142 -182.567 -57.9489)
(-28.2022 -56.2172 -14.3874)
(-6.29148 -187.513 -48.7966)
(-22.649 -37.8929 25.8982)
(-16.1198 13.5724 50.8252)
(11.8164 -81.2247 6.37816)
(-32.5309 -3.7306 46.0185)
(35.3978 -124.361 -15.6721)
(-37.378 1.4837 56.1427)
(34.6777 -157.733 -43.5141)
(-46.1352 -13.8913 13.9314)
(-10.4599 -149.348 -46.3163)
(-33.9229 0.32942 -125.539)
(-15.2091 22.7845 75.2428)
(-5.78093 -26.2086 6.77181)
(-16.1888 4.42421 68.8578)
(3.61645 -77.6219 18.6599)
(-22.9142 -5.8542 29.234)
(15.3989 -113.93 -21.9839)
(-54.4282 13.3887 23.6036)
(-15.7047 -109.796 -38.9713)
(-46.7073 21.399 -100.045)
(-63.7903 -219.77 15.9135)
(-14.324 -15.9093 38.8853)
(-12.7468 7.46843 132.062)
(-2.29322 -40.8127 47.8209)
(-9.75949 10.8908 41.7996)
(1.56987 -64.2688 10.0292)
(-49.1228 40.2842 20.6495)
(-11.6265 -80.0381 -23.8588)
(-54.3596 45.1574 -68.5783)
(-61.4342 -161.201 1.02572)
(-85.3753 151.238 -131.579)
(1.46076 -52.6064 9.19682)
(-53.5738 17.619 55.9471)
(30.1894 -98.4653 -31.0734)
(-81.4574 71.0632 122.042)
(56.8526 -145.973 -56.3056)
(-63.0162 52.8984 121.405)
(64.2664 -166.461 -56.9069)
(-39.0998 1.19091 64.1161)
(14.6456 -160.166 -40.4487)
(-29.2148 -16.7107 -83.0834)
(-47.0061 9.55464 19.4201)
(6.2254 -58.1746 -3.09021)
(-64.6086 38.4359 61.0072)
(33.999 -103.565 -39.453)
(-64.7571 50.7074 83.4191)
(41.4116 -134.092 -48.8705)
(-54.6991 24.6148 63.9739)
(-2.81675 -122.523 -34.9208)
(-45.2476 -2.89955 -81.0556)
(-64.3667 -242.111 41.0141)
(-19.1744 -32.3307 10.3376)
(-46.1161 17.4989 35.4492)
(9.18226 -62.6411 -5.27975)
(-53.5408 31.0524 46.7399)
(23.3758 -94.5 -30.5806)
(-63.7046 33.2036 45.3318)
(-8.26273 -92.4474 -29.5558)
(-60.7941 15.8903 -68.7743)
(-75.4416 -192.786 27.4561)
(-114.792 119.756 -139.023)
(-47.8748 17.5123 3.66218)
(-13.9137 -32.2575 4.80917)
(-45.7646 40.6551 18.8865)
(5.60701 -54.9601 -5.47191)
(-51.6872 47.1843 27.6309)
(-5.63687 -65.5818 -17.9411)
(-58.4758 37.3739 -41.7184)
(-70.3009 -139.343 10.7614)
(-113.488 136.427 -120.246)
(-151.559 -278.029 33.4216)
)
;

boundaryField
{
    inlet
    {
        type            calculated;
        value           nonuniform 0();
    }
    outlet
    {
        type            calculated;
        value           nonuniform 0();
    }
    bottom
    {
        type            calculated;
        value           uniform (0 0 0);
    }
    top
    {
        type            symmetryPlane;
    }
    side1
    {
        type            symmetryPlane;
    }
    side2
    {
        type            symmetryPlane;
    }
    procBoundary26to18
    {
        type            processor;
        value           nonuniform List<vector> 
50
(
(85.1828 -45.536 8.98556)
(57.3691 -83.6827 16.8814)
(72.8264 -23.0836 9.13908)
(26.3817 -94.8493 44.651)
(22.5383 -59.9058 -8.50824)
(2.89282 -126.114 38.6611)
(-34.785 -38.5278 74.0495)
(-38.8262 -214.923 -42.7203)
(-83.1344 -12.8185 72.6541)
(-61.3277 -229.454 15.2692)
(52.6452 -26.6608 49.6224)
(88.5389 18.5134 36.7098)
(44.0251 -44.4851 87.9181)
(59.3013 -4.27572 17.0954)
(33.7823 -90.8197 24.3075)
(5.60902 -52.3172 36.2803)
(18.9298 -165.498 13.1654)
(-30.4515 -39.2886 95.6222)
(-3.81096 -214.462 -29.5284)
(-27.3593 -54.2858 21.4028)
(62.1655 50.3811 40.8759)
(21.9076 -16.4486 122.694)
(45.2887 24.3973 14.4518)
(35.7886 -102.221 22.2963)
(-12.2546 -8.95491 85.2929)
(47.3653 -166.658 21.2875)
(-37.214 -38.107 110.258)
(35.8397 -203.34 -27.4014)
(-34.0469 -58.9401 46.3253)
(21.5196 -204.625 -74.9187)
(-6.96958 -38.8406 91.8057)
(14.2741 -12.4729 8.85728)
(25.9793 -105.407 6.26139)
(-47.0031 25.5496 103.886)
(52.5035 -165.155 -22.953)
(-63.8496 26.0221 136.219)
(64.6181 -196.67 -27.3754)
(-40.8219 -40.8601 73.999)
(45.7652 -201.445 -74.1078)
(-14.648 -78.0914 -35.7753)
(-42.1814 10.2705 50.4349)
(16.5478 -94.586 -1.52943)
(-61.8096 12.1241 93.7903)
(43.5395 -132.313 -37.3343)
(-79.3558 70.1238 150.801)
(69.1882 -167.881 -48.4882)
(-52.5446 35.0788 126.01)
(80.491 -184.922 -61.3519)
(-24.2252 -12.8499 67.0624)
(31.681 -188.12 -44.3271)
)
;
    }
    procBoundary26to25
    {
        type            processor;
        value           nonuniform List<vector> 
20
(
(114.021 -70.4207 -23.4993)
(292.451 144.338 -456.898)
(167.684 -56.3373 113.208)
(201.556 -11.4534 68.0534)
(1.06058 -49.848 118.458)
(44.1268 -81.0601 152.844)
(106.41 -59.0565 135.944)
(73.2881 -55.8756 115.069)
(30.1976 -17.774 0.725042)
(-22.7987 -73.9789 132.006)
(-22.059 -81.2252 190.401)
(30.1428 -29.5603 121.066)
(-23.1068 -36.9097 112.192)
(-11.8224 19.8205 39.6817)
(-49.8728 -16.2184 43.6276)
(-35.1375 11.3494 117.594)
(-34.6959 5.9256 13.7857)
(-27.9893 -26.0259 25.6373)
(-41.6682 -2.50034 19.7255)
(-38.9157 -13.099 18.7438)
)
;
    }
    procBoundary26to27
    {
        type            processor;
        value           nonuniform List<vector> 
20
(
(-60.3107 -198.093 -37.3937)
(-63.8651 1.3289 -89.6491)
(-40.6379 -169.998 -53.2384)
(-32.2633 98.8251 -131.101)
(-9.07536 -45.6694 -74.6197)
(-4.69418 -185.982 -55.9691)
(-15.7875 47.8602 -128.085)
(-22.5216 -187.789 -20.5903)
(-5.67809 -210.147 -52.6811)
(-17.8507 12.633 -145.111)
(-42.7611 -237.981 0.990874)
(-60.9223 154.32 -134.642)
(-22.4907 -11.2227 -144.162)
(-55.1895 -272.54 30.9545)
(-84.6014 135.459 -144.794)
(-120.735 -281.645 20.4164)
(-47.0705 -276.765 50.5587)
(-102.287 102.165 -146.453)
(-131.299 -311.581 47.5423)
(-210.332 218.139 -24.6012)
)
;
    }
}


// ************************************************************************* //
