/*--------------------------------*- C++ -*----------------------------------*\
| =========                 |                                                 |
| \\      /  F ield         | OpenFOAM: The Open Source CFD Toolbox           |
|  \\    /   O peration     | Version:  2.4.0                                 |
|   \\  /    A nd           | Web:      www.OpenFOAM.org                      |
|    \\/     M anipulation  |                                                 |
\*---------------------------------------------------------------------------*/
FoamFile
{
    version     2.0;
    format      ascii;
    class       volVectorField;
    location    "0.05";
    object      Ua;
}
// * * * * * * * * * * * * * * * * * * * * * * * * * * * * * * * * * * * * * //

dimensions      [0 1 -1 0 0 0 0];

internalField   nonuniform List<vector> 
200
(
(-0.597904 -1.0095 -24.2067)
(-0.295226 -2.05775 -25.2883)
(-0.294982 -2.0586 -25.2892)
(-0.294982 -2.0586 -25.2892)
(-0.290592 -2.0571 -25.2854)
(15.4041 3.27592 -11.8073)
(34.2403 9.67645 4.36868)
(34.2453 9.67814 4.37294)
(34.2453 9.67815 4.37295)
(34.2453 9.67815 4.37295)
(-0.357046 -1.84371 -25.068)
(-0.295041 -2.0584 -25.2891)
(-0.294983 -2.0586 -25.2893)
(-0.294982 -2.05861 -25.2894)
(-0.289275 -2.05667 -25.2845)
(16.1538 3.53065 -11.1639)
(34.2406 9.6765 4.36836)
(34.2459 9.6783 4.37299)
(34.2457 9.67825 4.37298)
(34.2455 9.67819 4.37297)
(-0.315769 -1.9867 -25.2156)
(-0.295007 -2.05854 -25.2894)
(-0.294984 -2.05861 -25.2894)
(-0.294981 -2.05861 -25.2894)
(-0.287717 -2.05613 -25.2832)
(16.8743 3.7722 -10.5909)
(34.3057 9.69484 4.36803)
(34.2739 9.68622 4.37304)
(34.2454 9.67815 4.37302)
(34.2458 9.67826 4.37298)
(-0.304373 -2.01492 -25.2582)
(-0.295211 -2.04492 -25.2896)
(-0.295044 -2.04496 -25.2896)
(-0.294979 -2.04561 -25.2895)
(-0.285958 -2.04191 -25.2819)
(17.589 3.97492 -10.0901)
(34.4774 9.67161 4.36769)
(34.3689 9.64665 4.37309)
(34.2672 9.6232 4.37305)
(34.2461 9.62236 4.373)
(-0.498767 -1.35279 -24.5603)
(-0.295118 -2.05813 -25.2887)
(-0.294983 -2.0586 -25.2892)
(-0.294983 -2.0586 -25.2893)
(-0.294983 -2.0586 -25.2892)
(-0.294787 -2.05853 -25.289)
(1.27525 -1.52503 -23.9408)
(34.1678 9.65179 4.30606)
(34.2456 9.67821 4.37295)
(34.2454 9.67816 4.37295)
(-0.336406 -1.91514 -25.1412)
(-0.295016 -2.05849 -25.2892)
(-0.294984 -2.05861 -25.2894)
(-0.294984 -2.05861 -25.2894)
(-0.294984 -2.05861 -25.2894)
(-0.29473 -2.05852 -25.2891)
(1.41138 -1.47901 -23.8267)
(34.1875 9.65583 4.30048)
(34.2434 9.67594 4.37369)
(34.2425 9.67459 4.37413)
(-0.308836 -2.01066 -25.2399)
(-0.294997 -2.05857 -25.2894)
(-0.294984 -2.05861 -25.2894)
(-0.294984 -2.05861 -25.2894)
(-0.294984 -2.05861 -25.2894)
(-0.294661 -2.0585 -25.2892)
(1.54661 -1.43366 -23.7186)
(34.2732 9.67809 4.2949)
(34.2626 9.67911 4.37467)
(34.2383 9.66957 4.37576)
(-0.301138 -2.0245 -25.2684)
(-0.295051 -2.04494 -25.2895)
(-0.294983 -2.04561 -25.2895)
(-0.294984 -2.0467 -25.2894)
(-0.294984 -2.04563 -25.2895)
(-0.294581 -2.04442 -25.2892)
(1.6811 -1.379 -23.6163)
(34.4154 9.64444 4.28927)
(34.3035 9.62154 4.37591)
(34.2328 9.60196 4.3779)
(-0.39786 -1.70228 -24.9213)
(-0.295038 -2.05841 -25.289)
(-0.294983 -2.0586 -25.2893)
(-0.294983 -2.0586 -25.2893)
(-0.294983 -2.0586 -25.2893)
(-0.294983 -2.0586 -25.2892)
(-0.294974 -2.05859 -25.2892)
(-0.216752 -2.03204 -25.222)
(32.6583 9.1196 3.03956)
(34.2032 9.6302 4.38785)
(-0.315731 -1.98675 -25.2151)
(-0.294997 -2.05856 -25.2893)
(-0.294984 -2.05861 -25.2894)
(-0.294984 -2.05861 -25.2894)
(-0.294984 -2.05861 -25.2894)
(-0.294984 -2.05861 -25.2894)
(-0.294965 -2.05861 -25.2893)
(-0.114789 -2.18976 -24.8416)
(12.5361 -14.8418 11.8621)
(11.1722 -16.5686 12.6193)
(-0.301913 -2.03463 -25.2647)
(-0.294989 -2.05859 -25.2894)
(-0.294984 -2.05861 -25.2894)
(-0.294985 -2.05861 -25.2894)
(-0.294984 -2.05861 -25.2894)
(-0.294984 -2.05861 -25.2894)
(-0.29495 -2.05863 -25.2893)
(0.000476996 -2.37025 -24.4082)
(11.1315 -16.5166 12.4788)
(10.3745 -17.4765 12.9045)
(-0.298013 -2.03474 -25.279)
(-0.294985 -2.0456 -25.2895)
(-0.294984 -2.0467 -25.2894)
(-0.294985 -2.04778 -25.2894)
(-0.294984 -2.0467 -25.2894)
(-0.294984 -2.04562 -25.2894)
(-0.294929 -2.0446 -25.2892)
(0.128595 -2.55261 -23.9348)
(10.6677 -17.0411 12.7024)
(10.1147 -17.665 13.0039)
(-0.294984 -2.05859 -25.2892)
(-0.294983 -2.0586 -25.2893)
(-0.294983 -2.0586 -25.2893)
(-0.294984 -2.05861 -25.2893)
(-0.294983 -2.0586 -25.2893)
(-0.294983 -2.0586 -25.2893)
(-0.294983 -2.0586 -25.2892)
(-0.294982 -2.0586 -25.2892)
(-0.289995 -2.05691 -25.2849)
(18.5581 4.2815 -8.99806)
(-0.294984 -2.05861 -25.2894)
(-0.294984 -2.05861 -25.2894)
(-0.294984 -2.05861 -25.2894)
(-0.294985 -2.05861 -25.2894)
(-0.294984 -2.05861 -25.2894)
(-0.294984 -2.05861 -25.2894)
(-0.294984 -2.05861 -25.2894)
(-0.294981 -2.05861 -25.2893)
(-0.257333 -2.1106 -25.1582)
(9.88112 -17.4686 12.2131)
(-0.294985 -2.05861 -25.2894)
(-0.294984 -2.05861 -25.2894)
(-0.294985 -2.05861 -25.2894)
(-0.294985 -2.05861 -25.2894)
(-0.294985 -2.05861 -25.2894)
(-0.294985 -2.05861 -25.2894)
(-0.294985 -2.05861 -25.2894)
(-0.294978 -2.05862 -25.2894)
(-0.219579 -2.17289 -25.0128)
(9.71384 -17.9682 12.6662)
(-0.294984 -2.04562 -25.2895)
(-0.294984 -2.0467 -25.2894)
(-0.294985 -2.04778 -25.2894)
(-0.294985 -2.04887 -25.2894)
(-0.294985 -2.04779 -25.2894)
(-0.294985 -2.04671 -25.2894)
(-0.294985 -2.04563 -25.2894)
(-0.294972 -2.04457 -25.2894)
(-0.176718 -2.22677 -24.8506)
(9.68923 -18.024 12.8211)
(-0.294983 -2.05859 -25.1852)
(-0.294983 -2.0586 -25.1956)
(-0.294983 -2.0586 -25.2061)
(-0.294983 -2.0586 -25.2165)
(-0.294983 -2.0586 -25.2061)
(-0.294983 -2.0586 -25.1956)
(-0.294982 -2.0586 -25.1852)
(-0.294982 -2.0586 -25.1748)
(-0.293622 -2.05814 -25.1633)
(7.18155 0.41996 -18.6709)
(-0.294984 -2.05861 -25.175)
(-0.294984 -2.05861 -25.1854)
(-0.294984 -2.05861 -25.1958)
(-0.294984 -2.05861 -25.2062)
(-0.294984 -2.05861 -25.1958)
(-0.294984 -2.05861 -25.1854)
(-0.294984 -2.05861 -25.175)
(-0.294982 -2.05861 -25.1646)
(-0.276044 -2.08731 -25.0851)
(9.38073 -17.4395 11.3661)
(-0.294984 -2.05861 -25.1647)
(-0.294984 -2.05861 -25.1751)
(-0.294984 -2.05861 -25.1854)
(-0.294985 -2.05861 -25.1958)
(-0.294985 -2.05861 -25.1854)
(-0.294985 -2.05861 -25.175)
(-0.294984 -2.05861 -25.1647)
(-0.29498 -2.05862 -25.1543)
(-0.255877 -2.12089 -24.9981)
(9.47767 -17.9914 12.1662)
(-0.295046 -2.04497 -25.1545)
(-0.294984 -2.04562 -25.1647)
(-0.294984 -2.0467 -25.175)
(-0.294985 -2.04778 -25.1854)
(-0.294985 -2.0467 -25.175)
(-0.294985 -2.04563 -25.1647)
(-0.294985 -2.04455 -25.1543)
(-0.294977 -2.04348 -25.1439)
(-0.2331 -2.14159 -24.9031)
(9.5543 -18.0737 12.4392)
)
;

boundaryField
{
    inlet
    {
        type            calculated;
        value           nonuniform 0();
    }
    outlet
    {
        type            calculated;
        value           nonuniform 0();
    }
    bottom
    {
        type            calculated;
        value           uniform (0 0 0);
    }
    top
    {
        type            symmetryPlane;
    }
    side1
    {
        type            symmetryPlane;
    }
    side2
    {
        type            symmetryPlane;
    }
    procBoundary26to18
    {
        type            processor;
        value           nonuniform List<vector> 
50
(
(-10.6587 33.8365 11.7829)
(-4.33014 12.0898 -9.38063)
(-0.269065 -1.837 -22.7191)
(-0.261847 -1.82733 -22.4484)
(-0.259894 -1.84867 -22.7278)
(14.7991 3.24259 -10.1171)
(31.095 8.78755 3.96697)
(30.785 8.70023 3.93099)
(30.4002 8.59146 3.88185)
(29.9191 8.4555 3.82042)
(-10.6556 33.826 11.7726)
(-3.37833 8.83891 -12.3939)
(-0.264009 -1.81982 -22.4405)
(-0.2577 -1.7984 -22.0929)
(-0.261837 -1.82728 -22.4477)
(-0.264911 -1.85029 -22.7317)
(1.29579 -1.34059 -21.642)
(31.2221 8.81921 3.90154)
(30.8872 8.72907 3.92944)
(30.3958 8.59023 3.88181)
(-10.6457 33.7919 11.7397)
(-2.09272 4.45309 -16.4198)
(-0.258582 -1.79531 -22.0895)
(-0.252371 -1.76122 -21.6361)
(-0.257692 -1.79836 -22.0924)
(-0.261835 -1.82727 -22.4475)
(-0.26514 -1.8504 -22.7317)
(-0.189761 -1.84294 -22.8988)
(29.8464 8.33268 2.62504)
(30.8297 8.69112 3.93926)
(-0.325074 -1.61034 -22.2392)
(-0.257724 -1.79823 -22.0921)
(-0.252365 -1.76118 -21.6356)
(-0.245268 -1.71165 -21.0271)
(-0.252365 -1.76118 -21.6356)
(-0.257691 -1.79835 -22.0922)
(-0.261833 -1.82726 -22.4474)
(-0.265147 -1.85039 -22.7316)
(-0.263179 -1.86836 -22.9564)
(12.66 1.20505 -4.86893)
(-0.29685 -1.74165 -22.5236)
(-0.261862 -1.82725 -22.3546)
(-0.2577 -1.79841 -22.01)
(-0.25238 -1.76129 -21.5642)
(-0.2577 -1.79841 -22.01)
(-0.261841 -1.82731 -22.3546)
(-0.265154 -1.85043 -22.6283)
(-0.267865 -1.86935 -22.8504)
(-0.269096 -1.88547 -23.0288)
(3.68114 -2.39228 -9.73329)
)
;
    }
    procBoundary26to25
    {
        type            processor;
        value           nonuniform List<vector> 
20
(
(-1.31351 1.49175 -21.4712)
(-0.519249 -1.27868 -24.4678)
(-0.373493 -1.80403 -25.0136)
(-0.333355 -1.9593 -25.1716)
(-0.99192 0.374692 -22.6356)
(-0.444486 -1.53753 -24.7288)
(-0.347055 -1.8892 -25.1011)
(-0.320461 -1.98857 -25.2089)
(-0.652805 -0.807316 -23.907)
(-0.369621 -1.79792 -25.0034)
(-0.3209 -1.97475 -25.1935)
(-0.307913 -2.01897 -25.2486)
(-0.29499 -2.05858 -25.2892)
(-0.294989 -2.05863 -25.2895)
(-0.295236 -2.06036 -25.2897)
(-0.295898 -2.05087 -25.2899)
(-0.294991 -2.05861 -25.175)
(-0.295236 -2.06035 -25.1649)
(-0.295897 -2.06497 -25.1548)
(-0.296927 -2.05691 -25.1446)
)
;
    }
    procBoundary26to27
    {
        type            processor;
        value           nonuniform List<vector> 
20
(
(34.2454 9.67815 4.37296)
(34.2455 9.67818 4.37297)
(34.2455 9.67819 4.37298)
(34.2455 9.62728 4.37298)
(34.2453 9.67814 4.37295)
(34.2389 9.67069 4.37532)
(34.2294 9.6599 4.37872)
(34.2166 9.58952 4.38333)
(34.1592 9.58023 4.40371)
(10.2079 -17.6656 12.9639)
(9.86836 -18.0518 13.0852)
(9.75281 -18.0303 13.1266)
(33.9281 9.32092 4.48102)
(9.75286 -18.1831 13.1265)
(9.63648 -18.3156 13.1681)
(9.5993 -18.1967 13.1821)
(33.4849 8.83123 4.60881)
(9.63634 -18.3157 13.1247)
(9.57973 -18.3861 13.1421)
(9.56928 -18.2456 13.1455)
)
;
    }
}


// ************************************************************************* //
