/*--------------------------------*- C++ -*----------------------------------*\
| =========                 |                                                 |
| \\      /  F ield         | OpenFOAM: The Open Source CFD Toolbox           |
|  \\    /   O peration     | Version:  2.4.0                                 |
|   \\  /    A nd           | Web:      www.OpenFOAM.org                      |
|    \\/     M anipulation  |                                                 |
\*---------------------------------------------------------------------------*/
FoamFile
{
    version     2.0;
    format      ascii;
    class       volVectorField;
    location    "0.05";
    object      Uc;
}
// * * * * * * * * * * * * * * * * * * * * * * * * * * * * * * * * * * * * * //

dimensions      [0 1 -1 0 0 0 0];

internalField   nonuniform List<vector> 
200
(
(-4.59877e-17 -7.76456e-17 -1.86185e-15)
(-1.42531e-15 -9.93449e-15 -1.22088e-13)
(-6.75267e-14 -4.71249e-13 -5.78915e-12)
(-1.77961e-12 -1.24194e-11 -1.52569e-10)
(-6.65301e-14 -4.70968e-13 -5.78903e-12)
(1.36331e-13 2.8993e-14 -1.04499e-13)
(1.78054e-11 5.03187e-12 2.27176e-12)
(2.10964e-09 5.9621e-10 2.6939e-10)
(2.22187e-07 6.27927e-08 2.83721e-08)
(1.97447e-05 5.58009e-06 2.5213e-06)
(-3.39457e-19 -1.75288e-18 -2.38331e-17)
(-1.65259e-17 -1.15296e-16 -1.4165e-15)
(-7.12277e-16 -4.97078e-15 -6.10646e-14)
(-1.68972e-14 -1.17921e-13 -1.44862e-12)
(-6.9861e-16 -4.96692e-15 -6.10629e-14)
(1.72742e-15 3.77554e-16 -1.19382e-15)
(2.0663e-13 5.83943e-14 2.63615e-14)
(2.2257e-11 6.29009e-12 2.84208e-12)
(2.10973e-09 5.96236e-10 2.69401e-10)
(1.66655e-07 4.70987e-08 2.1281e-08)
(-2.05001e-21 -1.28979e-20 -1.63703e-19)
(-1.04576e-19 -7.2972e-19 -8.9647e-18)
(-4.13244e-18 -2.88391e-17 -3.5428e-16)
(-8.91365e-17 -6.22063e-16 -7.64187e-15)
(-4.03151e-18 -2.88106e-17 -3.5427e-16)
(1.18549e-17 2.65013e-18 -7.44053e-18)
(1.30802e-15 3.69648e-16 1.66546e-16)
(1.29152e-13 3.65e-14 1.64787e-14)
(1.11296e-11 3.14535e-12 1.42121e-12)
(7.91264e-10 2.23621e-10 1.0104e-10)
(-9.73851e-24 -6.4468e-23 -8.08144e-22)
(-4.79747e-22 -3.3232e-21 -4.10981e-20)
(-1.74968e-20 -1.21271e-19 -1.49973e-18)
(-3.45931e-19 -2.39895e-18 -2.96577e-17)
(-1.69623e-20 -1.21121e-19 -1.49966e-18)
(5.86231e-20 1.32481e-20 -3.36295e-20)
(6.00175e-18 1.68361e-18 7.60318e-19)
(5.46928e-16 1.53512e-16 6.95911e-17)
(4.31925e-14 1.21297e-14 5.51207e-15)
(2.79098e-12 7.842e-13 3.56389e-13)
(-2.51176e-14 -6.81254e-14 -1.23684e-12)
(-1.0363e-12 -7.22704e-12 -8.88004e-11)
(-5.45756e-11 -3.80867e-10 -4.67883e-09)
(-1.61802e-09 -1.12917e-08 -1.38715e-07)
(-5.45755e-11 -3.80867e-10 -4.67883e-09)
(-1.03513e-12 -7.2284e-12 -8.8801e-11)
(6.59584e-14 -7.88773e-14 -1.23826e-12)
(8.67484e-12 2.45048e-12 1.09326e-12)
(8.22461e-10 2.32438e-10 1.05023e-10)
(6.49818e-08 1.83646e-08 8.29782e-09)
(-1.93439e-16 -1.10124e-15 -1.44566e-14)
(-1.09252e-14 -7.62312e-14 -9.36524e-13)
(-5.18043e-13 -3.61528e-12 -4.44126e-11)
(-1.36542e-11 -9.52887e-11 -1.17059e-09)
(-5.18043e-13 -3.61528e-12 -4.44126e-11)
(-1.09146e-14 -7.62325e-14 -9.36525e-13)
(8.50251e-16 -8.90996e-16 -1.43539e-14)
(1.00653e-13 2.84281e-14 1.26612e-14)
(8.67564e-12 2.45142e-12 1.10808e-12)
(6.16935e-10 1.74304e-10 7.88071e-11)
(-1.12074e-18 -7.29651e-18 -9.15934e-17)
(-6.33696e-17 -4.42209e-16 -5.43252e-15)
(-2.732e-15 -1.90658e-14 -2.34218e-13)
(-6.48176e-14 -4.52343e-13 -5.5569e-12)
(-2.73199e-15 -1.90658e-14 -2.34218e-13)
(-6.3298e-17 -4.42199e-16 -5.43252e-15)
(5.91847e-18 -5.48624e-18 -9.0765e-17)
(6.37047e-16 1.7989e-16 7.98307e-17)
(5.0335e-14 1.42195e-14 6.42681e-15)
(3.25414e-12 9.19032e-13 4.15888e-13)
(-5.00528e-21 -3.36497e-20 -4.19992e-19)
(-2.68253e-19 -1.85921e-18 -2.29927e-17)
(-1.05993e-17 -7.35029e-17 -9.087e-16)
(-2.28592e-16 -1.58605e-15 -1.95976e-14)
(-1.05993e-17 -7.35029e-17 -9.08694e-16)
(-2.67883e-19 -1.85913e-18 -2.29972e-17)
(2.96172e-20 -2.42948e-20 -4.16065e-19)
(2.9226e-18 8.19018e-19 3.6425e-19)
(2.13125e-16 5.97778e-17 2.71872e-17)
(1.26276e-14 3.54192e-15 1.6149e-15)
(-9.63118e-12 -4.12078e-11 -6.0328e-10)
(-5.58814e-10 -3.8987e-09 -4.78984e-08)
(-3.3116e-08 -2.31107e-07 -2.83908e-06)
(-1.12192e-06 -7.82959e-06 -9.6184e-05)
(-3.3116e-08 -2.31107e-07 -2.83908e-06)
(-5.58706e-10 -3.89905e-09 -4.78986e-08)
(-7.06978e-12 -4.93393e-11 -6.06118e-10)
(-5.49081e-14 -5.14761e-13 -6.38928e-12)
(1.69304e-12 4.72771e-13 1.57574e-13)
(1.20472e-10 3.39198e-11 1.5455e-11)
(-7.99637e-14 -5.03175e-13 -6.38612e-12)
(-5.3033e-12 -3.70077e-11 -4.54637e-10)
(-2.79415e-10 -1.94996e-09 -2.39546e-08)
(-8.28401e-09 -5.78117e-08 -7.10198e-07)
(-2.79415e-10 -1.94996e-09 -2.39546e-08)
(-5.30305e-12 -3.70085e-11 -4.54638e-10)
(-7.45552e-14 -5.20335e-13 -6.39212e-12)
(-3.40709e-16 -6.49948e-15 -7.37329e-14)
(5.77392e-14 -6.83588e-14 5.46346e-14)
(6.19702e-12 -9.1903e-12 6.99966e-12)
(-4.42937e-16 -2.98501e-15 -3.70659e-14)
(-2.79653e-14 -1.95157e-13 -2.39746e-12)
(-1.32617e-12 -9.25496e-12 -1.13694e-10)
(-3.49543e-11 -2.43936e-10 -2.99668e-09)
(-1.32617e-12 -9.25496e-12 -1.13694e-10)
(-2.79648e-14 -1.95158e-13 -2.39746e-12)
(-4.32438e-16 -3.01824e-15 -3.70776e-14)
(9.06231e-21 -4.50316e-17 -4.63724e-16)
(6.06438e-16 -8.9981e-16 6.79834e-16)
(6.45213e-14 -1.0869e-13 8.02558e-14)
(-1.84969e-18 -1.26291e-17 -1.569e-16)
(-1.08488e-16 -7.52322e-16 -9.30083e-15)
(-4.67609e-15 -3.24444e-14 -4.00888e-13)
(-1.10913e-13 -7.69959e-13 -9.50873e-12)
(-4.67609e-15 -3.24444e-14 -4.00888e-13)
(-1.08487e-16 -7.52325e-16 -9.30077e-15)
(-1.83042e-18 -1.26894e-17 -1.56953e-16)
(1.13499e-20 -2.25296e-19 -2.11251e-18)
(3.89155e-18 -6.21654e-18 4.6338e-18)
(3.94491e-16 -6.88965e-16 5.07176e-16)
(-1.90682e-09 -1.3307e-08 -1.63473e-07)
(-1.69519e-07 -1.18302e-06 -1.45331e-05)
(-1.14828e-05 -8.01354e-05 -0.000984438)
(-0.000453812 -0.00316702 -0.0389059)
(-1.14828e-05 -8.01354e-05 -0.000984438)
(-1.69519e-07 -1.18302e-06 -1.45331e-05)
(-1.90681e-09 -1.33071e-08 -1.63473e-07)
(-1.80975e-11 -1.26297e-10 -1.55152e-09)
(-1.50121e-13 -1.0648e-12 -1.30892e-11)
(1.64428e-13 3.79349e-14 -7.97246e-14)
(-1.80983e-11 -1.26303e-10 -1.55159e-09)
(-1.43023e-09 -9.98119e-09 -1.22616e-07)
(-8.47745e-08 -5.91617e-07 -7.26782e-06)
(-2.87206e-06 -2.00433e-05 -0.000246225)
(-8.47745e-08 -5.91617e-07 -7.26782e-06)
(-1.43023e-09 -9.98119e-09 -1.22616e-07)
(-1.80983e-11 -1.26303e-10 -1.55159e-09)
(-1.90851e-13 -1.33191e-12 -1.63621e-11)
(-1.5504e-15 -1.27161e-14 -1.51575e-13)
(2.42301e-14 -4.28358e-14 2.99486e-14)
(-9.54356e-14 -6.66017e-13 -8.18181e-12)
(-6.78784e-12 -4.73704e-11 -5.81931e-10)
(-3.57648e-10 -2.49593e-09 -3.06617e-08)
(-1.06035e-08 -7.39986e-08 -9.09049e-07)
(-3.57648e-10 -2.49593e-09 -3.06616e-08)
(-6.78784e-12 -4.73704e-11 -5.8193e-10)
(-9.54355e-14 -6.66017e-13 -8.18181e-12)
(-1.107e-15 -7.72564e-15 -9.49065e-14)
(-8.40291e-18 -8.31527e-17 -9.57198e-16)
(2.94575e-16 -5.44892e-16 3.84107e-16)
(-3.70222e-16 -2.56738e-15 -3.17398e-14)
(-2.39325e-14 -1.66052e-13 -2.05177e-12)
(-1.13465e-12 -7.87675e-12 -9.72751e-11)
(-2.98985e-11 -2.07665e-10 -2.56323e-09)
(-1.13465e-12 -7.87675e-12 -9.72749e-11)
(-2.39325e-14 -1.66052e-13 -2.05176e-12)
(-3.70222e-16 -2.56738e-15 -3.17396e-14)
(-4.68584e-18 -3.24794e-17 -4.01739e-16)
(-3.1152e-20 -3.92538e-19 -4.38071e-18)
(2.00134e-18 -3.72291e-18 2.64824e-18)
(-7.08456e-12 -4.94409e-11 -6.04869e-10)
(-5.59742e-10 -3.90628e-09 -4.78098e-08)
(-3.31706e-08 -2.31488e-07 -2.8344e-06)
(-1.12354e-06 -7.84088e-06 -9.60453e-05)
(-3.31706e-08 -2.31488e-07 -2.8344e-06)
(-5.59742e-10 -3.90628e-09 -4.78097e-08)
(-7.08454e-12 -4.9441e-11 -6.04869e-10)
(-7.4725e-14 -5.21484e-13 -6.3773e-12)
(-6.9043e-16 -4.83956e-15 -5.91696e-14)
(1.82377e-16 1.06649e-17 -4.7415e-16)
(-7.47288e-14 -5.2151e-13 -6.37762e-12)
(-5.31398e-12 -3.70847e-11 -4.53701e-10)
(-2.79933e-10 -1.95357e-09 -2.39102e-08)
(-8.29766e-09 -5.7907e-08 -7.09028e-07)
(-2.79933e-10 -1.95357e-09 -2.39102e-08)
(-5.31398e-12 -3.70847e-11 -4.53701e-10)
(-7.47288e-14 -5.21511e-13 -6.37762e-12)
(-8.67007e-16 -6.05064e-15 -7.39635e-14)
(-8.23033e-18 -6.22339e-17 -7.4792e-16)
(5.75796e-17 -1.07045e-16 6.97658e-17)
(-4.33555e-16 -3.02565e-15 -3.69861e-14)
(-2.80282e-14 -1.956e-13 -2.39203e-12)
(-1.3289e-12 -9.27403e-12 -1.1346e-10)
(-3.50191e-11 -2.44388e-10 -2.99112e-09)
(-1.3289e-12 -9.27403e-12 -1.1346e-10)
(-2.80282e-14 -1.956e-13 -2.39202e-12)
(-4.33555e-16 -3.02565e-15 -3.69859e-14)
(-5.48727e-18 -3.82947e-17 -4.67924e-16)
(-5.24126e-20 -4.34433e-19 -5.12049e-18)
(7.7365e-19 -1.46862e-18 9.93115e-19)
(-1.83565e-18 -1.2723e-17 -1.565e-16)
(-1.08755e-16 -7.54184e-16 -9.27777e-15)
(-4.68669e-15 -3.25179e-14 -3.9998e-13)
(-1.11142e-13 -7.71545e-13 -9.48912e-12)
(-4.68669e-15 -3.25179e-14 -3.99979e-13)
(-1.08755e-16 -7.54184e-16 -9.27774e-15)
(-1.83565e-18 -1.2723e-17 -1.56532e-16)
(-2.51749e-20 -1.74401e-19 -2.14591e-18)
(-2.36494e-22 -2.17278e-21 -2.52657e-20)
(5.7014e-21 -1.07852e-20 7.4229e-21)
)
;

boundaryField
{
    inlet
    {
        type            calculated;
        value           nonuniform 0();
    }
    outlet
    {
        type            calculated;
        value           nonuniform 0();
    }
    bottom
    {
        type            calculated;
        value           uniform (0 0 0);
    }
    top
    {
        type            symmetryPlane;
    }
    side1
    {
        type            symmetryPlane;
    }
    side2
    {
        type            symmetryPlane;
    }
    procBoundary26to18
    {
        type            processor;
        value           nonuniform List<vector> 
50
(
(-8.25824e-15 2.62163e-14 9.12927e-15)
(-3.97894e-16 1.11092e-15 -8.61981e-16)
(-6.49941e-16 -4.43738e-15 -5.48793e-14)
(-1.49992e-14 -1.04674e-13 -1.2859e-12)
(-6.27651e-16 -4.46457e-15 -5.48882e-14)
(1.58201e-15 3.4663e-16 -1.08151e-15)
(1.87639e-13 5.30272e-14 2.39381e-14)
(2.00068e-11 5.65416e-12 2.5547e-12)
(1.87274e-09 5.29259e-10 2.39133e-10)
(1.45594e-07 4.11467e-08 1.85912e-08)
(-4.00202e-12 1.27043e-11 4.42155e-12)
(-1.78507e-13 4.67037e-13 -6.54879e-13)
(-4.63745e-13 -3.19661e-12 -3.94178e-11)
(-1.19284e-11 -8.32443e-11 -1.02264e-09)
(-4.59833e-13 -3.20903e-12 -3.94221e-11)
(-9.81057e-15 -6.85226e-14 -8.41833e-13)
(7.79887e-16 -8.06846e-16 -1.30255e-14)
(9.13985e-14 2.58171e-14 1.14213e-14)
(7.79818e-12 2.20385e-12 9.92076e-13)
(5.476e-10 1.54758e-10 6.99333e-11)
(-1.07914e-09 3.42544e-09 1.19003e-09)
(-4.56502e-11 9.71392e-11 -3.58178e-10)
(-2.44956e-10 -1.70071e-09 -2.09255e-08)
(-7.08733e-09 -4.94603e-08 -6.07606e-07)
(-2.44092e-10 -1.70345e-09 -2.09264e-08)
(-4.70712e-12 -3.28497e-11 -4.03549e-10)
(-6.70164e-14 -4.67705e-13 -5.74563e-12)
(-5.57717e-16 -5.41648e-15 -6.73008e-14)
(1.78347e-14 4.9792e-15 1.56859e-15)
(1.14202e-12 3.21945e-13 1.45922e-13)
(-2.00663e-11 -9.94038e-11 -1.37279e-09)
(-1.24959e-09 -8.7188e-09 -1.07115e-07)
(-7.25264e-08 -5.06141e-07 -6.21779e-06)
(-2.388e-06 -1.66652e-05 -0.000204727)
(-7.25264e-08 -5.06141e-07 -6.21779e-06)
(-1.24942e-09 -8.71934e-09 -1.07115e-07)
(-1.60645e-11 -1.12109e-10 -1.37723e-09)
(-1.71549e-13 -1.1972e-12 -1.47073e-11)
(-1.58057e-15 -1.12208e-14 -1.37869e-13)
(1.64603e-15 1.56678e-16 -6.33046e-16)
(-7.54303e-14 -4.42558e-13 -5.72329e-12)
(-4.71733e-12 -3.2917e-11 -4.02707e-10)
(-2.44552e-10 -1.70666e-09 -2.0887e-08)
(-7.09925e-09 -4.95436e-08 -6.06583e-07)
(-2.44552e-10 -1.70666e-09 -2.0887e-08)
(-4.71694e-12 -3.29182e-11 -4.02708e-10)
(-6.71723e-14 -4.68776e-13 -5.7325e-12)
(-7.8731e-16 -5.49441e-15 -6.71619e-14)
(-8.00987e-18 -5.61226e-17 -6.85472e-16)
(1.68451e-18 -1.09473e-18 -4.45402e-18)
)
;
    }
    procBoundary26to25
    {
        type            processor;
        value           nonuniform List<vector> 
20
(
(-1.38805e-18 1.5764e-18 -2.26896e-17)
(-6.88389e-21 -1.69519e-20 -3.24379e-19)
(-3.57922e-23 -1.72882e-22 -2.39708e-21)
(-1.66593e-25 -9.7915e-25 -1.25794e-23)
(-6.13234e-16 2.31645e-16 -1.3994e-14)
(-3.27203e-18 -1.13184e-17 -1.82038e-16)
(-1.72653e-20 -9.39842e-20 -1.24873e-18)
(-7.79444e-23 -4.83672e-22 -6.13146e-21)
(-1.71597e-13 -2.12212e-13 -6.28423e-12)
(-1.09236e-15 -5.31348e-15 -7.38937e-14)
(-5.95662e-18 -3.66558e-17 -4.67647e-16)
(-2.60575e-20 -1.70858e-19 -2.13669e-18)
(-1.8098e-11 -1.26296e-10 -1.55152e-09)
(-1.90854e-13 -1.3319e-12 -1.63619e-11)
(-1.10703e-15 -7.72559e-15 -9.48272e-14)
(-4.68605e-18 -3.2479e-17 -4.00509e-16)
(-7.47261e-14 -5.21481e-13 -6.37724e-12)
(-8.67015e-16 -6.05061e-15 -7.39015e-14)
(-5.48736e-18 -3.82945e-17 -4.66491e-16)
(-2.51739e-20 -1.74388e-19 -2.1318e-18)
)
;
    }
    procBoundary26to27
    {
        type            processor;
        value           nonuniform List<vector> 
20
(
(0.00133692 0.000377829 0.000170717)
(9.87411e-06 2.79054e-06 1.26087e-06)
(4.16742e-08 1.17776e-08 5.32159e-09)
(1.32267e-10 3.71836e-11 1.68898e-11)
(3.85085e-06 1.0883e-06 4.91734e-07)
(3.25005e-08 9.17969e-09 4.15318e-09)
(1.54303e-10 4.35461e-11 1.97389e-11)
(5.44267e-13 1.52536e-13 6.97236e-14)
(6.3498e-09 1.78085e-09 8.18597e-10)
(6.44219e-10 -1.11487e-09 8.1815e-10)
(6.47631e-12 -1.18468e-11 8.58746e-12)
(3.7106e-14 -6.85989e-14 4.99419e-14)
(7.86724e-12 2.16133e-12 1.03906e-12)
(2.48857e-12 -4.63966e-12 3.34939e-12)
(2.83886e-14 -5.39568e-14 3.87926e-14)
(1.79437e-16 -3.40146e-16 2.46411e-16)
(8.15027e-15 2.14953e-15 1.12179e-15)
(5.55414e-15 -1.05567e-14 7.56478e-15)
(6.97027e-17 -1.33778e-16 9.56226e-17)
(4.78867e-19 -9.13047e-19 6.57829e-19)
)
;
    }
}


// ************************************************************************* //
