/*--------------------------------*- C++ -*----------------------------------*\
| =========                 |                                                 |
| \\      /  F ield         | OpenFOAM: The Open Source CFD Toolbox           |
|  \\    /   O peration     | Version:  2.4.0                                 |
|   \\  /    A nd           | Web:      www.OpenFOAM.org                      |
|    \\/     M anipulation  |                                                 |
\*---------------------------------------------------------------------------*/
FoamFile
{
    version     2.0;
    format      ascii;
    class       volVectorField;
    location    "0.05";
    object      A_Source;
}
// * * * * * * * * * * * * * * * * * * * * * * * * * * * * * * * * * * * * * //

dimensions      [1 -2 -2 0 0 0 0];

internalField   nonuniform List<vector> 
200
(
(-3.22142e-07 -1.62164e-07 -2.99161e-07)
(-7.63923e-06 -3.84824e-06 -7.09426e-06)
(-3.22143e-07 -1.62165e-07 -2.99162e-07)
(-7.47555e-09 -3.7605e-09 -6.94226e-09)
(-1.26156e-10 -6.34167e-11 -1.17156e-10)
(-1.72858e-12 -8.68322e-13 -1.60526e-12)
(-2.03865e-14 -1.02336e-14 -1.89321e-14)
(-2.14478e-16 -1.07589e-16 -1.99177e-16)
(-2.06144e-18 -1.03335e-18 -1.91437e-18)
(-1.84087e-20 -9.22144e-21 -1.70953e-20)
(-6.08413e-05 -3.0865e-05 -5.6501e-05)
(-0.00160339 -0.000813404 -0.00148901)
(-6.08414e-05 -3.0865e-05 -5.65011e-05)
(-1.28314e-06 -6.50939e-07 -1.1916e-06)
(-1.98472e-08 -1.00685e-08 -1.84313e-08)
(-2.51131e-10 -1.27399e-10 -2.33216e-10)
(-2.75314e-12 -1.39667e-12 -2.55673e-12)
(-2.70784e-14 -1.37369e-14 -2.51467e-14)
(-2.4452e-16 -1.24045e-16 -2.27076e-16)
(-2.06034e-18 -1.04521e-18 -1.91335e-18)
(-0.00640874 -0.00325117 -0.00595156)
(-0.189977 -0.0963757 -0.176424)
(-0.00640875 -0.00325118 -0.00595156)
(-0.000121651 -6.17137e-05 -0.000112972)
(-1.71064e-06 -8.67813e-07 -1.58861e-06)
(-1.9846e-08 -1.00679e-08 -1.84302e-08)
(-2.00943e-10 -1.01939e-10 -1.86608e-10)
(-1.83679e-12 -9.31807e-13 -1.70576e-12)
(-1.54984e-14 -7.86237e-15 -1.43928e-14)
(-1.22599e-16 -6.21947e-17 -1.13853e-16)
(-6.08412e-05 -3.08649e-05 -5.65009e-05)
(-0.00160339 -0.000813404 -0.00148901)
(-6.08414e-05 -3.0865e-05 -5.65011e-05)
(-1.28314e-06 -6.50939e-07 -1.1916e-06)
(-1.9847e-08 -1.00684e-08 -1.84312e-08)
(-2.5118e-10 -1.27424e-10 -2.33261e-10)
(-2.7551e-12 -1.39767e-12 -2.55856e-12)
(-2.71206e-14 -1.37583e-14 -2.51858e-14)
(-2.45178e-16 -1.24379e-16 -2.27687e-16)
(-2.06871e-18 -1.04946e-18 -1.92113e-18)
(-0.000156084 -7.86272e-05 -0.00014495)
(-0.00411252 -0.00207313 -0.00381915)
(-0.000156085 -7.86273e-05 -0.00014495)
(-3.29249e-06 -1.65742e-06 -3.05761e-06)
(-5.09379e-08 -2.56238e-08 -4.73041e-08)
(-6.44665e-10 -3.24064e-10 -5.98675e-10)
(-7.06889e-12 -3.55094e-12 -6.5646e-12)
(-6.95404e-14 -3.49079e-14 -6.45794e-14)
(-6.28084e-16 -3.15065e-16 -5.83276e-16)
(-5.29337e-18 -2.65345e-18 -4.91573e-18)
(-0.0327707 -0.0166247 -0.0304329)
(-0.971575 -0.492883 -0.902265)
(-0.0327707 -0.0166247 -0.0304329)
(-0.000621961 -0.000315523 -0.000577592)
(-8.74466e-06 -4.43619e-06 -8.12084e-06)
(-1.01436e-07 -5.14587e-08 -9.41997e-08)
(-1.0269e-09 -5.20947e-10 -9.5364e-10)
(-9.38528e-12 -4.76117e-12 -8.71575e-12)
(-7.91788e-14 -4.01675e-14 -7.35302e-14)
(-6.26242e-16 -3.17693e-16 -5.81566e-16)
(-3.88397 -1.97035 -3.6069)
(-131.584 -66.7529 -122.197)
(-3.88397 -1.97035 -3.6069)
(-0.0655272 -0.0332422 -0.0608527)
(-0.000829196 -0.000420654 -0.000770043)
(-8.74427e-06 -4.43599e-06 -8.12047e-06)
(-8.11482e-08 -4.11667e-08 -7.53593e-08)
(-6.84613e-10 -3.47306e-10 -6.35775e-10)
(-5.36328e-12 -2.72081e-12 -4.98068e-12)
(-3.95922e-14 -2.00852e-14 -3.67678e-14)
(-0.0327707 -0.0166247 -0.0304329)
(-0.971575 -0.492883 -0.902265)
(-0.0327707 -0.0166247 -0.0304329)
(-0.00062196 -0.000315522 -0.000577591)
(-8.74465e-06 -4.43619e-06 -8.12083e-06)
(-1.01436e-07 -5.14586e-08 -9.41996e-08)
(-1.02689e-09 -5.20947e-10 -9.53638e-10)
(-9.38526e-12 -4.76117e-12 -8.71574e-12)
(-7.91785e-14 -4.01675e-14 -7.35301e-14)
(-6.26241e-16 -3.17694e-16 -5.81566e-16)
(-0.0420788 -0.0212121 -0.039077)
(-1.24711 -0.629111 -1.15814)
(-0.0420789 -0.0212121 -0.0390771)
(-0.0007989 -0.000402445 -0.000741908)
(-1.12363e-05 -5.65629e-06 -1.04347e-05)
(-1.30384e-07 -6.55883e-08 -1.21082e-07)
(-1.32041e-09 -6.63753e-10 -1.22622e-09)
(-1.2072e-11 -6.06418e-12 -1.12108e-11)
(-1.01881e-13 -5.11421e-14 -9.46127e-14)
(-8.06076e-16 -4.04349e-16 -7.48571e-16)
(-9.94263 -5.04392 -9.23334)
(-336.848 -170.884 -312.818)
(-9.94263 -5.04392 -9.23334)
(-0.167743 -0.0850963 -0.155776)
(-0.00212263 -0.00107682 -0.00197121)
(-2.23839e-05 -1.13554e-05 -2.07871e-05)
(-2.07724e-07 -1.05379e-07 -1.92906e-07)
(-1.75246e-09 -8.89028e-10 -1.62744e-09)
(-1.37286e-11 -6.96458e-12 -1.27493e-11)
(-1.01345e-13 -5.14124e-14 -9.41149e-14)
(-1346.8 -683.236 -1250.72)
(-53306.7 -27042.6 -49503.9)
(-1346.8 -683.236 -1250.72)
(-19.8818 -10.0861 -18.4635)
(-0.223638 -0.113452 -0.207684)
(-0.00212255 -0.00107678 -0.00197113)
(-1.7907e-05 -9.08428e-06 -1.66296e-05)
(-1.38485e-07 -7.02539e-08 -1.28606e-07)
(-1.00145e-09 -5.08036e-10 -9.30005e-10)
(-6.86473e-12 -3.4825e-12 -6.37502e-12)
(-9.94263 -5.04392 -9.23334)
(-336.848 -170.884 -312.818)
(-9.94263 -5.04392 -9.23334)
(-0.167742 -0.0850963 -0.155776)
(-0.00212263 -0.00107682 -0.00197121)
(-2.23839e-05 -1.13554e-05 -2.07871e-05)
(-2.07723e-07 -1.05379e-07 -1.92905e-07)
(-1.75245e-09 -8.89025e-10 -1.62744e-09)
(-1.37286e-11 -6.96454e-12 -1.27492e-11)
(-1.01344e-13 -5.14122e-14 -9.41145e-14)
(-0.000156084 -7.8627e-05 -0.000144949)
(-0.00411253 -0.00207313 -0.00381915)
(-0.000156085 -7.86274e-05 -0.00014495)
(-3.29249e-06 -1.65742e-06 -3.05761e-06)
(-5.09375e-08 -2.56236e-08 -4.73037e-08)
(-6.44791e-10 -3.24128e-10 -5.98793e-10)
(-7.07396e-12 -3.55348e-12 -6.56931e-12)
(-6.96489e-14 -3.49624e-14 -6.46803e-14)
(-6.29777e-16 -3.15913e-16 -5.84849e-16)
(-5.31491e-18 -2.66423e-18 -4.93575e-18)
(-0.0327707 -0.0166247 -0.0304329)
(-0.971575 -0.492883 -0.902265)
(-0.0327707 -0.0166247 -0.0304329)
(-0.000621961 -0.000315522 -0.000577591)
(-8.74465e-06 -4.43619e-06 -8.12083e-06)
(-1.01436e-07 -5.14587e-08 -9.41996e-08)
(-1.0269e-09 -5.20947e-10 -9.53639e-10)
(-9.38527e-12 -4.76117e-12 -8.71575e-12)
(-7.91787e-14 -4.01676e-14 -7.35303e-14)
(-6.26242e-16 -3.17694e-16 -5.81568e-16)
(-3.88397 -1.97035 -3.6069)
(-131.584 -66.7529 -122.197)
(-3.88397 -1.97035 -3.6069)
(-0.0655272 -0.0332421 -0.0608526)
(-0.000829195 -0.000420653 -0.000770042)
(-8.74425e-06 -4.43598e-06 -8.12045e-06)
(-8.11479e-08 -4.11666e-08 -7.5359e-08)
(-6.84611e-10 -3.47305e-10 -6.35772e-10)
(-5.36325e-12 -2.72079e-12 -4.98065e-12)
(-3.95921e-14 -2.00852e-14 -3.67677e-14)
(-0.0343448 -0.0156587 -0.0302792)
(-0.971635 -0.492846 -0.90226)
(-0.032772 -0.0166239 -0.0304328)
(-0.000621979 -0.00031551 -0.000577589)
(-8.74488e-06 -4.43603e-06 -8.12079e-06)
(-1.01438e-07 -5.14569e-08 -9.41991e-08)
(-1.02692e-09 -5.20929e-10 -9.53633e-10)
(-9.38546e-12 -4.76101e-12 -8.71568e-12)
(-7.91802e-14 -4.01661e-14 -7.35297e-14)
(-6.26256e-16 -3.17683e-16 -5.81564e-16)
(-3.22141e-07 -1.62163e-07 -2.98257e-07)
(-7.63924e-06 -3.84825e-06 -7.07481e-06)
(-3.22143e-07 -1.62165e-07 -2.9826e-07)
(-7.47555e-09 -3.7605e-09 -6.91941e-09)
(-1.2618e-10 -6.34292e-11 -1.16761e-10)
(-1.73057e-12 -8.6932e-13 -1.60094e-12)
(-2.04489e-14 -1.02649e-14 -1.8912e-14)
(-2.15746e-16 -1.08224e-16 -1.99476e-16)
(-2.08113e-18 -1.04322e-18 -1.92366e-18)
(-1.86636e-20 -9.34897e-21 -1.72466e-20)
(-6.08412e-05 -3.08649e-05 -5.6346e-05)
(-0.00160339 -0.000813404 -0.00148533)
(-6.08414e-05 -3.0865e-05 -5.63461e-05)
(-1.28314e-06 -6.50939e-07 -1.18801e-06)
(-1.9847e-08 -1.00684e-08 -1.83705e-08)
(-2.5118e-10 -1.27424e-10 -2.3243e-10)
(-2.75511e-12 -1.39767e-12 -2.54874e-12)
(-2.71207e-14 -1.37584e-14 -2.50824e-14)
(-2.45178e-16 -1.2438e-16 -2.2669e-16)
(-2.06872e-18 -1.04947e-18 -1.9122e-18)
(-0.00640876 -0.00325116 -0.00593686)
(-0.189977 -0.0963757 -0.176037)
(-0.00640874 -0.00325117 -0.00593686)
(-0.00012165 -6.17136e-05 -0.000112662)
(-1.71064e-06 -8.6781e-07 -1.58381e-06)
(-1.98459e-08 -1.00679e-08 -1.83695e-08)
(-2.00942e-10 -1.01939e-10 -1.85942e-10)
(-1.83678e-12 -9.31803e-13 -1.6992e-12)
(-1.54983e-14 -7.86234e-15 -1.43335e-14)
(-1.22599e-16 -6.21947e-17 -1.13354e-16)
(-6.66909e-05 -2.72751e-05 -5.57772e-05)
(-0.00160364 -0.000813252 -0.00148531)
(-6.0847e-05 -3.08615e-05 -5.63455e-05)
(-1.28323e-06 -6.50878e-07 -1.18799e-06)
(-1.98483e-08 -1.00676e-08 -1.83703e-08)
(-2.51195e-10 -1.27414e-10 -2.32428e-10)
(-2.75526e-12 -1.39757e-12 -2.54872e-12)
(-2.71221e-14 -1.37573e-14 -2.50821e-14)
(-2.45191e-16 -1.2437e-16 -2.26687e-16)
(-2.06883e-18 -1.04939e-18 -1.91218e-18)
)
;

boundaryField
{
    inlet
    {
        type            zeroGradient;
    }
    outlet
    {
        type            zeroGradient;
    }
    bottom
    {
        type            zeroGradient;
    }
    top
    {
        type            symmetryPlane;
    }
    side1
    {
        type            symmetryPlane;
    }
    side2
    {
        type            symmetryPlane;
    }
    procBoundary3to2
    {
        type            processor;
        value           nonuniform List<vector> 
20
(
(-7.47544e-09 -3.76045e-09 -6.94216e-09)
(-1.28313e-06 -6.50933e-07 -1.19159e-06)
(-0.00012165 -6.17134e-05 -0.000112972)
(-1.28312e-06 -6.50927e-07 -1.19158e-06)
(-3.29246e-06 -1.65741e-06 -3.05759e-06)
(-0.000621958 -0.000315521 -0.000577589)
(-0.0655271 -0.0332421 -0.0608526)
(-0.000621956 -0.000315519 -0.000577586)
(-0.000798896 -0.000402443 -0.000741904)
(-0.167742 -0.0850961 -0.155776)
(-19.8818 -10.0861 -18.4635)
(-0.167742 -0.0850959 -0.155776)
(-3.29245e-06 -1.6574e-06 -3.05757e-06)
(-0.000621957 -0.00031552 -0.000577587)
(-0.0655272 -0.033242 -0.0608526)
(-0.000674969 -0.000282986 -0.000572411)
(-7.4693e-09 -3.75735e-09 -6.9136e-09)
(-1.28316e-06 -6.50945e-07 -1.18802e-06)
(-0.000121651 -6.17129e-05 -0.000112662)
(-1.50396e-06 -5.15399e-07 -1.16653e-06)
)
;
    }
    procBoundary3to4
    {
        type            processor;
        value           nonuniform List<vector> 
20
(
(-1.50841e-22 -7.55049e-23 -1.40079e-22)
(-1.6131e-20 -8.18315e-21 -1.49801e-20)
(-9.13053e-19 -4.6319e-19 -8.47912e-19)
(-1.63415e-20 -8.29002e-21 -1.51757e-20)
(-4.14522e-20 -2.07637e-20 -3.84947e-20)
(-4.66319e-18 -2.36563e-18 -4.3305e-18)
(-2.78354e-16 -1.41209e-16 -2.58496e-16)
(-4.6962e-18 -2.38238e-18 -4.36117e-18)
(-6.00442e-18 -3.0098e-18 -5.57604e-18)
(-7.12496e-16 -3.6145e-16 -6.61667e-16)
(-4.50457e-14 -2.28518e-14 -4.18323e-14)
(-7.12495e-16 -3.61451e-16 -6.61667e-16)
(-4.19938e-20 -2.1035e-20 -3.89978e-20)
(-4.69624e-18 -2.3824e-18 -4.3612e-18)
(-2.78355e-16 -1.41211e-16 -2.58498e-16)
(-4.69743e-18 -2.38224e-18 -4.36074e-18)
(-1.55892e-22 -7.80313e-23 -1.44015e-22)
(-1.64853e-20 -8.36297e-21 -1.52337e-20)
(-9.19528e-19 -4.66479e-19 -8.49953e-19)
(-1.64947e-20 -8.36167e-21 -1.52301e-20)
)
;
    }
    procBoundary3to11
    {
        type            processor;
        value           nonuniform List<vector> 
50
(
(-3.25596e-07 -1.59902e-07 -2.97541e-07)
(-7.61272e-06 -3.86171e-06 -7.06942e-06)
(-3.20917e-07 -1.62796e-07 -2.98017e-07)
(-7.43821e-09 -3.7733e-09 -6.90746e-09)
(-1.25312e-10 -6.35691e-11 -1.16371e-10)
(-1.71454e-12 -8.69762e-13 -1.5922e-12)
(-2.02045e-14 -1.02495e-14 -1.87628e-14)
(-2.12547e-16 -1.07822e-16 -1.97381e-16)
(-2.04413e-18 -1.03696e-18 -1.89827e-18)
(-1.8276e-20 -9.27116e-21 -1.69719e-20)
(-0.000158955 -7.6804e-05 -0.000144105)
(-0.00409972 -0.00207964 -0.00380711)
(-0.000155542 -7.8903e-05 -0.000144442)
(-3.27988e-06 -1.66382e-06 -3.04584e-06)
(-5.07244e-08 -2.57317e-08 -4.7105e-08)
(-6.41867e-10 -3.2561e-10 -5.96067e-10)
(-7.0394e-12 -3.57098e-12 -6.53711e-12)
(-6.92843e-14 -3.51469e-14 -6.43406e-14)
(-6.2626e-16 -3.17692e-16 -5.81573e-16)
(-5.28333e-18 -2.68015e-18 -4.90634e-18)
(-0.0437904 -0.0201471 -0.0387733)
(-1.24368 -0.630846 -1.15489)
(-0.0419478 -0.0212786 -0.0389539)
(-0.000796128 -0.000403853 -0.000739311)
(-1.11934e-05 -5.6781e-06 -1.03946e-05)
(-1.2984e-07 -6.58645e-08 -1.20574e-07)
(-1.31444e-09 -6.66784e-10 -1.22064e-09)
(-1.20132e-11 -6.09403e-12 -1.11559e-11)
(-1.01349e-13 -5.1412e-14 -9.41166e-14)
(-8.01583e-16 -4.06624e-16 -7.44381e-16)
(-0.55975 0.343344 0.0544935)
(-0.0229755 0.00950443 -0.0019641)
(-0.000513795 0.000140957 -0.000109463)
(-8.3169e-06 1.42738e-06 -2.55404e-06)
(-1.09153e-07 1.01255e-08 -4.14003e-08)
(-1.23337e-09 3.73926e-11 -5.38317e-10)
(-1.24454e-11 -2.53359e-13 -6.00932e-12)
(-1.14892e-13 -7.15807e-15 -5.98881e-14)
(-9.86984e-16 -9.63239e-17 -5.4636e-16)
(-7.98845e-18 -1.0201e-18 -4.64229e-18)
(-0.00184841 0.00113401 0.000179479)
(-7.77487e-05 3.91807e-05 -2.3022e-07)
(-1.8002e-06 7.45046e-07 -1.53329e-07)
(-3.0327e-08 1.02667e-08 -4.66715e-09)
(-4.15229e-10 1.1402e-10 -8.81034e-11)
(-4.89907e-12 1.07608e-12 -1.2847e-12)
(-5.16173e-14 8.87432e-15 -1.57781e-14)
(-4.97298e-16 6.46916e-17 -1.70935e-16)
(-4.45475e-18 4.14767e-19 -1.68091e-18)
(-3.75609e-20 2.26078e-21 -1.52953e-20)
)
;
    }
}


// ************************************************************************* //
