/*--------------------------------*- C++ -*----------------------------------*\
| =========                 |                                                 |
| \\      /  F ield         | OpenFOAM: The Open Source CFD Toolbox           |
|  \\    /   O peration     | Version:  2.4.0                                 |
|   \\  /    A nd           | Web:      www.OpenFOAM.org                      |
|    \\/     M anipulation  |                                                 |
\*---------------------------------------------------------------------------*/
FoamFile
{
    version     2.0;
    format      ascii;
    class       surfaceScalarField;
    location    "0.05";
    object      phia;
}
// * * * * * * * * * * * * * * * * * * * * * * * * * * * * * * * * * * * * * //

dimensions      [0 3 -1 0 0 0 0];

internalField   nonuniform List<scalar> 
490
(
-7.38225e-06
1.26492e-05
7.24522e-06
-9.09391e-06
1.20266e-05
5.96731e-06
-1.32852e-05
1.16539e-05
3.90428e-06
-1.55813e-05
1.22979e-05
2.98612e-06
-1.55819e-05
1.23066e-05
2.98462e-06
-1.55819e-05
1.2313e-05
2.98462e-06
-1.55819e-05
1.23194e-05
2.98462e-06
-1.55819e-05
1.23258e-05
2.98462e-06
-1.55819e-05
1.23323e-05
2.98462e-06
1.23387e-05
2.98462e-06
-7.05764e-06
1.2082e-05
6.96545e-06
-7.35793e-06
1.14743e-05
6.46917e-06
-1.17033e-05
1.09996e-05
4.49419e-06
-1.55757e-05
1.11838e-05
3.00559e-06
-1.55819e-05
1.24254e-05
2.98463e-06
-1.55819e-05
1.24494e-05
2.98462e-06
-1.55819e-05
1.24495e-05
2.98462e-06
-1.55819e-05
1.24495e-05
2.98462e-06
-1.55819e-05
1.24494e-05
2.98462e-06
1.24494e-05
2.98462e-06
-6.67121e-06
1.13415e-05
6.62453e-06
-6.34753e-06
1.07433e-05
6.66822e-06
-7.43859e-06
1.01965e-05
1.11922e-05
-1.2066e-05
9.88117e-06
1.59826e-05
-1.55182e-05
1.1122e-05
3.24729e-06
-1.55821e-05
1.05964e-05
2.98463e-06
-1.55819e-05
1.09093e-05
2.9846e-06
-1.55818e-05
1.12883e-05
2.98461e-06
-1.55818e-05
1.16136e-05
2.98462e-06
1.18804e-05
2.98462e-06
-6.20039e-06
6.21094e-06
-5.92466e-06
7.10915e-06
-7.20995e-06
1.11549e-05
-8.6293e-06
1.64884e-05
-1.58524e-05
1.65318e-05
-2.33829e-05
3.60216e-06
-2.27206e-05
1.37141e-06
-2.08597e-05
1.75576e-06
-1.92948e-05
2.09213e-06
2.37242e-06
-9.63079e-06
1.33179e-05
-6.27068e-06
-1.34516e-05
1.2478e-05
4.15078e-06
-1.55761e-05
1.22709e-05
3.00588e-06
-1.55815e-05
1.23044e-05
2.98618e-06
-1.55819e-05
1.2313e-05
2.98462e-06
-1.55819e-05
1.23194e-05
2.98462e-06
-1.55819e-05
1.23259e-05
2.98462e-06
-1.55819e-05
1.23323e-05
2.98462e-06
-1.55819e-05
1.23387e-05
2.98462e-06
1.23452e-05
2.98462e-06
-8.05926e-06
1.284e-05
7.42956e-06
-1.19494e-05
1.21114e-05
5.74283e-06
-1.55019e-05
1.11252e-05
3.28688e-06
-1.55763e-05
1.11736e-05
3.00747e-06
-1.55819e-05
1.24229e-05
2.98463e-06
-1.55819e-05
1.24494e-05
2.98462e-06
-1.55819e-05
1.24494e-05
2.98462e-06
-1.55819e-05
1.24494e-05
2.98462e-06
-1.55819e-05
1.24494e-05
2.98462e-06
1.24494e-05
2.98462e-06
-7.19785e-06
1.21962e-05
8.49547e-06
-7.86209e-06
1.13424e-05
1.19053e-05
-8.71406e-06
9.85167e-06
1.65193e-05
-1.21136e-05
9.87419e-06
1.62961e-05
-1.5512e-05
1.11191e-05
3.27628e-06
-1.55823e-05
9.99688e-06
2.98455e-06
-1.55821e-05
1.03011e-05
2.98454e-06
-1.55819e-05
1.0802e-05
2.98458e-06
-1.55818e-05
1.12456e-05
2.9846e-06
1.16193e-05
2.98461e-06
-6.97037e-06
9.77366e-06
-7.83652e-06
1.25685e-05
-8.63606e-06
1.65544e-05
-8.6524e-06
1.65588e-05
-1.7422e-05
1.65368e-05
-2.65559e-05
2.64946e-06
-2.56122e-05
4.88506e-07
-2.31168e-05
1.02077e-06
-2.0957e-05
1.51487e-06
1.94931e-06
-3.54405e-06
6.03428e-06
-2.04604e-05
-1.55136e-05
1.2083e-05
-8.64422e-06
-1.55758e-05
1.22743e-05
2.98785e-06
-1.55815e-05
1.23106e-05
2.98613e-06
-1.55819e-05
1.23194e-05
2.98463e-06
-1.55819e-05
1.23259e-05
2.98463e-06
-1.55819e-05
1.23323e-05
2.98463e-06
-1.55819e-05
1.23387e-05
2.98463e-06
-1.55819e-05
1.23452e-05
2.98463e-06
1.23517e-05
2.98463e-06
-1.17193e-05
1.26068e-05
-6.93931e-06
-1.49889e-05
1.09573e-05
4.41702e-06
-1.54947e-05
1.11194e-05
3.27735e-06
-1.55757e-05
1.11682e-05
3.0066e-06
-1.55819e-05
1.24197e-05
2.98446e-06
-1.55819e-05
1.24492e-05
2.98451e-06
-1.55819e-05
1.24493e-05
2.98455e-06
-1.55819e-05
1.24494e-05
2.98458e-06
-1.55819e-05
1.24494e-05
2.9846e-06
1.24494e-05
2.98461e-06
-8.31825e-06
1.15169e-05
-5.66176e-06
-8.64268e-06
9.8474e-06
1.64102e-05
-8.70255e-06
9.84827e-06
1.65177e-05
-1.20922e-05
9.86896e-06
1.61134e-05
-1.55048e-05
1.11134e-05
1.54579e-06
-1.55829e-05
8.63829e-06
1.5589e-06
-1.55825e-05
8.89107e-06
1.8291e-06
-1.55822e-05
9.60812e-06
2.08597e-06
-1.5582e-05
1.0294e-05
2.31943e-06
1.09132e-05
2.52069e-06
-8.41044e-06
1.39693e-05
-8.63698e-06
1.65571e-05
-8.63709e-06
1.65519e-05
-8.65937e-06
1.64905e-05
-2.11266e-05
6.08056e-06
-3.3979e-05
-2.11927e-06
-3.24921e-05
-3.15361e-06
-2.87853e-05
-2.84007e-06
-2.53367e-05
-2.53987e-06
-2.2687e-06
8.91255e-06
-1.66887e-06
-2.08815e-05
-3.45855e-06
5.21265e-06
-2.05838e-05
-1.55593e-05
1.22624e-05
-8.5529e-06
-1.55817e-05
1.23043e-05
2.96265e-06
-1.55819e-05
1.23129e-05
2.97565e-06
-1.55818e-05
1.23195e-05
2.97605e-06
-1.55817e-05
1.2326e-05
2.97646e-06
-1.55817e-05
1.23324e-05
2.97686e-06
-1.55817e-05
1.23389e-05
2.97727e-06
1.23453e-05
2.97768e-06
-1.72521e-06
-1.72505e-06
-2.11777e-05
-1.46604e-05
1.07071e-05
-8.43016e-06
-1.55115e-05
1.11083e-05
2.99827e-06
-1.55793e-05
1.10259e-05
2.99395e-06
-1.55837e-05
8.5972e-06
2.97553e-06
-1.5583e-05
9.19052e-06
2.97609e-06
-1.55825e-05
9.80829e-06
2.97662e-06
-1.55822e-05
1.03954e-05
2.97711e-06
-1.55821e-05
1.09291e-05
2.97758e-06
1.1389e-05
2.97803e-06
1.61485e-06
4.39159e-06
-2.12246e-05
-8.63247e-06
9.80096e-06
1.44283e-05
-9.27191e-06
9.82768e-06
1.64201e-05
-2.27762e-05
9.67162e-06
1.55826e-05
-3.42843e-05
-1.1478e-06
-9.87902e-07
-3.11717e-05
-1.28238e-06
-5.87012e-07
-2.79881e-05
-6.6475e-07
1.60361e-08
-2.50268e-05
-7.74015e-08
6.15711e-07
-2.24014e-05
4.56567e-07
1.18418e-06
9.1714e-07
1.69239e-06
-8.54426e-06
1.49399e-05
-8.66024e-06
1.65091e-05
-8.84445e-06
1.64914e-05
-3.74995e-05
1.62803e-05
-6.84575e-05
-4.83533e-06
-7.09288e-05
-6.15326e-06
-7.09278e-05
-6.15475e-06
-7.09254e-05
-6.15578e-06
-7.09222e-05
-6.15678e-06
-6.15774e-06
9.20448e-06
-1.57821e-06
8.84666e-06
-1.56219e-06
-3.53202e-06
5.48752e-06
-1.55675e-05
1.22898e-05
-1.55821e-05
1.23064e-05
-1.55819e-05
1.23131e-05
-1.55817e-05
1.23196e-05
-1.55816e-05
1.23261e-05
-1.55816e-05
1.23326e-05
1.23389e-05
9.18105e-06
-1.63343e-06
-2.92137e-06
3.54113e-06
-1.52899e-05
1.09553e-05
-1.55831e-05
1.0827e-05
-1.55858e-05
6.84559e-06
-1.55844e-05
7.52541e-06
-1.55835e-05
8.29295e-06
-1.55828e-05
9.08281e-06
-1.55824e-05
9.8541e-06
1.05602e-05
1.45287e-06
4.25399e-06
-7.85367e-06
9.24509e-06
-1.0058e-05
9.7971e-06
-2.81415e-05
9.3908e-06
-4.33404e-05
-3.29114e-06
-3.95743e-05
-2.948e-06
-3.546e-05
-2.18064e-06
-3.13355e-05
-1.39072e-06
-2.7432e-05
-6.19264e-07
8.71987e-08
-8.47121e-06
-8.69521e-06
-9.15344e-06
-3.91092e-05
-6.97888e-05
-7.0931e-05
-7.09302e-05
-7.09286e-05
-7.09266e-05
)
;

boundaryField
{
    inlet
    {
        type            calculated;
        value           nonuniform 0();
    }
    outlet
    {
        type            calculated;
        value           nonuniform 0();
    }
    bottom
    {
        type            calculated;
        value           uniform 0;
    }
    top
    {
        type            symmetryPlane;
        value           uniform 0;
    }
    side1
    {
        type            symmetryPlane;
        value           uniform 0;
    }
    side2
    {
        type            symmetryPlane;
        value           nonuniform 0();
    }
    procBoundary3to2
    {
        type            processor;
        value           nonuniform List<scalar> 
20
(
7.7908e-06
7.45182e-06
7.05712e-06
6.57538e-06
8.15192e-06
7.86847e-06
7.5255e-06
7.10779e-06
-8.64809e-06
8.52578e-06
8.05684e-06
7.98668e-06
-9.20509e-06
-1.04702e-05
-1.20059e-05
8.1894e-06
-9.20451e-06
-9.20469e-06
-9.73183e-06
7.15457e-06
)
;
    }
    procBoundary3to4
    {
        type            processor;
        value           nonuniform List<scalar> 
20
(
-1.55819e-05
-1.55819e-05
-1.55819e-05
-1.8037e-05
-1.55819e-05
-1.55819e-05
-1.55819e-05
-1.91792e-05
-1.55819e-05
-1.55819e-05
-1.5582e-05
-2.23128e-05
-1.55818e-05
-1.5582e-05
-2.0195e-05
-7.09197e-05
-1.55818e-05
-1.55822e-05
-2.3985e-05
-7.09258e-05
)
;
    }
    procBoundary3to11
    {
        type            processor;
        value           nonuniform List<scalar> 
50
(
1.04258e-05
9.84452e-06
9.40839e-06
9.84138e-06
9.8434e-06
7.08446e-06
4.442e-07
8.16882e-07
1.14301e-06
1.41119e-06
1.13984e-05
1.04728e-05
9.8465e-06
9.84615e-06
9.8429e-06
5.95539e-06
-1.67027e-07
3.29522e-07
7.73575e-07
1.14809e-06
1.04478e-05
9.84629e-06
9.84615e-06
9.84613e-06
9.83972e-06
3.38474e-06
-1.58e-06
-8.65203e-07
-1.79164e-07
4.40394e-07
1.02021e-05
9.84523e-06
9.83895e-06
9.77381e-06
-5.92288e-06
-8.49712e-06
-8.49778e-06
-8.49753e-06
-8.49716e-06
-8.49656e-06
1.00576e-05
9.84342e-06
9.8278e-06
9.66464e-06
-7.26301e-06
-8.4983e-06
-8.49855e-06
-8.49837e-06
-8.49811e-06
-8.49771e-06
)
;
    }
}


// ************************************************************************* //
