/*--------------------------------*- C++ -*----------------------------------*\
| =========                 |                                                 |
| \\      /  F ield         | OpenFOAM: The Open Source CFD Toolbox           |
|  \\    /   O peration     | Version:  2.4.0                                 |
|   \\  /    A nd           | Web:      www.OpenFOAM.org                      |
|    \\/     M anipulation  |                                                 |
\*---------------------------------------------------------------------------*/
FoamFile
{
    version     2.0;
    format      ascii;
    class       volVectorField;
    location    "0.05";
    object      Ua;
}
// * * * * * * * * * * * * * * * * * * * * * * * * * * * * * * * * * * * * * //

dimensions      [0 1 -1 0 0 0 0];

internalField   nonuniform List<vector> 
200
(
(15.4732 15.667 -6.88531)
(15.4732 15.678 -6.88531)
(15.4732 15.667 -6.88531)
(15.4732 15.656 -6.88532)
(15.4763 15.6482 -6.88535)
(15.4912 15.6522 -6.88539)
(15.5206 15.6709 -6.88544)
(15.5638 15.7033 -6.88549)
(15.6183 15.7472 -6.88554)
(15.6818 15.8001 -6.88559)
(15.4732 15.7887 -6.88531)
(15.4732 15.7887 -6.88531)
(15.4732 15.7887 -6.88531)
(15.4732 15.7887 -6.88531)
(15.4731 15.7886 -6.88533)
(15.4763 15.7919 -6.88535)
(15.4844 15.8001 -6.88538)
(15.4976 15.8136 -6.88541)
(15.5153 15.8316 -6.88544)
(15.5367 15.8534 -6.88548)
(15.4732 15.7887 -6.88531)
(15.4732 15.7887 -6.88531)
(15.4732 15.7887 -6.88531)
(15.4732 15.7887 -6.88531)
(15.4732 15.7887 -6.88531)
(15.4732 15.7887 -6.88532)
(15.4732 15.7887 -6.88533)
(15.4733 15.7887 -6.88534)
(15.4733 15.7888 -6.88536)
(15.4734 15.7889 -6.88537)
(15.4732 15.7887 -6.88529)
(15.4732 15.7887 -6.88531)
(15.4732 15.7887 -6.88531)
(15.4732 15.7887 -6.88531)
(15.4732 15.7887 -6.88532)
(15.4732 15.7887 -6.88533)
(15.4733 15.7888 -6.88534)
(15.4733 15.7888 -6.88536)
(15.4734 15.7889 -6.88537)
(15.4735 15.789 -6.88539)
(15.4732 15.6781 -6.88531)
(15.4732 15.6891 -6.88531)
(15.4732 15.678 -6.88531)
(15.4732 15.667 -6.88531)
(15.4731 15.6559 -6.88533)
(15.4763 15.6482 -6.88535)
(15.4845 15.6454 -6.88538)
(15.4976 15.6477 -6.88541)
(15.5153 15.6545 -6.88544)
(15.5367 15.6651 -6.88548)
(15.4732 15.7887 -6.88531)
(15.4732 15.7887 -6.88531)
(15.4732 15.7887 -6.88531)
(15.4732 15.7887 -6.88531)
(15.4732 15.7887 -6.88531)
(15.4732 15.7887 -6.88532)
(15.4732 15.7887 -6.88533)
(15.4733 15.7887 -6.88534)
(15.4733 15.7888 -6.88536)
(15.4734 15.7889 -6.88537)
(15.4732 15.7887 -6.88531)
(15.4732 15.7887 -6.88531)
(15.4732 15.7887 -6.88531)
(15.4732 15.7887 -6.88531)
(15.4732 15.7887 -6.88531)
(15.4732 15.7887 -6.88531)
(15.4732 15.7886 -6.88531)
(15.4731 15.7886 -6.88531)
(15.4731 15.7886 -6.88531)
(15.4732 15.7886 -6.88531)
(15.4732 15.7887 -6.88529)
(15.4732 15.7887 -6.88531)
(15.4732 15.7887 -6.88531)
(15.4732 15.7887 -6.88531)
(15.4732 15.7887 -6.88531)
(15.4732 15.7887 -6.88531)
(15.4732 15.7886 -6.88531)
(15.4732 15.7886 -6.88531)
(15.4732 15.7886 -6.88531)
(15.4732 15.7887 -6.88531)
(15.4732 15.6891 -6.88531)
(15.4732 15.7001 -6.88531)
(15.4732 15.6891 -6.88531)
(15.4732 15.678 -6.88531)
(15.4732 15.667 -6.88531)
(15.4732 15.656 -6.88532)
(15.4732 15.645 -6.88533)
(15.4733 15.6341 -6.88534)
(15.4733 15.6231 -6.88536)
(15.4734 15.6123 -6.88537)
(15.4732 15.7887 -6.88531)
(15.4732 15.7887 -6.88531)
(15.4732 15.7887 -6.88531)
(15.4732 15.7887 -6.88531)
(15.4732 15.7887 -6.88531)
(15.4732 15.7887 -6.88531)
(15.4732 15.7886 -6.88531)
(15.4731 15.7886 -6.88531)
(15.4731 15.7886 -6.88531)
(15.4732 15.7886 -6.88531)
(15.4732 15.7887 -6.88531)
(15.4732 15.7887 -6.88531)
(15.4732 15.7887 -6.88531)
(15.4732 15.7887 -6.88531)
(15.4732 15.7887 -6.88531)
(15.4732 15.7887 -6.88531)
(15.4732 15.7887 -6.88531)
(15.4732 15.7887 -6.88531)
(15.4732 15.7887 -6.88531)
(15.4732 15.7887 -6.88531)
(15.4732 15.7887 -6.88528)
(15.4732 15.7887 -6.88531)
(15.4732 15.7887 -6.88531)
(15.4732 15.7887 -6.88531)
(15.4732 15.7887 -6.88531)
(15.4732 15.7887 -6.88531)
(15.4732 15.7887 -6.88531)
(15.4732 15.7887 -6.88531)
(15.4732 15.7887 -6.88531)
(15.4732 15.7887 -6.88531)
(15.4732 15.6781 -6.8853)
(15.4732 15.6891 -6.88531)
(15.4732 15.678 -6.88531)
(15.4732 15.667 -6.88531)
(15.4732 15.656 -6.88532)
(15.4732 15.645 -6.88533)
(15.4733 15.6341 -6.88534)
(15.4733 15.6231 -6.88536)
(15.4733 15.6122 -6.88537)
(15.4735 15.6014 -6.88539)
(15.4732 15.7887 -6.88529)
(15.4732 15.7887 -6.88531)
(15.4732 15.7887 -6.88531)
(15.4732 15.7887 -6.88531)
(15.4732 15.7887 -6.88531)
(15.4732 15.7886 -6.88531)
(15.4731 15.7886 -6.88531)
(15.4731 15.7886 -6.88531)
(15.4731 15.7886 -6.8853)
(15.4732 15.7886 -6.8853)
(15.4732 15.7886 -6.88526)
(15.4732 15.7887 -6.88531)
(15.4732 15.7887 -6.88531)
(15.4732 15.7887 -6.88531)
(15.4732 15.7887 -6.88531)
(15.4732 15.7887 -6.88531)
(15.4732 15.7887 -6.88531)
(15.4732 15.7887 -6.88531)
(15.4732 15.7887 -6.88531)
(15.4732 15.7887 -6.88531)
(13.6006 13.1965 -4.7899)
(15.4706 15.785 -6.88234)
(15.4716 15.7864 -6.88345)
(15.4719 15.7868 -6.88379)
(15.472 15.787 -6.88395)
(15.4721 15.7871 -6.88402)
(15.4721 15.7872 -6.88406)
(15.4721 15.7872 -6.88408)
(15.4721 15.7872 -6.88408)
(15.4721 15.7872 -6.88408)
(15.4733 15.6671 -6.86452)
(15.4732 15.678 -6.86641)
(15.4732 15.667 -6.86453)
(15.4732 15.656 -6.86265)
(15.4732 15.645 -6.86078)
(15.4733 15.6341 -6.85891)
(15.4733 15.6231 -6.85704)
(15.4734 15.6122 -6.85517)
(15.4734 15.6013 -6.8533)
(15.4735 15.5905 -6.85144)
(15.4732 15.7887 -6.86639)
(15.4732 15.7887 -6.8683)
(15.4732 15.7887 -6.86642)
(15.4732 15.7887 -6.86453)
(15.4732 15.7886 -6.86265)
(15.4731 15.7886 -6.86077)
(15.4731 15.7886 -6.85888)
(15.4731 15.7886 -6.857)
(15.4731 15.7886 -6.85512)
(15.4732 15.7886 -6.85323)
(15.4731 15.7886 -6.86819)
(15.4732 15.7887 -6.87019)
(15.4732 15.7887 -6.86831)
(15.4732 15.7887 -6.86642)
(15.4732 15.7887 -6.86454)
(15.4732 15.7887 -6.86265)
(15.4732 15.7887 -6.86077)
(15.4732 15.7887 -6.85888)
(15.4732 15.7887 -6.857)
(15.4732 15.7887 -6.85512)
(12.0551 11.0571 -3.05575)
(15.4666 15.7795 -6.86091)
(15.4692 15.7831 -6.8619)
(15.47 15.7842 -6.86093)
(15.4703 15.7847 -6.85946)
(15.4705 15.785 -6.85779)
(15.4706 15.7851 -6.85603)
(15.4707 15.7852 -6.85421)
(15.4707 15.7852 -6.85236)
(15.4707 15.7853 -6.85049)
)
;

boundaryField
{
    inlet
    {
        type            calculated;
        value           nonuniform 0();
    }
    outlet
    {
        type            calculated;
        value           nonuniform 0();
    }
    bottom
    {
        type            calculated;
        value           uniform (0 0 0);
    }
    top
    {
        type            symmetryPlane;
    }
    side1
    {
        type            symmetryPlane;
    }
    side2
    {
        type            symmetryPlane;
    }
    procBoundary3to2
    {
        type            processor;
        value           nonuniform List<vector> 
20
(
(15.4734 15.6562 -6.8853)
(15.4733 15.7888 -6.8853)
(15.4733 15.7887 -6.8853)
(15.4735 15.789 -6.88532)
(15.4733 15.6671 -6.8853)
(15.4733 15.7887 -6.8853)
(15.4732 15.7887 -6.88531)
(15.4733 15.7888 -6.88529)
(15.4733 15.6781 -6.8853)
(15.4732 15.7887 -6.88531)
(15.4732 15.7887 -6.88531)
(15.4732 15.7886 -6.88524)
(15.4735 15.6674 -6.88534)
(15.4733 15.7888 -6.8853)
(15.4731 15.7886 -6.8852)
(12.1369 11.2814 -3.35785)
(15.4864 15.6694 -6.86272)
(15.4731 15.7886 -6.86453)
(15.4731 15.7885 -6.86617)
(9.79203 8.08891 -0.851815)
)
;
    }
    procBoundary3to4
    {
        type            processor;
        value           nonuniform List<vector> 
20
(
(16.1065 16.2161 -6.88582)
(15.8 16.1218 -6.88567)
(15.5838 15.9014 -6.88553)
(15.6103 15.9284 -6.88556)
(15.7999 15.9189 -6.88567)
(15.5838 15.9014 -6.88553)
(15.4737 15.7891 -6.8854)
(15.4738 15.7893 -6.88541)
(15.5836 15.7123 -6.88553)
(15.4736 15.7891 -6.8854)
(15.4732 15.7887 -6.8853)
(15.4733 15.7888 -6.8853)
(15.61 15.7279 -6.88556)
(15.4737 15.7892 -6.88541)
(15.4732 15.7887 -6.8853)
(15.4718 15.7871 -6.8841)
(15.6369 15.7438 -6.8497)
(15.4738 15.7893 -6.85147)
(15.4733 15.7887 -6.85323)
(15.4699 15.7849 -6.84868)
)
;
    }
    procBoundary3to11
    {
        type            processor;
        value           nonuniform List<vector> 
50
(
(14.8612 14.9413 -6.19991)
(15.4719 15.7869 -6.88394)
(15.4722 15.7874 -6.88453)
(15.4855 15.801 -6.88476)
(15.5097 15.8257 -6.88488)
(15.5417 15.8583 -6.88497)
(15.5787 15.8961 -6.88504)
(15.6188 15.9369 -6.8851)
(15.6604 15.9794 -6.88514)
(15.7028 16.0226 -6.88518)
(14.5688 14.5366 -5.87297)
(15.4716 15.7865 -6.88361)
(15.4723 15.7874 -6.88429)
(15.4725 15.7877 -6.88452)
(15.4727 15.788 -6.88464)
(15.4729 15.7881 -6.88472)
(15.473 15.7882 -6.88477)
(15.4731 15.7883 -6.8848)
(15.4732 15.7884 -6.88483)
(15.4734 15.7887 -6.88485)
(13.7448 13.396 -4.95108)
(15.4707 15.7853 -6.88259)
(15.4716 15.7865 -6.88361)
(15.4719 15.7869 -6.88392)
(15.472 15.787 -6.88406)
(15.472 15.7871 -6.88413)
(15.4721 15.7871 -6.88416)
(15.4721 15.7872 -6.88417)
(15.4721 15.7872 -6.88418)
(15.4722 15.7873 -6.88417)
(-3.93918 -11.0835 14.8371)
(-2.21329 -8.69467 12.9064)
(-0.768689 -6.695 11.29)
(0.457856 -4.99713 9.91756)
(1.51219 -3.53764 8.73775)
(2.42819 -2.26963 7.71273)
(3.2314 -1.15776 6.81392)
(3.94144 -0.174859 6.01937)
(4.57363 0.700275 5.31192)
(5.14015 1.48446 4.67805)
(-3.94003 -11.0845 14.7829)
(-3.03771 -9.83586 13.7716)
(-2.21517 -8.69734 12.8494)
(-1.46261 -7.65564 12.0057)
(-0.771523 -6.699 11.231)
(-0.134692 -5.81747 10.5173)
(0.454025 -5.00252 9.85766)
(0.99988 -4.24691 9.24616)
(1.50739 -3.54439 8.67775)
(1.98047 -2.88956 8.14809)
)
;
    }
}


// ************************************************************************* //
