/*--------------------------------*- C++ -*----------------------------------*\
| =========                 |                                                 |
| \\      /  F ield         | OpenFOAM: The Open Source CFD Toolbox           |
|  \\    /   O peration     | Version:  2.4.0                                 |
|   \\  /    A nd           | Web:      www.OpenFOAM.org                      |
|    \\/     M anipulation  |                                                 |
\*---------------------------------------------------------------------------*/
FoamFile
{
    version     2.0;
    format      ascii;
    class       volVectorField;
    location    "0.05";
    object      Uc;
}
// * * * * * * * * * * * * * * * * * * * * * * * * * * * * * * * * * * * * * //

dimensions      [0 1 -1 0 0 0 0];

internalField   nonuniform List<vector> 
200
(
(1.44077e-13 1.45881e-13 -6.41115e-14)
(3.4166e-12 3.46183e-12 -1.52033e-12)
(1.44077e-13 1.45881e-13 -6.41117e-14)
(3.34339e-15 3.38289e-15 -1.48775e-15)
(5.64333e-17 5.70599e-17 -2.51069e-17)
(7.73984e-19 7.82027e-19 -3.44013e-19)
(9.14544e-21 9.23397e-21 -4.0572e-21)
(9.6482e-23 9.73472e-23 -4.26841e-23)
(9.30565e-25 9.38248e-25 -4.10253e-25)
(8.34368e-27 8.40662e-27 -3.66355e-27)
(2.7211e-11 2.77658e-11 -1.21084e-11)
(7.17107e-10 7.31728e-10 -3.191e-10)
(2.7211e-11 2.77658e-11 -1.21084e-11)
(5.73875e-13 5.85576e-13 -2.55365e-13)
(8.87644e-15 9.05742e-15 -3.9499e-15)
(1.12339e-16 1.14629e-16 -4.9979e-17)
(1.2322e-18 1.25732e-18 -5.47916e-19)
(1.21295e-20 1.23768e-20 -5.389e-21)
(1.09654e-22 1.1189e-22 -4.86629e-23)
(9.25224e-25 9.44084e-25 -4.10036e-25)
(2.86628e-09 2.92472e-09 -1.27544e-09)
(8.4966e-08 8.66984e-08 -3.78084e-08)
(2.86628e-09 2.92472e-09 -1.27544e-09)
(5.44075e-11 5.55168e-11 -2.42104e-11)
(7.65073e-13 7.80672e-13 -3.40445e-13)
(8.87598e-15 9.05695e-15 -3.94967e-15)
(8.98703e-17 9.17027e-17 -3.99908e-17)
(8.2149e-19 8.3824e-19 -3.6555e-19)
(6.93155e-21 7.07288e-21 -3.08442e-21)
(5.48317e-23 5.59497e-23 -2.43991e-23)
(2.7211e-11 2.77658e-11 -1.21084e-11)
(7.17107e-10 7.31729e-10 -3.191e-10)
(2.7211e-11 2.77658e-11 -1.21084e-11)
(5.73875e-13 5.85576e-13 -2.55365e-13)
(8.87644e-15 9.05742e-15 -3.94987e-15)
(1.12339e-16 1.14629e-16 -4.99888e-17)
(1.2322e-18 1.25732e-18 -5.48308e-19)
(1.21295e-20 1.23768e-20 -5.39741e-21)
(1.09654e-22 1.1189e-22 -4.8794e-23)
(9.25223e-25 9.44088e-25 -4.11704e-25)
(6.98079e-11 7.07321e-11 -3.10633e-11)
(1.8393e-09 1.86496e-09 -8.18458e-10)
(6.98079e-11 7.07321e-11 -3.10633e-11)
(1.47255e-12 1.49099e-12 -6.55259e-13)
(2.27814e-14 2.30506e-14 -1.01374e-14)
(2.88378e-16 2.91581e-16 -1.28298e-16)
(3.16377e-18 3.19666e-18 -1.40682e-18)
(3.115e-20 3.14516e-20 -1.38396e-20)
(2.81663e-22 2.8419e-22 -1.24998e-22)
(2.37706e-24 2.3967e-24 -1.05345e-24)
(1.46565e-08 1.49554e-08 -6.5219e-09)
(4.34532e-07 4.43392e-07 -1.93359e-07)
(1.46565e-08 1.49554e-08 -6.5219e-09)
(2.78168e-10 2.8384e-10 -1.2378e-10)
(3.91099e-12 3.99073e-12 -1.74033e-12)
(4.53665e-14 4.62915e-14 -2.01874e-14)
(4.59272e-16 4.68636e-16 -2.04369e-16)
(4.1975e-18 4.28308e-18 -1.86782e-18)
(3.54121e-20 3.61341e-20 -1.57578e-20)
(2.80083e-22 2.85793e-22 -1.24632e-22)
(1.73708e-06 1.7725e-06 -7.72972e-07)
(5.885e-05 6.00499e-05 -2.61872e-05)
(1.73708e-06 1.7725e-06 -7.72972e-07)
(2.93067e-08 2.99042e-08 -1.3041e-08)
(3.70853e-10 3.78415e-10 -1.65023e-10)
(3.91082e-12 3.99056e-12 -1.74025e-12)
(3.6293e-14 3.7033e-14 -1.61498e-14)
(3.06189e-16 3.12432e-16 -1.36249e-16)
(2.39869e-18 2.44759e-18 -1.06738e-18)
(1.77073e-20 1.80684e-20 -7.87948e-21)
(1.46565e-08 1.49554e-08 -6.52188e-09)
(4.34532e-07 4.43392e-07 -1.93359e-07)
(1.46565e-08 1.49554e-08 -6.5219e-09)
(2.78168e-10 2.8384e-10 -1.2378e-10)
(3.91099e-12 3.99073e-12 -1.74033e-12)
(4.53665e-14 4.62915e-14 -2.01873e-14)
(4.59272e-16 4.68636e-16 -2.04369e-16)
(4.19749e-18 4.28308e-18 -1.86782e-18)
(3.54121e-20 3.61341e-20 -1.57578e-20)
(2.80082e-22 2.85793e-22 -1.24632e-22)
(1.88195e-08 1.90821e-08 -8.37437e-09)
(5.57762e-07 5.65941e-07 -2.48194e-07)
(1.88195e-08 1.90821e-08 -8.37437e-09)
(3.57303e-10 3.62034e-10 -1.58994e-10)
(5.02536e-12 5.08832e-12 -2.2362e-12)
(5.83132e-14 5.90022e-14 -2.59484e-14)
(5.90544e-16 5.97102e-16 -2.62783e-16)
(5.39912e-18 5.45524e-18 -2.40252e-18)
(4.55654e-20 4.60067e-20 -2.02758e-20)
(3.60512e-22 3.63748e-22 -1.60421e-22)
(4.44679e-06 4.53745e-06 -1.97874e-06)
(0.000150652 0.000153724 -6.70375e-05)
(4.44679e-06 4.53745e-06 -1.97874e-06)
(7.5022e-08 7.65516e-08 -3.33835e-08)
(9.49335e-10 9.68691e-10 -4.22438e-10)
(1.00111e-11 1.02152e-11 -4.45476e-12)
(9.29032e-14 9.47974e-14 -4.13404e-14)
(7.83776e-16 7.99756e-16 -3.48768e-16)
(6.14003e-18 6.26522e-18 -2.73222e-18)
(4.53257e-20 4.62498e-20 -2.01692e-20)
(0.000602327 0.000614608 -0.000268025)
(0.0238045 0.0242898 -0.0105926)
(0.000602327 0.000614608 -0.000268025)
(8.89203e-06 9.07333e-06 -3.9568e-06)
(1.00021e-07 1.0206e-07 -4.45076e-08)
(9.493e-10 9.68656e-10 -4.22422e-10)
(8.00882e-12 8.17211e-12 -3.56378e-12)
(6.19368e-14 6.31996e-14 -2.75608e-14)
(4.47891e-16 4.57023e-16 -1.99304e-16)
(3.07022e-18 3.13281e-18 -1.36619e-18)
(4.44678e-06 4.53745e-06 -1.97874e-06)
(0.000150652 0.000153724 -6.70375e-05)
(4.44679e-06 4.53745e-06 -1.97874e-06)
(7.5022e-08 7.65516e-08 -3.33835e-08)
(9.49335e-10 9.68691e-10 -4.22437e-10)
(1.00111e-11 1.02152e-11 -4.45475e-12)
(9.29032e-14 9.47974e-14 -4.13403e-14)
(7.83776e-16 7.99756e-16 -3.48766e-16)
(6.14003e-18 6.26522e-18 -2.73221e-18)
(4.53257e-20 4.62498e-20 -2.01691e-20)
(6.98079e-11 7.07321e-11 -3.10632e-11)
(1.8393e-09 1.86496e-09 -8.18459e-10)
(6.98079e-11 7.07321e-11 -3.10633e-11)
(1.47255e-12 1.49099e-12 -6.55259e-13)
(2.27814e-14 2.30506e-14 -1.01374e-14)
(2.88378e-16 2.91581e-16 -1.28324e-16)
(3.16377e-18 3.19666e-18 -1.40783e-18)
(3.11499e-20 3.14516e-20 -1.38612e-20)
(2.81663e-22 2.84191e-22 -1.25335e-22)
(2.37706e-24 2.39671e-24 -1.05775e-24)
(1.46565e-08 1.49554e-08 -6.52188e-09)
(4.34532e-07 4.43392e-07 -1.93359e-07)
(1.46565e-08 1.49554e-08 -6.5219e-09)
(2.78168e-10 2.8384e-10 -1.2378e-10)
(3.91099e-12 3.99073e-12 -1.74033e-12)
(4.53665e-14 4.62915e-14 -2.01874e-14)
(4.59272e-16 4.68636e-16 -2.04369e-16)
(4.19749e-18 4.28308e-18 -1.86782e-18)
(3.54121e-20 3.61341e-20 -1.57578e-20)
(2.80082e-22 2.85793e-22 -1.24632e-22)
(1.73708e-06 1.7725e-06 -7.72969e-07)
(5.885e-05 6.00499e-05 -2.61872e-05)
(1.73708e-06 1.7725e-06 -7.72972e-07)
(2.93067e-08 2.99042e-08 -1.3041e-08)
(3.70853e-10 3.78415e-10 -1.65023e-10)
(3.91082e-12 3.99056e-12 -1.74025e-12)
(3.6293e-14 3.7033e-14 -1.61497e-14)
(3.06189e-16 3.12432e-16 -1.36249e-16)
(2.39869e-18 2.44759e-18 -1.06737e-18)
(1.77073e-20 1.80684e-20 -7.87945e-21)
(1.4258e-08 1.38343e-08 -5.02141e-09)
(4.34517e-07 4.43349e-07 -1.93302e-07)
(1.46562e-08 1.49545e-08 -6.5207e-09)
(2.78163e-10 2.83826e-10 -1.23761e-10)
(3.91093e-12 3.99056e-12 -1.74009e-12)
(4.53658e-14 4.62896e-14 -2.01847e-14)
(4.59265e-16 4.68617e-16 -2.04343e-16)
(4.19743e-18 4.28291e-18 -1.86758e-18)
(3.54115e-20 3.61326e-20 -1.57558e-20)
(2.80078e-22 2.85782e-22 -1.24617e-22)
(1.44076e-13 1.45881e-13 -6.39176e-14)
(3.4166e-12 3.46183e-12 -1.51616e-12)
(1.44077e-13 1.45881e-13 -6.39182e-14)
(3.34339e-15 3.38289e-15 -1.48286e-15)
(5.64333e-17 5.70599e-17 -2.50224e-17)
(7.73983e-19 7.82027e-19 -3.43087e-19)
(9.14563e-21 9.23419e-21 -4.05292e-21)
(9.64906e-23 9.73565e-23 -4.27483e-23)
(9.30771e-25 9.38463e-25 -4.12247e-25)
(8.3472e-27 8.41026e-27 -3.696e-27)
(2.7211e-11 2.77657e-11 -1.20751e-11)
(7.17107e-10 7.31728e-10 -3.18312e-10)
(2.7211e-11 2.77658e-11 -1.20752e-11)
(5.73875e-13 5.85576e-13 -2.54594e-13)
(8.87644e-15 9.05742e-15 -3.93687e-15)
(1.12339e-16 1.14629e-16 -4.98108e-17)
(1.2322e-18 1.25732e-18 -5.46206e-19)
(1.21295e-20 1.23768e-20 -5.37526e-21)
(1.09654e-22 1.1189e-22 -4.85805e-23)
(9.25223e-25 9.44087e-25 -4.09792e-25)
(2.86627e-09 2.92471e-09 -1.27228e-09)
(8.4966e-08 8.66984e-08 -3.77254e-08)
(2.86628e-09 2.92472e-09 -1.27229e-09)
(5.44075e-11 5.55168e-11 -2.4144e-11)
(7.65073e-13 7.80672e-13 -3.39417e-13)
(8.87598e-15 9.05695e-15 -3.93666e-15)
(8.98703e-17 9.17027e-17 -3.98482e-17)
(8.2149e-19 8.3824e-19 -3.64146e-19)
(6.93154e-21 7.07287e-21 -3.07173e-21)
(5.48317e-23 5.59496e-23 -2.42921e-23)
(2.57298e-11 2.35997e-11 -6.52204e-12)
(7.17045e-10 7.31553e-10 -3.18078e-10)
(2.72095e-11 2.77617e-11 -1.20698e-11)
(5.7385e-13 5.85507e-13 -2.54502e-13)
(8.8761e-15 9.05648e-15 -3.93561e-15)
(1.12335e-16 1.14618e-16 -4.97958e-17)
(1.23216e-18 1.25721e-18 -5.46048e-19)
(1.21291e-20 1.23757e-20 -5.37374e-21)
(1.0965e-22 1.1188e-22 -4.85669e-23)
(9.25192e-25 9.44002e-25 -4.09678e-25)
)
;

boundaryField
{
    inlet
    {
        type            calculated;
        value           nonuniform 0();
    }
    outlet
    {
        type            calculated;
        value           nonuniform 0();
    }
    bottom
    {
        type            calculated;
        value           uniform (0 0 0);
    }
    top
    {
        type            symmetryPlane;
    }
    side1
    {
        type            symmetryPlane;
    }
    side2
    {
        type            symmetryPlane;
    }
    procBoundary3to2
    {
        type            processor;
        value           nonuniform List<vector> 
20
(
(3.34339e-15 3.38289e-15 -1.48773e-15)
(5.73875e-13 5.85576e-13 -2.55363e-13)
(5.44075e-11 5.55168e-11 -2.42103e-11)
(5.73874e-13 5.85575e-13 -2.55359e-13)
(1.47255e-12 1.49099e-12 -6.55253e-13)
(2.78168e-10 2.8384e-10 -1.2378e-10)
(2.93067e-08 2.99042e-08 -1.30409e-08)
(2.78168e-10 2.83839e-10 -1.23778e-10)
(3.57303e-10 3.62034e-10 -1.58993e-10)
(7.5022e-08 7.65516e-08 -3.33834e-08)
(8.89203e-06 9.07333e-06 -3.9568e-06)
(7.50219e-08 7.65514e-08 -3.33832e-08)
(1.47255e-12 1.49099e-12 -6.55247e-13)
(2.78168e-10 2.8384e-10 -1.23779e-10)
(2.93067e-08 2.99041e-08 -1.30408e-08)
(2.64745e-10 2.46085e-10 -7.3246e-11)
(3.34338e-15 3.38288e-15 -1.4816e-15)
(5.73874e-13 5.85574e-13 -2.54595e-13)
(5.44073e-11 5.55164e-11 -2.41432e-11)
(5.17744e-13 4.27693e-13 -4.50389e-14)
)
;
    }
    procBoundary3to4
    {
        type            processor;
        value           nonuniform List<vector> 
20
(
(7.02162e-29 7.06941e-29 -3.00187e-29)
(7.36626e-27 7.51629e-27 -3.21023e-27)
(4.11255e-25 4.19637e-25 -1.81709e-25)
(7.37301e-27 7.52327e-27 -3.25216e-27)
(1.89291e-26 1.90718e-26 -8.24942e-27)
(2.10038e-24 2.14319e-24 -9.28033e-25)
(1.24493e-22 1.27032e-22 -5.53965e-23)
(2.10038e-24 2.14321e-24 -9.3461e-25)
(2.70447e-24 2.72681e-24 -1.19495e-24)
(3.18662e-22 3.25159e-22 -1.41797e-22)
(2.01465e-20 2.05572e-20 -8.96482e-21)
(3.18662e-22 3.25159e-22 -1.41798e-22)
(1.89465e-26 1.90895e-26 -8.35727e-27)
(2.10038e-24 2.14321e-24 -9.34617e-25)
(1.24493e-22 1.27032e-22 -5.53972e-23)
(2.10031e-24 2.14311e-24 -9.34524e-25)
(7.04548e-29 7.09364e-29 -3.08625e-29)
(7.37303e-27 7.52336e-27 -3.26462e-27)
(4.11255e-25 4.1964e-25 -1.82148e-25)
(7.37247e-27 7.52261e-27 -3.26387e-27)
)
;
    }
    procBoundary3to11
    {
        type            processor;
        value           nonuniform List<vector> 
50
(
(1.4233e-13 1.43097e-13 -5.93785e-14)
(3.40458e-12 3.47389e-12 -1.5148e-12)
(1.4352e-13 1.46444e-13 -6.3861e-14)
(3.32932e-15 3.39715e-15 -1.4802e-15)
(5.61762e-17 5.73208e-17 -2.49371e-17)
(7.70188e-19 7.85879e-19 -3.41194e-19)
(9.09761e-21 9.28294e-21 -4.02071e-21)
(9.59503e-23 9.79048e-23 -4.2297e-23)
(9.25236e-25 9.4408e-25 -4.06782e-25)
(8.29463e-27 8.46355e-27 -3.63693e-27)
(6.86972e-11 6.85456e-11 -2.76932e-11)
(1.83347e-09 1.87078e-09 -8.15744e-10)
(6.95625e-11 7.09793e-11 -3.09514e-11)
(1.46686e-12 1.49674e-12 -6.52681e-13)
(2.26856e-14 2.31478e-14 -1.0094e-14)
(2.87064e-16 2.92913e-16 -1.2773e-16)
(3.14826e-18 3.2124e-18 -1.40083e-18)
(3.09863e-20 3.16177e-20 -1.37875e-20)
(2.80085e-22 2.85792e-22 -1.24625e-22)
(2.36292e-24 2.41107e-24 -1.05137e-24)
(1.82931e-08 1.7829e-08 -6.58946e-09)
(5.56179e-07 5.67487e-07 -2.47432e-07)
(1.87598e-08 1.91416e-08 -8.34659e-09)
(3.56046e-10 3.63295e-10 -1.58416e-10)
(5.00593e-12 5.10787e-12 -2.22733e-12)
(5.80674e-14 5.92499e-14 -2.58365e-14)
(5.87849e-16 5.99821e-16 -2.61559e-16)
(5.37261e-18 5.48202e-18 -2.3905e-18)
(4.53257e-20 4.62488e-20 -2.01673e-20)
(3.58491e-22 3.65792e-22 -1.59506e-22)
(-1.41615e-07 -3.98454e-07 5.33398e-07)
(-2.94573e-09 -1.1572e-08 1.71775e-08)
(-2.1144e-11 -1.84157e-10 3.1055e-10)
(1.91535e-13 -2.09045e-12 4.1488e-12)
(7.89208e-15 -1.84628e-14 4.5602e-14)
(1.37301e-16 -1.28335e-16 4.36113e-16)
(1.7795e-18 -6.37567e-19 3.75237e-18)
(1.94389e-20 -8.62393e-22 2.96871e-20)
(1.88754e-22 2.89005e-23 2.19224e-22)
(1.67802e-24 4.84607e-25 1.52717e-24)
(-4.67776e-10 -1.316e-09 1.75509e-09)
(-1.43532e-11 -4.64747e-11 6.5071e-11)
(-2.31023e-13 -9.07056e-13 1.34008e-12)
(-2.46438e-15 -1.28992e-14 2.02286e-14)
(-1.7153e-17 -1.48937e-16 2.49696e-16)
(-3.41887e-20 -1.47664e-18 2.66959e-18)
(1.17898e-21 -1.29902e-20 2.55977e-20)
(2.43591e-23 -1.03463e-22 2.25255e-22)
(3.21135e-25 -7.551e-25 1.84872e-24)
(3.48032e-27 -5.07789e-27 1.43188e-26)
)
;
    }
}


// ************************************************************************* //
