/*--------------------------------*- C++ -*----------------------------------*\
| =========                 |                                                 |
| \\      /  F ield         | OpenFOAM: The Open Source CFD Toolbox           |
|  \\    /   O peration     | Version:  2.4.0                                 |
|   \\  /    A nd           | Web:      www.OpenFOAM.org                      |
|    \\/     M anipulation  |                                                 |
\*---------------------------------------------------------------------------*/
FoamFile
{
    version     2.0;
    format      ascii;
    class       volScalarField;
    location    "0.03";
    object      p;
}
// * * * * * * * * * * * * * * * * * * * * * * * * * * * * * * * * * * * * * //

dimensions      [1 -1 -2 0 0 0 0];

internalField   nonuniform List<scalar> 
200
(
-857.401
679.214
958.081
-556.565
-4840.27
-5795.74
-6488.53
-4405.95
-3239.29
-1071.41
-2643.45
-3243.98
-1939.16
-2218.11
-3236.13
-4878.56
-5473.98
-5001.69
-2821.27
-1310.6
2136.52
313.486
-6092.02
-2221.02
-2093.08
-1539.98
-1692.17
-1575.57
-1312.36
-377.423
16738.4
25030.9
17776.7
4565.49
4336.02
4250.33
2927.23
2079.7
1584.2
9.80112
-8007.67
-7646.65
-5340.76
-7318.94
-5472.46
-8308.16
-7285.64
-7652.39
-3431.61
-911.246
-11078.3
-9436.71
-11932.5
-8275.21
-7954.2
-6129.87
-8152.38
-6712.17
-4398.83
-1307.7
-6815.45
-11740.7
-9904.92
-12059.4
-6693.02
-3343.75
-3443.14
-3315.31
-1928.43
-1705.9
7416.2
3065.85
-7922.33
-1045.99
-2561.44
2194.77
2053.11
1114.64
1891.62
3558.38
-17229.1
-10265.1
-10811
-5295.29
-9113.89
-7352.64
-7705.33
-3546.71
-1607.2
-275.795
-11215.3
-14683.6
-6919.04
-10495.8
-7101.7
-7236.7
-410.394
3689.85
1890.92
-387.272
-4565.32
-1638.2
596.45
3156.43
604.19
6593.86
12670
7764.77
3933.64
5317.85
7962
12692
25323.7
28912.7
24019
22282.7
18930
14148.6
13007
7359.09
-21746.2
-28971.3
-15301.8
-32542.6
-34753.6
-60638.4
-23511.9
-5781.09
549.917
562.495
-13843.9
-10722.5
-13458.8
-11884.5
-30739.1
-21139
-6966.32
1153.02
3185.66
1538.26
-435.934
3869.57
1950.61
-1204.95
1297.04
766.165
4079.53
4092.44
458.662
-9746.11
10151.1
12646.5
15758.4
16223.8
17292.5
15790.9
10821.1
7336.5
7665.66
10385.2
-12051.2
12704
18139.4
36587.2
-21539.6
-39251.4
-79951.2
-25074.1
-13477.1
-7749.17
2387.86
28688.8
42102.9
37118.5
16555.8
-21238
-8035.21
-1391.79
-6021.82
-1224.14
45308.7
42578.7
53664.9
39140.8
19075.4
23848.8
29614.5
39543.3
14750
10254.1
50133.9
52793.2
51062.7
44927.2
31835
13130
18895
14550.3
8993.4
-2042.82
)
;

boundaryField
{
    inlet
    {
        type            zeroGradient;
    }
    outlet
    {
        type            fixedValue;
        value           uniform 0;
    }
    bottom
    {
        type            zeroGradient;
    }
    top
    {
        type            symmetryPlane;
    }
    side1
    {
        type            symmetryPlane;
    }
    side2
    {
        type            symmetryPlane;
    }
    procBoundary31to23
    {
        type            processor;
        value           nonuniform List<scalar> 
50
(
3986.86
4924.93
5172.64
1505.54
-105.408
-4059.59
-2705.99
-3026.55
-1604.96
-442.213
-3395.23
-542.181
-1940.42
-332.238
-5052.33
-2181.61
-5627.56
-3628.5
-1652.6
-17.9449
-9586.65
-8381.32
-3743.41
-6466.58
-1591.31
-8247.87
-5281.38
-7534.24
-2188.36
-489.833
-26003.7
-15276.8
-17177.2
-6604.11
-20859.4
-20820.1
-20254.6
-7394.28
-2106.49
-629.955
-9359.65
-8431.68
11293.6
-1483.58
7434.08
-45278
-34755.1
-18564
-9471.51
-4983.28
)
;
    }
    procBoundary31to30
    {
        type            processor;
        value           nonuniform List<scalar> 
20
(
-1674.65
-2924.28
4018.62
13367.3
-10278.5
-8379.42
-3630.4
4089.98
-14183.4
-11985
-6541.1
5719.99
-27371
-16650.7
-1657.87
12884.4
-13078.1
1874.73
26852.5
46312
)
;
    }
}


// ************************************************************************* //
