/*--------------------------------*- C++ -*----------------------------------*\
| =========                 |                                                 |
| \\      /  F ield         | OpenFOAM: The Open Source CFD Toolbox           |
|  \\    /   O peration     | Version:  2.4.0                                 |
|   \\  /    A nd           | Web:      www.OpenFOAM.org                      |
|    \\/     M anipulation  |                                                 |
\*---------------------------------------------------------------------------*/
FoamFile
{
    version     2.0;
    format      ascii;
    class       volVectorField;
    location    "0.03";
    object      Ur;
}
// * * * * * * * * * * * * * * * * * * * * * * * * * * * * * * * * * * * * * //

dimensions      [0 1 -1 0 0 0 0];

internalField   nonuniform List<vector> 
200
(
(-53.2802 61.5471 27.8311)
(5.37351 -55.2087 -64.0357)
(-78.9805 -40.53 36.1976)
(-0.316997 -209.34 -185.056)
(-58.8696 -49.5261 45.1946)
(41.5591 -166.167 -199.705)
(-12.0352 46.4411 35.267)
(49.7531 -25.9551 -141.529)
(36.2597 73.5242 31.2269)
(31.6705 -4.11313 -102.231)
(5.14492 40.1393 24.0889)
(-73.0377 90.2409 41.6716)
(9.32558 -24.5225 -3.59192)
(-103.673 33.4191 46.9879)
(-15.7838 -142.582 -176.168)
(-102.399 54.8386 44.3515)
(-37.8242 -77.8045 -144.517)
(-78.0312 96.6595 32.8424)
(-55.8948 -14.3678 -82.4822)
(-64.0947 84.1167 39.1366)
(-79.3393 151.589 36.8531)
(15.0477 -9.45376 107.612)
(-106.126 218.043 70.0283)
(11.8874 22.1565 29.0353)
(-93.7615 86.3414 56.3681)
(-53.442 10.927 -20.0863)
(-95.2844 70.4263 31.4668)
(-81.2063 25.6795 3.99266)
(-101.928 84.6857 31.3801)
(-90.0881 -15.7764 -17.2509)
(196.995 2.77974 298.631)
(-60.9547 127.208 55.5451)
(366.318 -576.695 1363.78)
(-280.125 96.6452 152.027)
(-113.534 8.44188 88.1411)
(-102.216 26.2155 80.5783)
(-99.0467 10.8604 45.2443)
(-96.2598 43.9922 39.6586)
(-100.617 -56.2501 49.6672)
(-114.588 69.8625 50.6083)
(45.7975 -164.042 -174.525)
(-51.2859 -68.4706 11.4154)
(57.746 -334.981 -270.761)
(-32.3129 -89.3528 38.8666)
(79.1802 -280.512 -272.229)
(10.6433 15.8654 33.2126)
(102.287 -112.353 -178.497)
(51.6746 52.2342 31.1741)
(74.1121 -26.3951 -95.2108)
(69.593 66.1531 38.3724)
(-92.0026 16.6106 9.10319)
(42.5802 -185.318 -182.166)
(-70.4072 -46.8302 28.4141)
(60.987 -309.973 -293.859)
(-59.4232 3.76466 41.3521)
(48.8762 -207.699 -262.345)
(-33.9282 61.3804 41.1034)
(24.6733 -131.132 -165.069)
(-54.4577 56.9848 57.8368)
(-46.0303 -11.7475 -54.7365)
(75.9648 -112.608 -73.5128)
(-111.511 88.1849 37.0592)
(108.882 -290.055 -214.81)
(-83.4534 39.275 62.5594)
(89.3949 -206.814 -205.689)
(-63.8406 71.6735 63.4797)
(-11.3171 -122.823 -94.5441)
(-88.0197 66.7222 60.2696)
(-102.768 2.08475 8.00508)
(-101.663 72.8478 49.6148)
(-40.394 73.9715 83.6593)
(188.427 -339.637 377.112)
(-89.8521 93.7009 2.67012)
(263.56 -421.157 439.789)
(-112.887 25.1801 152.398)
(-23.5132 -37.6787 86.383)
(-83.6179 43.6478 105.063)
(-80.4831 -48.467 66.229)
(-103.371 89.8142 63.911)
(-94.2422 -198.344 31.9153)
(-67.8815 -35.2669 -6.33043)
(116.027 -398.321 -365.592)
(-45.7153 -66.2744 17.9716)
(143.335 -473.414 -436.899)
(-20.3594 -17.9986 4.46725)
(162.268 -303.09 -357.36)
(33.8561 42.6654 -1.80165)
(116.183 -162.335 -235.256)
(-3.16852 68.683 18.963)
(23.867 10.8441 -65.2599)
(141.782 -334.761 -328.532)
(-87.7337 12.7549 18.6112)
(151.883 -450.468 -436.695)
(-76.5576 8.84965 17.4153)
(155.166 -365.603 -398.565)
(-44.3774 36.9648 10.1228)
(124.052 -200.31 -209.215)
(-74.8772 59.6095 5.29804)
(-129.01 18.1353 -17.6183)
(-74.5918 48.4896 34.1499)
(-82.8774 68.0653 58.8527)
(212.901 -370.922 -218.157)
(-95.1943 67.7685 49.0314)
(173.445 -371.755 -241.527)
(-90.3336 83.286 31.7226)
(113.7 -188.175 8.22559)
(-80.4175 81.1531 43.3884)
(-142.141 11.3006 20.6339)
(-158.824 79.2788 18.1135)
(-71.8163 -232.257 102.751)
(208.478 -257.113 255.311)
(-57.5645 75.0314 88.8761)
(189.64 -299.101 56.522)
(-95.7138 85.3468 60.3245)
(295.317 -485.799 320.362)
(-181.388 9.73123 144.22)
(-137.266 -12.1322 68.778)
(-115.792 88.104 34.4967)
(-90.4581 -259.366 110.394)
(-173.288 117.644 26.7274)
(203.218 -488.292 -455.452)
(-88.7498 -12.921 46.0415)
(207.916 -580.626 -513.282)
(-75.5866 -9.20138 41.5012)
(229.272 -470.118 -422.539)
(15.5207 -15.4279 -4.61475)
(119.286 -320.447 -106.652)
(143.472 66.8874 92.7376)
(38.0551 74.1021 2.55399)
(17.1146 28.6718 4.21788)
(-75.2948 45.8343 56.4344)
(279.718 -549.244 -507.061)
(-119.545 48.7272 66.3366)
(245.535 -612.589 -624.041)
(-67.6479 88.0595 25.182)
(136.716 -470.218 -454.911)
(-41.8258 -82.3855 97.2547)
(-148.763 87.4473 468.162)
(-115.891 -10.0854 19.7323)
(-66.0443 -70.0495 -7.11379)
(324.75 -270.408 -162.605)
(-75.0021 64.2224 94.5328)
(248.417 -464.462 -352.388)
(-146.815 73.081 80.6332)
(48.0765 -265.451 -167.933)
(-113.012 67.7854 3.38781)
(-142.035 74.9571 762.48)
(-148.586 -30.8591 132.431)
(-122.497 -99.5452 25.451)
(-141.874 34.0099 -5.44764)
(-3.29047 -13.3518 193.137)
(138.009 -152.724 98.3578)
(-50.373 19.2871 112.341)
(-31.6538 -106.94 86.4446)
(-119.567 75.4578 -13.7011)
(-54.3899 -435.761 1529.33)
(-153.369 -125.045 193.3)
(-148.528 -39.6157 32.2456)
(-159.985 68.0991 -22.1145)
(-90.7116 -347.162 205.172)
(-41.6448 -46.9603 87.8764)
(421.792 -756.712 -673.727)
(-134.456 -9.97397 98.6824)
(329.59 -941.7 -832.932)
(-215.793 -65.7267 84.2872)
(304.006 -1046.85 -889.574)
(-162.665 -164.323 -34.012)
(-291.438 -716.423 -6.2957)
(263.342 300.342 833.667)
(127.615 180.183 64.1394)
(555.189 -704.632 -617.58)
(-77.3063 -77.7259 101.885)
(448.338 -920.094 -801.485)
(-243.409 -27.7732 132.851)
(336.756 -1146.09 -953.78)
(-318.982 -172.922 7.19416)
(-418.577 -353.331 64.7185)
(-151.603 -1085.62 569.65)
(-346.783 41.8045 13.7043)
(-139.072 67.0326 8.1792)
(64.9369 -187.542 103.489)
(518.093 -754.581 -562.724)
(-138.992 -125.725 157.275)
(351.043 -973.076 -704.634)
(-265.717 -181.19 61.1824)
(-381.642 -243.914 80.867)
(-100.789 -337.608 191.473)
(-223.705 32.6604 25.6236)
(-295.949 86.7662 -22.0084)
(-193.438 -96.628 -113.252)
(446.065 -431.094 -51.7861)
(40.3155 -189.438 145.927)
(145.906 -384.046 -95.9102)
(-190.258 -105.82 76.6386)
(-297.731 -13.6282 50.5831)
(-173.392 -168.124 48.1538)
(-172.44 -32.2635 0.292916)
(-222.313 0.826277 -20.9938)
(-224.363 -253.664 -200.927)
(-322.958 120.656 -174.155)
)
;

boundaryField
{
    inlet
    {
        type            calculated;
        value           nonuniform 0();
    }
    outlet
    {
        type            calculated;
        value           nonuniform List<vector> 
20
(
(39.2314 -7.31084 -111.117)
(-56.4847 80.9317 30.228)
(-82.4751 -18.9248 -26.1569)
(-107.024 66.8021 41.7346)
(77.4292 62.9437 29.3499)
(-38.1866 -14.9372 -63.7606)
(-93.8535 69.7083 40.6132)
(-86.5271 -201.371 22.9711)
(31.9396 7.62714 -74.3997)
(-66.5586 45.3092 25.0335)
(-63.8795 -235.348 93.6921)
(-165.543 114.74 17.7821)
(8.43665 40.9755 5.03354)
(-75.1088 -57.3876 -6.06837)
(-151.018 46.7456 -4.35494)
(-99.8824 -334.495 206.28)
(118.681 192.724 65.1021)
(-148.202 79.756 9.25814)
(-202.609 -83.8675 -112.15)
(-332.142 133.328 -173.046)
)
;
    }
    bottom
    {
        type            calculated;
        value           uniform (0 0 0);
    }
    top
    {
        type            symmetryPlane;
    }
    side1
    {
        type            symmetryPlane;
    }
    side2
    {
        type            symmetryPlane;
    }
    procBoundary31to23
    {
        type            processor;
        value           nonuniform List<vector> 
50
(
(-6.81891 -7.02596 -38.8288)
(-46.0843 -41.394 22.0875)
(20.5319 -171.558 -153.699)
(-9.74292 -73.8012 35.4049)
(83.6874 -136.398 -150.521)
(68.9367 13.3896 10.5086)
(113.534 -32.5447 -122.338)
(108.053 55.7736 -0.986055)
(100.778 -10.9939 -137.759)
(77.4543 60.8702 15.88)
(-27.1338 -81.0568 -8.8222)
(58.9632 -251.796 -226.389)
(-5.95411 -99.2392 27.5058)
(93.9452 -280.019 -242.17)
(56.8342 -40.4374 15.38)
(138.17 -120.88 -167.405)
(101.174 41.4062 18.9969)
(146.259 -21.7479 -92.9733)
(90.1928 51.3926 23.8705)
(91.8658 -4.41649 -116.224)
(84.0805 -282.288 -268.083)
(-15.1927 -107.655 5.21503)
(116.715 -440.256 -352.408)
(8.13283 -91.2336 23.7865)
(163.289 -357.441 -326.381)
(62.495 -3.68428 0.149005)
(173.298 -157.346 -202.959)
(93.9788 42.4018 12.7722)
(131.836 -5.87375 -77.2748)
(98.7599 57.1818 22.1667)
(-47.9129 -80.8892 14.8433)
(150.16 -463.864 -371.417)
(-31.7172 -80.2083 44.6939)
(195.784 -508.462 -394.177)
(16.1288 -39.4555 26.6343)
(247.561 -296.858 -274.175)
(116.809 -12.9104 11.0224)
(253.65 -2.57323 -43.4797)
(135.397 57.2122 -12.5598)
(98.504 17.8347 -56.2979)
(288.471 -532.446 -490.514)
(-60.4678 -10.1694 83.8833)
(292.181 -675.071 -586.546)
(-131.155 -47.2078 88.4162)
(266.785 -634.784 -545.095)
(-59.4293 -63.6466 70.0202)
(292.654 -533.036 -362.656)
(42.0596 -227.235 55.6916)
(354.422 332.412 447.926)
(222.422 68.8361 54.2102)
)
;
    }
    procBoundary31to30
    {
        type            processor;
        value           nonuniform List<vector> 
20
(
(-11.1303 57.9234 7.51144)
(-62.7186 120.932 41.6529)
(41.9381 74.3082 104.634)
(95.3453 75.0619 44.9025)
(-61.6862 -33.5802 -21.1133)
(42.4284 -135.902 -188.588)
(-65.0559 97.6974 38.7244)
(137.075 -65.492 297.808)
(85.9712 -256.995 -291.377)
(-74.1626 59.3731 20.2965)
(216.656 -170.151 -18.5392)
(11.6721 34.5547 125.05)
(-81.2281 2.39304 29.7437)
(315.434 -278.774 -250.294)
(-16.9559 101.634 70.6992)
(308.879 -233.501 111.166)
(478.011 -587.167 -582.788)
(64.3693 -131.738 62.6107)
(542.463 -482.815 -254.261)
(212.481 -220.502 99.9665)
)
;
    }
}


// ************************************************************************* //
