/*--------------------------------*- C++ -*----------------------------------*\
| =========                 |                                                 |
| \\      /  F ield         | OpenFOAM: The Open Source CFD Toolbox           |
|  \\    /   O peration     | Version:  2.4.0                                 |
|   \\  /    A nd           | Web:      www.OpenFOAM.org                      |
|    \\/     M anipulation  |                                                 |
\*---------------------------------------------------------------------------*/
FoamFile
{
    version     2.0;
    format      ascii;
    class       surfaceScalarField;
    location    "0.09";
    object      phib;
}
// * * * * * * * * * * * * * * * * * * * * * * * * * * * * * * * * * * * * * //

dimensions      [0 3 -1 0 0 0 0];

internalField   nonuniform List<scalar> 
490
(
5.40029
1.54249
0.11029
3.62568
0.787155
0.287402
3.67959
-1.70705
0.4085
3.98934
-2.42816
0.418796
4.28647
-2.86452
0.479499
3.9462
-2.72543
0.329963
3.88155
-3.01676
0.324127
4.09756
-3.55736
0.349663
4.41632
-3.87226
0.293087
-4.34457
0.338345
4.65747
0.91887
-0.128148
4.4388
0.91988
0.0859415
3.85673
-1.48715
0.362175
3.01936
-1.8974
0.306604
3.48135
-3.64976
0.323246
3.42807
-2.92763
0.255485
3.26207
-3.22345
0.372681
3.66351
-4.29989
0.341086
3.57129
-4.03244
0.252399
-4.3767
0.270515
3.62062
-0.413977
0.3255
4.85088
-0.545138
0.234754
4.44767
-1.37618
0.292242
3.17987
-1.28073
0.651129
2.18184
-3.47064
0.818918
3.16849
-3.97504
0.0607549
2.31124
-2.53244
0.166241
1.66524
-3.84009
0.1862
1.04553
-3.57959
0.166875
-3.47005
0.200462
3.11468
0.222143
2.4548
0.335572
2.03894
0.351336
2.52954
0.301629
0.966202
0.375456
0.153105
0.298901
0.488466
-0.117915
-0.0324197
0.0249649
-0.580332
-0.115029
-0.0650534
4.0361
-0.602094
0.586855
3.67602
-1.09225
0.676759
3.51517
-1.58869
0.654862
3.46121
-2.21484
0.713157
3.06601
-2.22089
0.672152
3.48402
-3.79492
0.741986
4.66435
-4.71198
0.653427
4.25891
-2.88107
0.571575
3.95567
-5.03641
0.469891
-5.00127
0.504109
3.11104
-0.777256
0.48726
2.69207
-1.10049
0.513145
2.71636
-1.87265
0.621842
2.95267
-2.72289
0.578352
3.24318
-2.84614
0.657981
3.11837
-3.89926
0.48464
3.63531
-5.48287
0.626628
3.59087
-2.92292
0.427374
1.37619
-2.92727
0.357945
-4.38978
0.276442
2.64882
-0.777266
0.392153
2.58343
-1.23505
0.43471
2.38435
-1.88581
0.504479
2.67745
-2.95731
0.592446
2.42608
-2.68001
0.904161
1.15518
-2.90784
0.340234
1.16551
-5.38034
0.0533759
1.51355
-3.22969
0.144936
1.49314
-2.95125
0.211256
-3.16864
0.405798
2.02812
0.364938
1.95066
0.349543
1.66064
0.3417
0.662867
0.212723
0.322563
0.147059
0.218135
0.339429
-0.808974
-0.207248
-0.765977
-0.0878249
-0.328427
-0.310861
0.151959
3.6748
-1.25697
0.892702
3.50357
-1.76437
0.838507
3.12664
-2.10172
0.786212
2.91694
-2.37066
0.695347
2.68313
-2.67167
0.713205
2.66628
-2.97304
0.622043
2.58037
-3.18623
0.642549
2.62685
-3.53208
0.516743
2.75941
-4.00849
0.552521
-4.93128
0.448983
3.01102
-1.26692
0.639254
2.71588
-1.60156
0.645483
2.57914
-1.92607
0.582925
2.37914
-2.2102
0.6179
2.35416
-2.53243
0.543717
2.21106
-2.95375
0.608455
2.27283
-3.09055
0.469176
2.43322
-3.79456
0.529463
2.64664
-4.21029
0.346324
-4.88116
0.398733
2.24589
-1.19661
0.516791
2.0861
-1.44763
0.440571
1.89387
-1.75742
0.528067
1.75298
-1.91295
0.436082
1.87048
-2.27722
0.531448
1.63175
-2.73364
0.358853
1.45463
-3.31609
0.456032
1.40888
-3.80357
0.199696
0.944486
-3.83153
0.29689
-3.22312
-0.112484
1.66651
0.319007
1.46397
0.414246
1.24848
0.27525
0.931049
0.3766
0.647409
0.187463
0.584073
0.312412
-0.0930991
0.0607889
-1.60193
0.165894
-1.12949
-0.632673
-0.305855
2.89722
-2.38703
0.610105
2.49794
-2.52022
0.565077
2.39356
-2.76883
0.446632
2.1455
-2.90621
0.469993
2.10551
-3.07039
0.351655
1.97717
-3.22044
0.41611
2.02751
-3.34798
0.288352
1.92999
-3.52458
0.378629
2.02327
-3.68206
0.252974
-3.95664
0.380806
2.63199
-1.81731
0.506744
2.47534
-2.10413
0.386051
2.16995
-2.32401
0.443488
2.05004
-2.47955
0.311155
1.81349
-2.68714
0.397018
1.77212
-2.82788
0.257271
1.56476
-3.03185
0.360406
1.56399
-3.20345
0.2091
1.39222
-3.50174
0.337777
-3.89538
0.161641
2.27661
-1.47654
0.313626
1.96297
-1.74873
0.398804
1.82526
-1.91182
0.253587
1.54779
-2.12611
0.360104
1.45898
-2.26919
0.20231
1.17191
-2.50596
0.323996
1.10261
-2.65749
0.150972
0.7646
-2.96096
0.295218
0.799327
-3.33971
0.100131
-4.11629
0.253997
1.63118
0.355417
1.51512
0.184991
1.21136
0.309141
1.09542
0.123862
0.747659
0.267291
0.62349
0.0810079
0.176276
0.23888
0.0406607
0.0329887
-0.730867
0.20291
-0.0488128
1.88138
-3.17046
1.7883
-3.25594
1.64182
-3.27472
1.65653
-3.35301
1.56691
-3.42317
1.62976
-3.51995
1.59206
-3.61925
1.70117
-3.74668
1.70081
-3.8787
-4.04373
2.16225
-2.50357
1.89507
-2.60271
1.78345
-2.71961
1.5789
-2.83731
1.51673
-2.96398
1.35424
-3.10018
1.33508
-3.23968
1.18776
-3.39027
1.19675
-3.54991
-3.72367
1.85383
-1.92958
1.71983
-2.06991
1.4718
-2.21799
1.34424
-2.34965
1.1042
-2.52164
0.993546
-2.66553
0.741797
-2.83695
0.631098
-2.98435
0.334172
-3.15285
-3.32647
1.49938
1.23848
1.08337
0.809227
0.640524
0.330467
0.1354
-0.243338
-0.48855
)
;

boundaryField
{
    inlet
    {
        type            fixedValue;
        value           nonuniform 0();
    }
    outlet
    {
        type            calculated;
        value           nonuniform 0();
    }
    bottom
    {
        type            fixedValue;
        value           uniform 0;
    }
    top
    {
        type            symmetryPlane;
        value           nonuniform List<scalar> 
40
(
-2.36295e-15
-2.70035e-15
-3.31067e-15
-4.10398e-15
-2.50622e-15
-2.74714e-15
-3.27739e-15
-4.18366e-15
-2.48851e-15
-2.7875e-15
-3.35142e-15
-4.12069e-15
-2.58532e-15
-2.8703e-15
-3.35082e-15
-4.29016e-15
-2.63551e-15
-2.89176e-15
-3.46009e-15
-4.27293e-15
-2.64835e-15
-2.96133e-15
-3.4517e-15
-4.49421e-15
-2.6785e-15
-2.94692e-15
-3.56248e-15
-4.46591e-15
-2.63897e-15
-2.99037e-15
-3.51461e-15
-4.69665e-15
-2.62288e-15
-2.92917e-15
-3.59179e-15
-4.59344e-15
-2.52616e-15
-2.9282e-15
-3.48741e-15
-4.71093e-15
)
;
    }
    side1
    {
        type            symmetryPlane;
        value           nonuniform 0();
    }
    side2
    {
        type            symmetryPlane;
        value           nonuniform 0();
    }
    procBoundary17to9
    {
        type            processor;
        value           nonuniform List<scalar> 
50
(
-0.557676
0.700055
1.24464
1.69961
2.08789
2.73573
2.75729
2.99168
3.26042
3.6664
0.437325
1.06298
1.50317
1.97444
2.42344
2.96488
3.20236
3.06459
5.16284
4.86023
1.48
1.77385
2.3473
2.59817
2.86443
3.10983
3.28302
3.54043
3.7933
4.43455
2.55725
3.19294
3.21279
3.37962
3.47193
3.55471
3.65183
3.76022
3.88832
4.07639
4.01169
3.91409
3.86783
3.80829
3.86445
3.8732
3.9453
4.0162
4.13204
4.23879
)
;
    }
    procBoundary17to16
    {
        type            processor;
        value           nonuniform List<scalar> 
20
(
-6.4954
-3.9057
-2.61327
-3.03159
-4.3479
-3.55128
-2.71547
-2.19075
-4.20368
-3.15307
-2.44084
-1.76558
-2.78484
-3.0692
-2.41421
-1.89677
-2.1125
-2.32239
-2.1142
-1.61614
)
;
    }
    procBoundary17to18
    {
        type            processor;
        value           nonuniform List<scalar> 
20
(
4.75614
3.33291
-0.0615851
-1.33088
3.93094
0.758774
0.0666696
-1.15494
3.31126
2.47423
-0.195267
-1.01541
1.9717
1.56805
0.653761
-1.6799
1.88656
1.03833
0.190964
-0.961824
)
;
    }
    procBoundary17to25
    {
        type            processor;
        value           nonuniform List<scalar> 
50
(
-0.719213
-0.220826
-1.31166
-2.07295
-2.28276
-3.46084
-2.74988
-3.34417
-2.91665
-2.65445
-0.757424
-1.17156
-1.58615
-1.87063
-2.11131
-2.84394
-4.26389
-3.1599
-3.19297
-2.55914
-1.05161
-1.30979
-1.47548
-1.7594
-2.03398
-2.64329
-2.90695
-2.54845
-3.98216
-2.87938
-1.24736
-1.40342
-1.64196
-1.75742
-2.00126
-2.15038
-2.38836
-2.69244
-3.40376
-3.4243
-1.45741
-1.62401
-1.75373
-1.95165
-2.08564
-2.27447
-2.40301
-2.57263
-2.70473
-2.90201
)
;
    }
}


// ************************************************************************* //
