/*--------------------------------*- C++ -*----------------------------------*\
| =========                 |                                                 |
| \\      /  F ield         | OpenFOAM: The Open Source CFD Toolbox           |
|  \\    /   O peration     | Version:  2.4.0                                 |
|   \\  /    A nd           | Web:      www.OpenFOAM.org                      |
|    \\/     M anipulation  |                                                 |
\*---------------------------------------------------------------------------*/
FoamFile
{
    version     2.0;
    format      ascii;
    class       surfaceScalarField;
    location    "0.05";
    object      phia;
}
// * * * * * * * * * * * * * * * * * * * * * * * * * * * * * * * * * * * * * //

dimensions      [0 3 -1 0 0 0 0];

internalField   nonuniform List<scalar> 
490
(
-1.45233e-05
2.5849e-05
1.27836e-05
-1.3299e-05
2.35182e-05
1.25163e-05
-1.22438e-05
2.15293e-05
1.17789e-05
-1.1334e-05
1.9831e-05
1.10042e-05
-1.05455e-05
1.83714e-05
1.02845e-05
-9.85726e-06
1.7107e-05
9.63669e-06
-9.2524e-06
1.6003e-05
9.05809e-06
-8.71713e-06
1.50315e-05
8.54134e-06
-8.24035e-06
1.41706e-05
8.07846e-06
1.34027e-05
7.66217e-06
-1.43205e-05
2.56138e-05
1.41222e-05
-1.30232e-05
2.31052e-05
1.28483e-05
-1.19275e-05
2.10215e-05
1.17694e-05
-1.09954e-05
1.92713e-05
1.08506e-05
-1.01952e-05
1.77842e-05
1.00615e-05
-9.50211e-06
1.65068e-05
9.37755e-06
-8.89653e-06
1.53986e-05
8.77979e-06
-8.36318e-06
1.44286e-05
8.25317e-06
-7.89001e-06
1.35726e-05
7.78586e-06
1.28118e-05
7.36844e-06
-1.4078e-05
2.52517e-05
1.39648e-05
-1.26978e-05
2.25417e-05
1.25983e-05
-1.15584e-05
2.03483e-05
1.14696e-05
-1.06033e-05
1.85382e-05
1.05231e-05
-9.79194e-06
1.70196e-05
9.71874e-06
-9.0944e-06
1.57277e-05
9.02701e-06
-8.48852e-06
1.46156e-05
8.42601e-06
-7.95745e-06
1.36482e-05
7.89909e-06
-7.48817e-06
1.27991e-05
7.43341e-06
1.20478e-05
7.01889e-06
-1.37807e-05
1.377e-05
-1.23026e-05
1.22981e-05
-1.11082e-05
1.11074e-05
-1.01228e-05
1.01245e-05
-9.29597e-06
9.29935e-06
-8.59218e-06
8.59675e-06
-7.98586e-06
7.99127e-06
-7.45805e-06
7.46408e-06
-6.99443e-06
7.00092e-06
6.59079e-06
-1.32892e-05
2.49154e-05
-4.85674e-06
-1.29825e-05
2.34714e-05
-4.50567e-06
-1.22623e-05
2.18182e-05
-4.70604e-06
-1.15067e-05
2.02848e-05
-5.01437e-06
-1.08e-05
1.89182e-05
-5.32497e-06
-1.0159e-05
1.77095e-05
-5.60864e-06
-9.58218e-06
1.66389e-05
-5.8571e-06
-9.06355e-06
1.56865e-05
-6.06828e-06
-8.59611e-06
1.48352e-05
-6.24175e-06
1.40701e-05
-6.37732e-06
-1.45093e-05
2.58924e-05
3.19095e-07
-1.32908e-05
2.35593e-05
4.11117e-06
-1.22508e-05
2.15947e-05
6.89367e-06
-1.13571e-05
1.99245e-05
8.24886e-06
-1.05826e-05
1.84894e-05
8.69636e-06
-9.90562e-06
1.72442e-05
8.68952e-06
-9.30926e-06
1.61541e-05
8.47603e-06
-8.78013e-06
1.51921e-05
8.17658e-06
-8.30757e-06
1.43372e-05
7.84853e-06
1.35724e-05
7.51909e-06
-1.43158e-05
2.56088e-05
7.48915e-06
-1.30286e-05
2.31137e-05
1.01953e-05
-1.19496e-05
2.10538e-05
1.06395e-05
-1.10331e-05
1.9326e-05
1.03295e-05
-1.02452e-05
1.78562e-05
9.81203e-06
-9.56082e-06
1.65911e-05
9.26251e-06
-8.961e-06
1.54908e-05
8.73677e-06
-8.43104e-06
1.45252e-05
8.25108e-06
-7.95943e-06
1.3671e-05
7.80793e-06
1.29101e-05
7.40534e-06
-1.40841e-05
1.39428e-05
-1.27161e-05
1.26025e-05
-1.15872e-05
1.14898e-05
-1.06398e-05
1.0554e-05
-9.83354e-06
9.75675e-06
-9.13906e-06
9.06954e-06
-8.53462e-06
8.47115e-06
-8.0038e-06
7.94545e-06
-7.53392e-06
7.47998e-06
7.0661e-06
9.20297e-06
1.58902e-06
-2.10677e-05
9.19903e-06
4.67685e-06
-2.10587e-05
9.19177e-06
6.73082e-06
-2.10478e-05
9.1796e-06
7.608e-06
-2.10336e-05
9.16062e-06
7.79452e-06
-2.10147e-05
9.13263e-06
7.65963e-06
-2.09894e-05
9.0931e-06
7.39371e-06
-2.09555e-05
9.03925e-06
7.08577e-06
-2.09109e-05
8.96805e-06
6.77664e-06
-2.08527e-05
6.48488e-06
-2.07782e-05
2.08414e-06
1.03346e-05
-1.7852e-05
-3.36841e-06
1.54254e-05
-1.34103e-05
-6.81867e-06
1.76604e-05
-1.00725e-05
-8.45111e-06
1.81499e-05
-8.24001e-06
-9.03367e-06
1.78081e-05
-7.37856e-06
-9.10002e-06
1.71341e-05
-7.023e-06
-8.9276e-06
1.63564e-05
-6.91633e-06
-8.65072e-06
1.55725e-05
-6.93038e-06
-8.33399e-06
1.48222e-05
-7.00177e-06
1.41196e-05
-7.09833e-06
-7.56432e-06
2.08198e-05
-1.094e-05
-1.04963e-05
2.16448e-05
-7.57616e-06
-1.10385e-05
2.08411e-05
-6.58295e-06
-1.07878e-05
1.96218e-05
-6.42717e-06
-1.03051e-05
1.83841e-05
-6.54235e-06
-9.7745e-06
1.7235e-05
-6.73792e-06
-9.25741e-06
1.61957e-05
-6.94538e-06
-8.77376e-06
1.52619e-05
-7.1374e-06
-8.32835e-06
1.44228e-05
-7.30126e-06
1.36662e-05
-7.42895e-06
-1.42621e-05
-4.10316e-07
-1.30222e-05
3.37336e-06
-1.19672e-05
6.36819e-06
-1.10648e-05
7.89504e-06
-1.02859e-05
8.429e-06
-9.60715e-06
8.45758e-06
-9.01067e-06
8.25596e-06
-8.48248e-06
7.95878e-06
-8.01163e-06
7.63016e-06
7.30565e-06
9.20495e-06
-1.78548e-06
-2.10103e-05
9.20493e-06
-1.77256e-06
-2.09974e-05
9.20494e-06
-1.76069e-06
-2.09845e-05
9.20496e-06
-1.74963e-06
-2.09715e-05
9.20499e-06
-1.73918e-06
-2.09586e-05
9.20502e-06
-1.72912e-06
-2.09457e-05
9.20506e-06
-1.71928e-06
-2.09328e-05
9.2051e-06
-1.70946e-06
-2.09199e-05
9.20514e-06
-1.69946e-06
-2.09071e-05
-1.68909e-06
-2.08942e-05
1.12344e-05
-2.08844e-06
-2.15515e-05
1.11183e-05
-2.07668e-06
-2.15086e-05
1.10143e-05
-2.06527e-06
-2.14688e-05
1.09204e-05
-2.05346e-06
-2.14315e-05
1.0835e-05
-2.04032e-06
-2.13963e-05
1.07565e-05
-2.02466e-06
-2.13625e-05
1.06836e-05
-2.00506e-06
-2.13298e-05
1.06152e-05
-1.97977e-06
-2.12977e-05
1.05502e-05
-1.94676e-06
-2.12656e-05
-1.90364e-06
-2.12331e-05
1.2532e-05
8.47307e-07
-2.21695e-05
1.25302e-05
3.91602e-06
-2.21316e-05
1.25262e-05
6.09566e-06
-2.20977e-05
1.25185e-05
7.0655e-06
-2.20656e-05
1.2505e-05
7.28873e-06
-2.20331e-05
1.24827e-05
7.16018e-06
-2.19976e-05
1.24476e-05
6.88843e-06
-2.19559e-05
1.23949e-05
6.5711e-06
-2.19042e-05
1.23183e-05
6.25244e-06
-2.1838e-05
5.95044e-06
-2.17516e-05
3.37865e-06
-1.77348e-05
-2.33346e-06
-1.21099e-05
-6.15221e-06
-6.7173e-06
-8.02774e-06
-2.50849e-06
-8.73104e-06
5.76794e-07
-8.85066e-06
2.73614e-06
-8.69967e-06
4.16675e-06
-8.42844e-06
5.0625e-06
-8.10466e-06
5.59295e-06
5.90379e-06
9.20453e-06
-1.6033e-06
9.20453e-06
-1.60077e-06
9.20453e-06
-1.59825e-06
9.20453e-06
-1.59573e-06
9.20453e-06
-1.59321e-06
9.20453e-06
-1.5907e-06
9.20453e-06
-1.58819e-06
9.20453e-06
-1.58569e-06
9.20453e-06
-1.58319e-06
-1.58069e-06
9.20468e-06
-1.71352e-06
9.20468e-06
-1.70241e-06
9.20468e-06
-1.69299e-06
9.20468e-06
-1.68482e-06
9.20468e-06
-1.67755e-06
9.20469e-06
-1.67095e-06
9.20469e-06
-1.66481e-06
9.2047e-06
-1.65898e-06
9.2047e-06
-1.65329e-06
-1.64763e-06
1.02827e-05
-1.37031e-06
1.018e-05
-5.02705e-07
1.0095e-05
7.66543e-07
1.00233e-05
2.19195e-06
9.96192e-06
3.47187e-06
9.90852e-06
4.42926e-06
9.86139e-06
5.04328e-06
9.81921e-06
5.37815e-06
9.78087e-06
5.51548e-06
5.5212e-06
9.37373e-06
7.16263e-06
4.30359e-06
1.31797e-06
-1.29403e-06
-3.28749e-06
-4.6576e-06
-5.50359e-06
-5.91602e-06
)
;

boundaryField
{
    inlet
    {
        type            calculated;
        value           nonuniform 0();
    }
    outlet
    {
        type            calculated;
        value           nonuniform 0();
    }
    bottom
    {
        type            calculated;
        value           uniform 0;
    }
    top
    {
        type            symmetryPlane;
        value           uniform 0;
    }
    side1
    {
        type            symmetryPlane;
        value           uniform 0;
    }
    side2
    {
        type            symmetryPlane;
        value           nonuniform 0();
    }
    procBoundary2to1
    {
        type            processor;
        value           nonuniform List<scalar> 
20
(
1.59523e-05
1.58696e-05
1.57748e-05
1.56576e-05
1.11903e-05
1.59398e-05
1.58651e-05
1.57746e-05
-9.20487e-06
-7.74978e-06
-5.5454e-08
1.5669e-05
-9.205e-06
-1.13652e-05
-1.25328e-05
-8.87723e-06
-9.20454e-06
-9.20469e-06
-1.04093e-05
-1.07167e-05
)
;
    }
    procBoundary2to3
    {
        type            processor;
        value           nonuniform List<scalar> 
20
(
-7.7908e-06
-7.45182e-06
-7.05712e-06
-6.57538e-06
-8.15192e-06
-7.86847e-06
-7.5255e-06
-7.10779e-06
8.64809e-06
-8.52578e-06
-8.05684e-06
-7.98668e-06
9.20509e-06
1.04702e-05
1.20059e-05
-8.1894e-06
9.20451e-06
9.20469e-06
9.73183e-06
-7.15457e-06
)
;
    }
    procBoundary2to10
    {
        type            processor;
        value           nonuniform List<scalar> 
50
(
2.47914e-05
2.18298e-05
1.94949e-05
1.76065e-05
1.60475e-05
1.47385e-05
1.36238e-05
1.2663e-05
1.18263e-05
1.10911e-05
2.5251e-05
2.25512e-05
2.03673e-05
1.85643e-05
1.70506e-05
1.57617e-05
1.4651e-05
1.36839e-05
1.28342e-05
1.20818e-05
2.55737e-05
2.31157e-05
2.10762e-05
1.93613e-05
1.79001e-05
1.66406e-05
1.55438e-05
1.45802e-05
1.37268e-05
1.29637e-05
1.47587e-05
1.66845e-05
1.78894e-05
1.80269e-05
1.75321e-05
1.67768e-05
1.5951e-05
1.51368e-05
1.43622e-05
1.36182e-05
1.23718e-05
1.22396e-05
1.26081e-05
1.32458e-05
1.38371e-05
1.41893e-05
1.42683e-05
1.41278e-05
1.38387e-05
1.34372e-05
)
;
    }
}


// ************************************************************************* //
