/*--------------------------------*- C++ -*----------------------------------*\
| =========                 |                                                 |
| \\      /  F ield         | OpenFOAM: The Open Source CFD Toolbox           |
|  \\    /   O peration     | Version:  2.4.0                                 |
|   \\  /    A nd           | Web:      www.OpenFOAM.org                      |
|    \\/     M anipulation  |                                                 |
\*---------------------------------------------------------------------------*/
FoamFile
{
    version     2.0;
    format      ascii;
    class       volVectorField;
    location    "0.03";
    object      A_Source;
}
// * * * * * * * * * * * * * * * * * * * * * * * * * * * * * * * * * * * * * //

dimensions      [1 -2 -2 0 0 0 0];

internalField   nonuniform List<vector> 
200
(
(-3.55545e-06 1.4797e-06 2.43229e-07)
(-0.00033702 0.00014026 2.30555e-05)
(-0.0266223 0.0110796 0.00182123)
(-1.57735 0.656456 0.107905)
(-53.4178 22.2312 3.65419)
(-1.6228 0.670598 0.103183)
(-0.126603 0.032479 0.0257373)
(-5.83607 1.24039 1.42699)
(-197.683 42.0159 48.3143)
(-13.0242 3.17081 0.0462796)
(-0.000337002 0.000140253 2.30552e-05)
(-0.035493 0.0147714 0.00242817)
(-3.15409 1.31267 0.21578)
(-213.572 88.884 14.611)
(-8449.78 3516.62 578.072)
(-213.703 88.9121 14.6431)
(-14.822 3.79232 3.06953)
(-790.096 167.918 193.237)
(-31258 6642.94 7645.16)
(-790.121 167.919 193.223)
(-3.5554e-06 1.47968e-06 2.43234e-07)
(-0.000337015 0.000140258 2.30561e-05)
(-0.026622 0.0110795 0.00182128)
(-1.57732 0.656447 0.107909)
(-53.4163 22.2307 3.65435)
(-1.57857 0.656712 0.108213)
(-0.125104 0.0320091 0.0259082)
(-5.83528 1.24018 1.42715)
(-197.602 41.9942 48.3299)
(-5.83523 1.24011 1.42707)
(-2.06312e-08 8.58615e-09 1.41143e-09)
(-1.77787e-06 7.39907e-07 1.21629e-07)
(-0.000126399 5.26044e-05 8.64728e-06)
(-0.00665716 0.00277057 0.000455434)
(-0.197289 0.0821074 0.0134971)
(-0.00666431 0.00277351 0.000457079)
(-0.000621053 0.000225206 0.000124804)
(-0.0253418 0.00716415 0.00607064)
(-0.729852 0.155175 0.178504)
(-0.0246283 0.00523554 0.00602313)
(-3.52767e-08 1.26016e-08 -1.07748e-09)
(-3.42853e-06 1.21544e-06 -1.37337e-07)
(-0.000291633 0.000101622 -1.52128e-05)
(-0.0204499 0.00695015 -0.00137982)
(-1.0583 0.347935 -0.0923091)
(-30.6457 9.62013 -3.48361)
(-0.904879 0.284012 -0.10274)
(-0.0344674 0.00887233 0.00296152)
(-0.56974 0.121117 0.139147)
(-0.0431839 0.0105198 0.000151856)
(-1.38602e-06 5.76807e-07 9.47778e-08)
(-0.000131407 5.46863e-05 8.98559e-06)
(-0.0103825 0.00432075 0.000709921)
(-0.615294 0.256057 0.0420675)
(-20.8438 8.67397 1.42459)
(-0.841876 0.327132 0.0164782)
(-0.0564116 0.0148764 0.00923446)
(-2.27588 0.483714 0.556565)
(-77.0788 16.3807 18.8521)
(-2.27583 0.483671 0.55653)
(-1.60803e-08 6.69205e-09 1.0998e-09)
(-1.386e-06 5.76803e-07 9.47923e-08)
(-9.85594e-05 4.10171e-05 6.74056e-06)
(-0.00519211 0.00216077 0.000355067)
(-0.153916 0.0640528 0.0105232)
(-0.00615157 0.00246258 0.000247894)
(-0.000522373 0.000192219 9.3315e-05)
(-0.019814 0.00572577 0.00473728)
(-0.569266 0.121038 0.139228)
(-0.0192067 0.00408383 0.00469727)
(-1.01285e-10 4.36969e-11 6.81528e-12)
(-8.04307e-09 3.35201e-09 5.50116e-10)
(-5.20059e-07 2.16954e-07 3.5569e-08)
(-2.46699e-05 1.03184e-05 1.68715e-06)
(-0.000651498 0.000275577 4.45434e-05)
(-0.000165964 0.000385263 1.0513e-05)
(-0.0072879 0.0197093 0.000483297)
(-0.216084 0.584336 0.0143364)
(-0.00969115 0.0202229 0.00107223)
(-0.000319338 0.000491255 7.98652e-05)
(-4.23653e-06 1.30418e-06 -4.80507e-07)
(-0.000495839 0.000155034 -5.63502e-05)
(-0.0520762 0.0163466 -0.00592128)
(-4.62966 1.45324 -0.526413)
(-313.615 98.4429 -35.6595)
(-12412.9 3896.39 -1411.41)
(-313.615 98.4428 -35.6595)
(-4.6297 1.45325 -0.526405)
(-0.0540969 0.0168313 -0.00569351)
(-0.0847599 0.0223647 -0.000172164)
(-5.16631e-08 1.64783e-08 -5.30007e-09)
(-5.48613e-06 1.74846e-06 -5.74478e-07)
(-0.00051351 0.000163157 -5.48855e-05)
(-0.0400738 0.0126827 -0.00437203)
(-2.34528 0.739248 -0.261198)
(-78.4393 24.622 -8.91874)
(-2.31533 0.72677 -0.263235)
(-0.0428095 0.0130578 -0.00352448)
(-0.111623 0.0237725 0.0271227)
(-0.00411225 0.000895467 0.000917455)
(-3.46081e-10 1.126e-10 -3.21136e-11)
(-3.33782e-08 1.07957e-08 -3.22361e-09)
(-2.80929e-06 9.02576e-07 -2.8248e-07)
(-0.000195 6.2194e-05 -2.04204e-05)
(-0.0100211 0.00317153 -0.00109328)
(-0.289596 0.0909044 -0.0329267)
(-0.00976863 0.00306652 -0.00111041)
(-0.000223777 7.2452e-05 -1.19275e-05)
(-0.000966802 0.000228918 0.000243196)
(-0.00072736 0.000759464 0.00038032)
(6.58582e-12 9.81402e-12 7.65671e-13)
(-1.47248e-10 4.84875e-11 -1.31245e-11)
(-1.12574e-08 3.65694e-09 -1.06543e-09)
(-7.02574e-07 2.25992e-07 -7.06245e-08)
(-3.2119e-05 1.02263e-05 -3.43123e-06)
(-0.000815239 0.000257275 -9.25792e-05)
(-5.86629e-05 8.35835e-05 -1.32651e-06)
(-0.000765264 0.00198347 7.53483e-05)
(-0.00279208 0.00307836 0.00148836)
(-0.0818292 0.0890544 0.0440442)
(-1.91983e-08 5.91e-09 -2.17749e-09)
(-2.0427e-06 6.38688e-07 -2.32146e-07)
(-0.000193086 6.06089e-05 -2.19547e-05)
(-0.0152586 0.00478963 -0.00173497)
(-0.904416 0.283894 -0.102836)
(-30.6405 9.61796 -3.48397)
(-0.904416 0.283894 -0.102836)
(-0.0152587 0.00478965 -0.00173496)
(-0.00019898 6.22981e-05 -2.15508e-05)
(-0.000324954 9.03669e-05 2.33904e-06)
(-2.45044e-10 7.7165e-11 -2.69076e-11)
(-2.40438e-08 7.58316e-09 -2.65923e-09)
(-2.06268e-06 6.50168e-07 -2.29727e-07)
(-0.000146082 4.59827e-05 -1.63821e-05)
(-0.00766398 0.00240908 -0.00086542)
(-0.226242 0.0710169 -0.0257246)
(-0.00763111 0.0023954 -0.00086764)
(-0.000150878 4.79873e-05 -1.45743e-05)
(-0.000191284 9.96551e-05 6.56956e-05)
(-0.00177521 0.00192662 0.000951879)
(2.5035e-12 5.26851e-12 2.81468e-13)
(-1.54558e-10 4.91379e-11 -1.66321e-11)
(-1.2118e-08 3.83509e-09 -1.32204e-09)
(-7.76948e-07 2.45235e-07 -8.59344e-08)
(-3.65323e-05 1.14998e-05 -4.09654e-06)
(-0.000954678 0.000299706 -0.000108521)
(-3.99956e-05 1.54786e-05 -2.09049e-06)
(-0.000269289 0.000292437 0.000144152)
(-0.0141436 0.0153913 0.00760093)
(-0.419177 0.456185 0.225374)
(1.67625e-09 1.8796e-09 1.84187e-10)
(2.72895e-11 3.16722e-11 3.01336e-12)
(-5.36962e-11 1.94031e-11 -4.247e-12)
(-3.32613e-09 1.2816e-09 -1.71904e-10)
(-1.64055e-07 7.88542e-08 4.44568e-09)
(-6.79781e-06 5.06047e-06 1.6839e-06)
(-0.000358112 0.00038972 0.000192274)
(-0.0282806 0.0307796 0.0151984)
(-1.67582 1.82377 0.901016)
(-56.7598 61.771 30.53)
(-4.75396e-11 1.46342e-11 -5.37276e-12)
(-4.63608e-09 1.44954e-09 -5.25142e-10)
(-3.98336e-07 1.25036e-07 -4.5156e-08)
(-2.83273e-05 8.89186e-06 -3.21211e-06)
(-0.00149233 0.000468438 -0.000169266)
(-0.0442377 0.0138861 -0.00501899)
(-0.00149235 0.000468459 -0.000169256)
(-2.95385e-05 1.02099e-05 -2.5647e-06)
(-5.78174e-05 6.26039e-05 3.06686e-05)
(-0.00151305 0.00164608 0.000809799)
(-6.50003e-13 2.0402e-13 -7.23296e-14)
(-5.90207e-11 1.85633e-11 -6.59435e-12)
(-4.65157e-09 1.46319e-09 -5.21696e-10)
(-3.00086e-07 9.43318e-08 -3.37804e-08)
(-1.41987e-05 4.4605e-06 -1.6041e-06)
(-0.000373422 0.00011726 -4.23184e-05)
(-1.90111e-05 9.71826e-06 9.82695e-07)
(-0.00034465 0.000374843 0.000184195)
(-0.0181358 0.0197368 0.00971072)
(-0.537427 0.584875 0.288001)
(1.70052e-14 2.66872e-14 2.05525e-15)
(-4.51052e-13 1.76875e-13 -2.14527e-14)
(-3.55698e-11 1.58098e-11 -1.15489e-13)
(-2.50737e-09 1.37631e-09 2.09619e-10)
(-1.64973e-07 1.21454e-07 3.95822e-08)
(-1.14588e-05 1.10977e-05 4.97687e-06)
(-0.000918213 0.000999222 0.000491202)
(-0.0725263 0.0789294 0.038834)
(-4.29702 4.67639 2.30273)
(-145.512 158.359 78.0425)
(8.19249e-12 9.22885e-12 9.07905e-13)
(-2.82755e-12 3.40416e-12 1.60202e-12)
(-4.33843e-10 4.72045e-10 2.3145e-10)
(-5.99584e-08 6.52462e-08 3.20206e-08)
(-7.74915e-06 8.43308e-06 4.14225e-06)
(-0.000918114 0.000999167 0.000491194)
(-0.0966944 0.105231 0.0517748)
(-8.59272 9.35135 4.60475)
(-581.827 633.195 312.052)
(-23018.5 25050.7 12355.7)
)
;

boundaryField
{
    inlet
    {
        type            zeroGradient;
    }
    outlet
    {
        type            zeroGradient;
    }
    bottom
    {
        type            zeroGradient;
    }
    top
    {
        type            symmetryPlane;
    }
    side1
    {
        type            symmetryPlane;
    }
    side2
    {
        type            symmetryPlane;
    }
    procBoundary13to5
    {
        type            processor;
        value           nonuniform List<vector> 
50
(
(-2.08684e-08 8.56961e-09 1.38869e-09)
(-1.78304e-06 7.39566e-07 1.21134e-07)
(-0.000126404 5.26057e-05 8.64681e-06)
(-0.00665746 0.00277065 0.000455405)
(-0.197302 0.0821113 0.0134957)
(-0.00699053 0.00287421 0.000419766)
(-0.000634261 0.00014897 0.000112566)
(-0.0253645 0.00505265 0.005785)
(-0.730586 0.155272 0.178374)
(-0.0791263 0.0193495 -0.00392728)
(-1.04604e-07 -7.26165e-09 -9.99995e-09)
(-2.50302e-06 -1.64891e-07 -2.38656e-07)
(-2.4544e-06 7.83472e-07 -1.8254e-07)
(-0.000153202 5.06089e-05 -1.29315e-05)
(-0.00731575 0.00236281 -0.000713562)
(-0.193584 0.0607677 -0.0220069)
(-0.00666892 0.00209314 -0.000757523)
(-0.000227484 6.03826e-05 6.79032e-06)
(-0.00288378 0.00063742 0.000586186)
(-0.0379431 0.00999673 -6.71738e-05)
(-2.53483e-05 -1.77616e-06 -2.42714e-06)
(-0.000671465 -4.57201e-05 -6.43571e-05)
(-0.000464036 0.000135926 -5.23078e-05)
(-0.034123 0.0107109 -0.00387993)
(-1.98074 0.621748 -0.225219)
(-65.2183 20.4719 -7.41563)
(-1.98075 0.62175 -0.225219)
(-0.0353421 0.0110324 -0.00388152)
(-0.12893 0.0340094 -0.000226231)
(-11.4227 3.01118 -0.0157747)
(-1.04503e-07 -7.30406e-09 -1.0007e-08)
(-2.49497e-06 -1.68237e-07 -2.39206e-07)
(-1.93461e-06 5.67141e-07 -2.18097e-07)
(-0.000128557 4.0352e-05 -1.46174e-05)
(-0.00666632 0.00209253 -0.000757992)
(-0.193559 0.0607575 -0.0220086)
(-0.00666636 0.00209254 -0.000757992)
(-0.000133579 4.16771e-05 -1.46241e-05)
(-0.000478229 0.000126158 -8.64126e-07)
(-0.0376472 0.00992432 -5.19833e-05)
(-2.37358e-10 -1.65456e-11 -2.26558e-11)
(-5.1591e-09 -3.4419e-10 -4.93296e-10)
(-4.43067e-09 1.29962e-09 -4.97866e-10)
(-2.68588e-07 8.4303e-08 -3.04463e-08)
(-1.25757e-05 3.94743e-06 -1.42595e-06)
(-0.00032618 0.000102387 -3.69952e-05)
(-1.2576e-05 3.94758e-06 -1.42592e-06)
(-2.83484e-07 9.11324e-08 -2.85841e-08)
(-1.13845e-06 4.25194e-07 7.91258e-08)
(-7.34821e-05 2.23321e-05 1.82497e-06)
)
;
    }
    procBoundary13to12
    {
        type            processor;
        value           nonuniform List<vector> 
20
(
(-3.30081e-08 1.37371e-08 2.25809e-09)
(-2.8443e-06 1.18373e-06 1.94586e-07)
(-3.30073e-08 1.37362e-08 2.25809e-09)
(-2.0822e-10 8.76591e-11 1.41651e-11)
(-3.29717e-10 1.1726e-10 -7.70625e-12)
(-1.28649e-08 5.35358e-09 8.79712e-10)
(-1.62134e-10 6.86509e-11 1.09961e-11)
(5.80644e-11 1.63787e-10 -1.85642e-11)
(-3.37818e-08 1.00139e-08 -3.81347e-09)
(-4.43631e-10 1.41007e-10 -4.45981e-11)
(-2.39169e-12 1.99858e-12 -1.97064e-13)
(3.30649e-10 3.71402e-10 3.61984e-11)
(-1.66969e-10 4.95027e-11 -1.88488e-11)
(-1.89856e-12 1.10589e-12 -2.066e-13)
(1.69123e-10 1.89708e-10 1.85842e-11)
(7.28915e-08 8.17563e-08 8.00974e-09)
(-4.46533e-13 1.32386e-13 -5.02147e-14)
(-4.48906e-15 4.12906e-15 -5.00155e-16)
(8.36074e-13 9.37728e-13 9.13813e-14)
(3.30892e-10 3.71119e-10 3.61808e-11)
)
;
    }
    procBoundary13to14
    {
        type            processor;
        value           nonuniform List<vector> 
20
(
(-486.902 130.759 -93.4767)
(-15.2631 3.4452 2.1632)
(-0.113656 0.0250044 0.0211724)
(-0.000515626 0.000112296 0.000105138)
(-1.41895 0.380978 -0.269243)
(-0.0503022 0.0113569 0.0071191)
(-0.000420985 9.26731e-05 7.83914e-05)
(-7.08403e-06 8.99058e-06 2.19063e-06)
(-4.88933 1.28891 -0.00719265)
(-0.0180994 0.00476784 -1.16119e-05)
(-7.46779e-05 3.88325e-05 1.26054e-05)
(-0.00241176 0.00262459 0.00129765)
(-0.0164506 0.00433679 -2.31484e-05)
(-0.00012923 8.30004e-05 3.20078e-05)
(-0.012355 0.0134455 0.00663951)
(-1.43373 1.56031 0.770802)
(-8.1989e-05 6.36372e-05 2.7217e-05)
(-0.0158439 0.0172425 0.00848247)
(-3.6764 4.00098 1.96987)
(-483.788 526.501 259.427)
)
;
    }
    procBoundary13to21
    {
        type            processor;
        value           nonuniform List<vector> 
50
(
(-8.67101e-11 3.67581e-11 5.88461e-12)
(-6.8754e-09 2.86492e-09 4.70354e-10)
(-4.44737e-07 1.8549e-07 3.0425e-08)
(-2.10908e-05 8.81778e-06 1.44284e-06)
(-0.000556728 0.000235182 3.8084e-05)
(-0.000129344 0.000301609 8.62144e-06)
(-0.00570433 0.0154266 0.000378325)
(-0.169101 0.457269 0.0112204)
(-0.0077561 0.0158625 0.00088023)
(-0.000186203 0.000309401 2.62395e-05)
(4.01012e-11 1.15317e-10 -1.07811e-11)
(-3.37821e-10 8.38301e-10 2.2417e-11)
(-3.80868e-08 9.84361e-08 2.52832e-09)
(-3.97435e-06 1.05533e-05 2.63568e-07)
(-0.000370719 0.000998185 2.45722e-05)
(-0.029134 0.0788148 0.00193073)
(-1.72686 4.6716 0.11444)
(-58.5044 158.27 3.87714)
(-1.72686 4.6716 0.114442)
(-0.0291349 0.0788156 0.00193121)
(2.64185e-09 2.9635e-09 2.90221e-10)
(4.23303e-11 5.44762e-11 4.95235e-12)
(-2.14495e-10 4.95211e-10 8.61036e-12)
(-1.97025e-08 4.83345e-08 9.66217e-10)
(-1.60452e-06 4.13606e-06 9.16752e-08)
(-0.000109957 0.000292838 6.93902e-06)
(-0.00569178 0.0153975 0.000377188)
(-0.168746 0.456501 0.0111832)
(-0.00571497 0.0154228 0.000389711)
(-0.000711338 0.000948808 0.00033179)
(5.82919e-07 6.53817e-07 6.40547e-08)
(9.00956e-09 1.01048e-08 9.90015e-10)
(1.12983e-10 1.28868e-10 1.25206e-11)
(-5.56931e-11 1.26329e-10 3.98964e-12)
(-4.22329e-09 9.87037e-09 4.04428e-10)
(-2.70267e-07 6.47766e-07 3.5191e-08)
(-1.39466e-05 3.22409e-05 2.5216e-06)
(-0.000516443 0.00101178 0.000146448)
(-0.0123654 0.0134741 0.00664023)
(-0.358626 0.390287 0.192804)
(2.64661e-09 2.96835e-09 2.89389e-10)
(4.44868e-11 4.99821e-11 4.88844e-12)
(-4.87906e-12 6.65413e-12 2.99135e-12)
(-6.95116e-10 7.56602e-10 3.70897e-10)
(-8.16667e-08 8.88846e-08 4.36134e-08)
(-8.70723e-06 9.47643e-06 4.65399e-06)
(-0.000815017 0.000886991 0.000435987)
(-0.0633612 0.0689554 0.0339224)
(-3.67641 4.00099 1.96988)
(-120.994 131.677 64.8822)
)
;
    }
}


// ************************************************************************* //
