/*--------------------------------*- C++ -*----------------------------------*\
| =========                 |                                                 |
| \\      /  F ield         | OpenFOAM: The Open Source CFD Toolbox           |
|  \\    /   O peration     | Version:  2.4.0                                 |
|   \\  /    A nd           | Web:      www.OpenFOAM.org                      |
|    \\/     M anipulation  |                                                 |
\*---------------------------------------------------------------------------*/
FoamFile
{
    version     2.0;
    format      ascii;
    class       volScalarField;
    location    "0.03";
    object      alpha;
}
// * * * * * * * * * * * * * * * * * * * * * * * * * * * * * * * * * * * * * //

dimensions      [0 0 0 0 0 0 0];

internalField   nonuniform List<scalar> 
200
(
6.49932e-13
6.16068e-11
4.86653e-09
2.88337e-07
9.76458e-06
2.93886e-07
9.91874e-09
2.8846e-07
9.77088e-06
8.649e-07
6.1604e-11
6.4881e-09
5.76567e-07
3.90393e-05
0.00154223
3.90459e-05
1.15314e-06
3.90458e-05
0.00154223
3.90442e-05
6.49927e-13
6.16063e-11
4.86649e-09
2.88333e-07
9.7644e-06
2.88395e-07
9.733e-09
2.88395e-07
9.7644e-06
2.88357e-07
3.77136e-15
3.24994e-13
2.31057e-11
1.21693e-09
3.60643e-08
1.21735e-09
5.07164e-11
1.33597e-09
3.60688e-08
1.21711e-09
5.33064e-15
5.07071e-13
4.19819e-11
2.843e-09
1.40393e-07
3.8043e-06
1.123e-07
2.84352e-09
2.81774e-08
2.86474e-09
2.53351e-13
2.40198e-11
1.89779e-09
1.12467e-07
3.80978e-06
1.40556e-07
4.74231e-09
1.12491e-07
3.80883e-06
1.12467e-07
2.93938e-15
2.53351e-13
1.80159e-11
9.49071e-10
2.81337e-08
1.06781e-09
4.4361e-11
1.05044e-09
2.8133e-08
9.49209e-10
1.90019e-17
1.4702e-15
9.50599e-14
4.50911e-12
1.19054e-10
2.78924e-11
1.21264e-09
3.59505e-08
1.33138e-09
3.35488e-11
5.27739e-13
6.15923e-11
6.46418e-09
5.74674e-07
3.89271e-05
0.00153843
3.89271e-05
5.74675e-07
6.57188e-09
4.91485e-09
6.60129e-15
6.96948e-13
6.48698e-11
5.03375e-09
2.92877e-07
9.7365e-06
2.87393e-07
5.0338e-09
5.55286e-09
2.09157e-10
4.53031e-17
4.32747e-15
3.60616e-13
2.47695e-11
1.25878e-09
3.59476e-08
1.21252e-09
2.51821e-11
4.84443e-11
4.81889e-11
1.37095e-18
1.94824e-17
1.46647e-15
9.01908e-14
4.05786e-12
1.01221e-10
8.38195e-12
1.22102e-10
1.89958e-10
5.49127e-09
2.39151e-15
2.5374e-13
2.39676e-11
1.89403e-09
1.12264e-07
3.80335e-06
1.12264e-07
1.89403e-09
2.42925e-11
1.86141e-11
3.0744e-17
3.00891e-15
2.57587e-13
1.82064e-11
9.53253e-10
2.80831e-08
9.47231e-10
1.83014e-11
1.07922e-11
1.19042e-10
8.01293e-19
1.95088e-17
1.52215e-15
9.72159e-14
4.55304e-12
1.18501e-10
4.74921e-12
1.81124e-11
9.49034e-10
2.81292e-08
2.32614e-16
3.98123e-18
6.74725e-18
4.00512e-16
1.84633e-14
6.28556e-13
2.40419e-11
1.89776e-09
1.12449e-07
3.80883e-06
5.92193e-18
5.75886e-16
4.94452e-14
3.51625e-12
1.85241e-10
5.49117e-09
1.85243e-10
3.59751e-12
3.90223e-12
1.01528e-10
8.11603e-20
7.35678e-18
5.79145e-16
3.73247e-14
1.76422e-12
4.63491e-11
2.08359e-12
2.3143e-11
1.21693e-09
3.60643e-08
3.69902e-21
5.40025e-20
4.09822e-18
2.68831e-16
1.53684e-14
8.69963e-13
6.16155e-11
4.86648e-09
2.88333e-07
9.76439e-06
1.14088e-18
2.20452e-19
2.91186e-17
4.02355e-15
5.19975e-13
6.16047e-11
6.4881e-09
5.76567e-07
3.90393e-05
0.00154223
)
;

boundaryField
{
    inlet
    {
        type            zeroGradient;
    }
    outlet
    {
        type            zeroGradient;
    }
    bottom
    {
        type            fixedValue;
        value           uniform 0;
    }
    top
    {
        type            symmetryPlane;
    }
    side1
    {
        type            symmetryPlane;
    }
    side2
    {
        type            symmetryPlane;
    }
    procBoundary13to5
    {
        type            processor;
        value           nonuniform List<scalar> 
50
(
3.80742e-15
3.25779e-13
2.31064e-11
1.21697e-09
3.60662e-08
1.26368e-09
5.18397e-11
1.31976e-09
3.61342e-08
6.21594e-09
1.59002e-14
3.80398e-13
3.63627e-13
2.24828e-11
1.06594e-09
2.80874e-08
9.47431e-10
2.31167e-11
1.43222e-10
1.91703e-09
3.85247e-12
1.02003e-10
6.52004e-11
4.84861e-09
2.87387e-07
9.73631e-06
2.87387e-07
4.90988e-09
6.5257e-09
5.74672e-07
1.58816e-14
3.78928e-13
2.6861e-13
1.79778e-11
9.47224e-10
2.80829e-08
9.47225e-10
1.82303e-11
2.42202e-11
1.89403e-09
3.60701e-17
7.83347e-16
6.09303e-16
3.70898e-14
1.75859e-12
4.63452e-11
1.7586e-12
3.78974e-14
6.01804e-14
3.75719e-12
)
;
    }
    procBoundary13to12
    {
        type            processor;
        value           nonuniform List<scalar> 
20
(
6.03384e-15
5.19938e-13
6.03368e-15
3.8392e-17
5.06879e-17
2.35156e-15
3.00519e-17
5.09699e-17
4.2361e-15
5.70353e-17
5.44635e-19
4.6118e-17
2.09364e-17
3.33344e-19
2.34744e-17
1.01155e-14
5.59908e-20
1.0645e-21
1.16038e-19
4.59193e-17
)
;
    }
    procBoundary13to14
    {
        type            processor;
        value           nonuniform List<scalar> 
20
(
3.90442e-05
8.649e-07
6.0834e-09
2.69594e-11
1.13414e-07
2.85101e-09
2.25388e-11
6.61833e-13
2.8757e-07
1.21771e-09
5.64131e-12
1.85253e-10
9.47459e-10
9.01191e-12
9.4899e-10
1.12449e-07
5.61093e-12
1.21693e-09
2.88333e-07
3.90393e-05
)
;
    }
    procBoundary13to21
    {
        type            processor;
        value           nonuniform List<scalar> 
50
(
1.6045e-17
1.25678e-15
8.12941e-14
3.85509e-12
1.01745e-10
2.18679e-11
9.49138e-10
2.8133e-08
1.05047e-09
2.18668e-11
3.03335e-17
5.70506e-17
6.37136e-15
6.62837e-13
6.17293e-11
4.84852e-09
2.87386e-07
9.73631e-06
2.87387e-07
4.84858e-09
3.66757e-16
6.51585e-18
3.4618e-17
3.20226e-15
2.63649e-13
1.82175e-11
9.47231e-10
2.80829e-08
9.48979e-10
6.43219e-11
8.08948e-14
1.25029e-15
1.58788e-17
8.90832e-18
6.49499e-16
4.09607e-14
2.00955e-12
6.43024e-11
9.50732e-10
2.8129e-08
3.67281e-16
6.18212e-18
4.83679e-19
5.09424e-17
6.03491e-15
6.49988e-13
6.16089e-11
4.86656e-09
2.88334e-07
9.7644e-06
)
;
    }
}


// ************************************************************************* //
