/*--------------------------------*- C++ -*----------------------------------*\
| =========                 |                                                 |
| \\      /  F ield         | OpenFOAM: The Open Source CFD Toolbox           |
|  \\    /   O peration     | Version:  2.4.0                                 |
|   \\  /    A nd           | Web:      www.OpenFOAM.org                      |
|    \\/     M anipulation  |                                                 |
\*---------------------------------------------------------------------------*/
FoamFile
{
    version     2.0;
    format      ascii;
    class       surfaceScalarField;
    location    "0.03";
    object      phib;
}
// * * * * * * * * * * * * * * * * * * * * * * * * * * * * * * * * * * * * * //

dimensions      [0 3 -1 0 0 0 0];

internalField   nonuniform List<scalar> 
490
(
7.19284e-05
-3.22353e-05
1.56224e-06
8.55777e-05
-3.23257e-05
-1.03755e-06
9.63488e-05
-2.3793e-05
2.20399e-06
0.000101174
-2.12215e-05
2.95491e-06
0.000105758
-2.1885e-05
3.71344e-06
0.000112018
-2.21748e-05
1.27316e-07
0.000117499
-2.24669e-05
3.11558e-07
0.000127265
-2.0954e-05
-4.75544e-06
0.000139821
-2.04885e-05
-3.44062e-06
-8.68135e-06
-2.53541e-05
6.68451e-05
-3.49904e-05
-2.06875e-06
7.14929e-05
-3.61631e-05
-8.10408e-07
8.12854e-05
-3.23647e-05
-1.22088e-06
8.99684e-05
-3.02205e-05
3.16097e-07
9.85776e-05
-2.78072e-05
-2.68706e-06
0.000104765
-2.72334e-05
-1.1293e-06
0.000112649
-2.54579e-05
-4.89264e-06
0.000119814
-2.54887e-05
-2.6304e-06
0.000131592
-2.19475e-05
-1.03161e-05
-2.42978e-05
-5.78562e-06
6.102e-05
-3.9165e-05
-2.93854e-06
6.83241e-05
-3.87155e-05
-4.75274e-06
7.64157e-05
-3.78094e-05
-2.64682e-06
8.51405e-05
-3.4393e-05
-4.55231e-06
9.4043e-05
-3.40961e-05
-2.61368e-06
0.000104351
-3.03867e-05
-7.15501e-06
0.000111727
-2.99956e-05
-2.8374e-06
0.000120746
-2.72359e-05
-7.2724e-06
0.000129249
-2.79775e-05
-2.47243e-06
-2.14527e-05
-1.41832e-05
5.80624e-05
-4.89372e-06
6.65816e-05
-6.30095e-06
7.45309e-05
-6.0761e-06
8.38756e-05
-4.0328e-06
9.41581e-05
-6.06148e-06
0.000101236
1.85631e-06
0.000115343
-9.24955e-06
0.00012273
-5.65209e-07
0.000136205
-8.87162e-06
5.49294e-08
8.94979e-05
-3.30676e-05
-1.47557e-06
8.91051e-05
-3.22589e-05
-5.22391e-07
9.74337e-05
-2.39071e-05
2.09932e-06
0.000105763
-2.11682e-05
4.07333e-06
0.000114715
-2.02276e-05
8.18345e-07
0.000120181
-2.16972e-05
1.03799e-06
0.000128855
-2.20375e-05
-3.09465e-06
0.000132601
-2.39479e-05
-2.31953e-06
0.000140228
-2.35444e-05
-6.13997e-06
-2.48216e-05
-4.23537e-06
8.33555e-05
-3.9177e-05
-9.36084e-07
8.81407e-05
-3.72523e-05
-6.02061e-07
9.24684e-05
-3.16959e-05
2.24026e-06
9.86058e-05
-2.78164e-05
8.2689e-07
0.000108195
-2.91458e-05
-3.35845e-06
0.000119401
-2.83879e-05
-5.64393e-06
0.00012776
-3.01739e-05
-5.11594e-06
0.00013816
-2.91926e-05
-7.78537e-06
0.000143053
-3.50173e-05
-3.73598e-06
-3.01703e-05
-1.27855e-05
7.1182e-05
-4.85071e-05
-2.5614e-06
8.07176e-05
-4.86229e-05
-2.91775e-06
8.88841e-05
-4.12431e-05
-1.26617e-06
9.55026e-05
-3.73748e-05
-1.61235e-06
0.000102382
-3.50888e-05
-3.55021e-06
0.000118132
-4.50723e-05
-6.22002e-06
0.000134275
-4.18578e-05
-7.2971e-06
0.000142484
-3.98799e-05
-4.79376e-06
0.000155765
-4.33185e-05
-7.45172e-06
-5.83582e-05
2.40097e-06
6.46787e-05
-2.06135e-06
7.77869e-05
-4.15872e-06
9.7703e-05
-9.46691e-06
0.000103075
-9.25889e-07
0.000107515
-6.09223e-06
0.000117691
-2.25413e-06
0.000149148
-1.28092e-05
0.000163308
-5.09131e-06
0.000159657
-7.21075e-06
-8.18282e-06
7.65515e-05
-3.54961e-05
-2.43406e-06
8.83074e-05
-3.145e-05
-4.16513e-06
9.59716e-05
-2.7256e-05
6.09628e-06
9.96874e-05
-2.61131e-05
7.99613e-06
0.000110308
-2.90207e-05
1.48456e-06
0.000121311
-2.71959e-05
-3.7664e-06
0.000126947
-2.92227e-05
-5.66709e-08
0.000132657
-2.8209e-05
-2.9413e-06
0.000139654
-3.81033e-05
3.14291e-06
-3.42976e-05
-6.42959e-06
7.84478e-05
-3.75095e-05
-1.5398e-06
8.04141e-05
-3.56979e-05
1.67958e-06
9.04785e-05
-3.52102e-05
1.30013e-07
0.00010253
-3.89573e-05
1.61926e-06
9.98634e-05
-3.66232e-05
6.91105e-06
0.000114908
-4.21438e-05
-5.74042e-06
0.000129866
-4.18976e-05
-7.39969e-06
0.000138366
-4.09553e-05
-3.53908e-06
0.000135961
-3.63148e-05
-3.11947e-06
-8.91893e-05
5.46819e-06
7.88739e-05
-4.54939e-05
-3.55458e-06
8.22603e-05
-4.30342e-05
1.03219e-06
0.000100988
-5.40009e-05
-1.20347e-06
0.000109125
-5.2662e-05
3.95609e-06
0.000111052
-3.95869e-05
-2.51349e-06
0.0001071
-4.35612e-05
-8.50734e-07
0.000137885
-7.32539e-05
-6.72596e-06
0.000163155
-6.29518e-05
-8.06732e-06
0.00016706
-4.0434e-05
-7.23786e-06
-8.70537e-05
-6.78953e-06
4.83399e-05
-3.42384e-06
5.89999e-05
-4.4704e-06
8.0892e-05
-1.06091e-05
0.00011246
-1.03381e-06
0.000126149
-2.11527e-07
0.000122996
-7.02771e-06
0.000115944
-1.76484e-05
0.000155166
-2.76681e-05
0.000178481
-2.35559e-05
-2.70846e-05
8.45357e-05
-2.58659e-05
-1.88375e-06
8.69149e-05
-2.45853e-05
2.93006e-06
9.65657e-05
-2.70349e-05
4.36246e-06
0.000106868
-2.94925e-05
1.06701e-05
0.000106341
-2.92596e-05
7.35328e-06
0.000118301
-3.65579e-05
-3.33678e-08
0.000133526
-3.14088e-05
-8.95383e-06
0.000142208
-3.6132e-05
-1.98486e-06
0.00015294
-4.6121e-05
1.77446e-06
-4.91035e-05
3.59144e-07
8.07207e-05
-3.37682e-05
7.16571e-07
8.63142e-05
-3.05102e-05
2.01108e-06
9.71287e-05
-3.58246e-05
-1.89482e-06
0.000100837
-3.91326e-05
7.5514e-06
0.000114424
-3.80492e-05
2.1129e-06
0.000102724
-4.50837e-05
1.44859e-05
0.00012284
-5.25076e-05
-6.41663e-06
0.000138804
-4.96935e-05
-5.94225e-06
0.000144173
-5.39525e-05
-6.56574e-07
-6.06623e-05
2.72266e-06
8.10459e-05
-3.40901e-05
-2.22379e-06
8.51193e-05
-3.62659e-05
2.71445e-06
9.18925e-05
-4.58853e-05
2.08401e-06
0.000114598
-5.77357e-05
-1.45971e-07
0.000126464
-5.55273e-05
3.09795e-06
0.000132773
-4.68681e-05
-5.37511e-06
0.00012916
-5.2588e-05
-3.03248e-06
0.000141535
-6.35908e-05
-6.54521e-06
0.000141288
-5.03099e-05
-1.06331e-05
-6.19646e-05
-1.29695e-05
6.12394e-05
1.16139e-06
7.58777e-05
2.22383e-06
0.000107235
-1.60782e-06
0.00013611
5.29699e-07
0.000171107
-1.49647e-06
0.000163385
-2.89607e-06
0.000125996
-1.30628e-05
0.000110444
-2.98888e-05
0.000120587
-3.02045e-05
-3.25477e-05
8.06567e-05
-1.7416e-05
8.67341e-05
-1.62113e-05
9.79956e-05
-1.75763e-05
0.00010998
-1.50339e-05
0.000120379
-1.2637e-05
0.00012133
-2.26483e-05
0.000129895
-3.74083e-05
0.000139254
-3.39994e-05
0.000152603
-3.09008e-05
-3.23776e-05
7.95383e-05
-2.16732e-05
8.77076e-05
-2.23694e-05
8.82887e-05
-2.00521e-05
0.000101619
-2.08126e-05
0.000110432
-1.93373e-05
0.000128338
-2.6068e-05
0.000126355
-4.18418e-05
0.000130934
-4.45207e-05
0.000143476
-4.40996e-05
-5.22952e-05
8.0126e-05
-2.63148e-05
8.47655e-05
-2.42943e-05
9.21434e-05
-2.53459e-05
9.81613e-05
-2.69763e-05
0.000113969
-3.20468e-05
0.000117895
-3.53687e-05
0.000120013
-4.69923e-05
0.000122221
-5.32738e-05
0.000131318
-6.38302e-05
-7.0123e-05
7.22977e-05
8.15286e-05
8.78128e-05
9.69544e-05
0.000106938
0.000114901
0.000104507
9.07404e-05
7.65539e-05
)
;

boundaryField
{
    inlet
    {
        type            fixedValue;
        value           nonuniform 0();
    }
    outlet
    {
        type            calculated;
        value           nonuniform 0();
    }
    bottom
    {
        type            fixedValue;
        value           uniform 0;
    }
    top
    {
        type            symmetryPlane;
        value           nonuniform List<scalar> 
40
(
-1.45685e-10
-1.77548e-10
-2.00701e-10
-1.87155e-10
-1.32653e-10
-1.56387e-10
-1.57826e-10
-1.72067e-10
-1.16304e-10
-1.22613e-10
-1.39121e-10
-1.49545e-10
-1.03892e-10
-9.81007e-11
-1.20512e-10
-1.319e-10
-9.5857e-11
-1.44666e-10
-9.98109e-11
-1.38692e-10
-8.91223e-11
-1.26055e-10
-1.51273e-10
-1.99099e-10
-8.89523e-11
-9.31905e-11
-1.3301e-10
-1.49307e-10
-7.40656e-11
-7.66738e-11
-9.3157e-11
-1.37087e-10
-7.63332e-11
-6.70948e-11
-7.79832e-11
-1.10481e-10
-5.32767e-11
-5.01415e-11
-7.77764e-11
-8.60831e-11
)
;
    }
    side1
    {
        type            symmetryPlane;
        value           nonuniform 0();
    }
    side2
    {
        type            symmetryPlane;
        value           nonuniform 0();
    }
    procBoundary13to5
    {
        type            processor;
        value           nonuniform List<scalar> 
50
(
3.69978e-05
1.97138e-05
1.08178e-05
1.34416e-05
1.35869e-05
1.57883e-05
1.66737e-05
1.5944e-05
1.13731e-05
7.58391e-06
3.14026e-05
3.20665e-05
1.56814e-05
1.17203e-05
1.41704e-05
1.53206e-05
1.67705e-05
1.77661e-05
1.86168e-05
1.79047e-05
4.00933e-05
2.33367e-05
1.55948e-05
1.84745e-05
1.77342e-05
2.09972e-05
2.05489e-05
2.31206e-05
2.18229e-05
2.44176e-05
1.94064e-05
1.51108e-05
1.9118e-05
1.65164e-05
2.39178e-05
2.08644e-05
2.50814e-05
2.64933e-05
3.67582e-05
2.58897e-05
1.04576e-05
1.30641e-05
1.06774e-05
1.37195e-05
9.59199e-06
2.16641e-05
1.98889e-05
2.26559e-05
1.93266e-05
2.22814e-05
)
;
    }
    procBoundary13to12
    {
        type            processor;
        value           nonuniform List<scalar> 
20
(
-7.82531e-05
-6.20214e-05
-5.3936e-05
-5.11998e-05
-8.47945e-05
-7.83576e-05
-6.22289e-05
-4.46224e-05
-8.0188e-05
-7.58306e-05
-6.98963e-05
-3.86971e-05
-7.86265e-05
-7.50748e-05
-8.20547e-05
-5.71832e-05
-7.55819e-05
-7.45643e-05
-7.7708e-05
-6.67507e-05
)
;
    }
    procBoundary13to14
    {
        type            processor;
        value           nonuniform List<scalar> 
20
(
0.000166273
0.000153105
0.000140588
0.000148894
0.000126027
0.000155402
0.000167368
0.000170507
0.000151728
0.000172599
0.000174115
0.0001559
0.000169365
0.000158477
0.00014877
0.000132695
0.000163058
0.000166117
0.000136177
6.35256e-05
)
;
    }
    procBoundary13to21
    {
        type            processor;
        value           nonuniform List<scalar> 
50
(
-4.1134e-05
-4.0975e-05
-3.96838e-05
-3.97049e-05
-3.83172e-05
-3.93205e-05
-3.48531e-05
-3.40585e-05
-3.25807e-05
-3.41961e-05
-7.13922e-05
-6.38736e-05
-5.77684e-05
-4.5854e-05
-3.9498e-05
-5.11381e-05
-6.97555e-05
-4.95133e-05
-4.13285e-05
-6.09665e-05
-5.37742e-05
-5.33825e-05
-7.47507e-05
-8.41225e-05
-5.91561e-05
-3.56348e-05
-6.13631e-05
-7.95965e-05
-4.74036e-05
-4.55714e-05
-4.27316e-05
-5.75984e-05
-8.62442e-05
-8.81742e-05
-8.92394e-05
-4.32772e-05
-1.97845e-05
-4.58178e-05
-5.38046e-05
-6.86103e-05
-3.07002e-05
-3.13012e-05
-3.32377e-05
-3.5588e-05
-4.35266e-05
-4.62274e-05
-4.96615e-05
-6.93958e-05
-7.9848e-05
-8.96422e-05
)
;
    }
}


// ************************************************************************* //
