/*--------------------------------*- C++ -*----------------------------------*\
| =========                 |                                                 |
| \\      /  F ield         | OpenFOAM: The Open Source CFD Toolbox           |
|  \\    /   O peration     | Version:  2.4.0                                 |
|   \\  /    A nd           | Web:      www.OpenFOAM.org                      |
|    \\/     M anipulation  |                                                 |
\*---------------------------------------------------------------------------*/
FoamFile
{
    version     2.0;
    format      ascii;
    class       volVectorField;
    location    "0.01";
    object      gradp;
}
// * * * * * * * * * * * * * * * * * * * * * * * * * * * * * * * * * * * * * //

dimensions      [1 -2 -2 0 0 0 0];

internalField   nonuniform List<vector> 
60
(
(-1.55429e+17 -1.76347e+17 4.92828e+16)
(-1.51689e+17 -1.66216e+17 3.03061e+16)
(-1.14415e+17 -1.59721e+17 1.80033e+16)
(-9.37678e+16 -1.4411e+17 2.2466e+16)
(-1.10498e+17 -1.31289e+17 4.43486e+16)
(-1.21401e+17 -1.66236e+17 6.10078e+16)
(-1.06621e+17 -1.35857e+17 4.26197e+16)
(-7.01498e+16 -1.13418e+17 2.53993e+16)
(-5.42363e+16 -9.7842e+16 3.14136e+16)
(-7.06957e+16 -8.64027e+16 3.38772e+16)
(-5.29971e+16 -1.4507e+17 3.95899e+16)
(-4.60529e+16 -1.17562e+17 2.96159e+16)
(-3.83845e+16 -9.1173e+16 2.89459e+16)
(-3.9737e+16 -7.57135e+16 2.85093e+16)
(-3.88179e+16 -6.05e+16 2.36388e+16)
(-9.34977e+15 -1.36149e+17 3.32545e+16)
(1.17303e+15 -1.1411e+17 2.52611e+16)
(1.35476e+16 -9.32162e+16 1.9355e+16)
(7.10968e+15 -7.06619e+16 1.6333e+16)
(2.56506e+15 -4.67046e+16 1.2027e+16)
(-1.6467e+17 -1.32969e+17 9.35397e+15)
(-1.70631e+17 -1.25027e+17 1.61907e+16)
(-1.46956e+17 -1.33918e+17 2.37456e+16)
(-1.06197e+17 -1.20059e+17 2.75724e+16)
(-8.26007e+16 -1.0757e+17 3.08905e+16)
(-1.46531e+17 -1.74454e+17 3.75912e+16)
(-1.74496e+17 -1.51265e+17 3.72469e+16)
(-1.27028e+17 -1.23599e+17 3.78758e+16)
(-5.92383e+16 -9.67909e+16 3.66141e+16)
(-6.55589e+16 -8.81632e+16 3.37032e+16)
(-1.14938e+17 -1.76477e+17 4.55797e+16)
(-6.89198e+16 -1.42437e+17 3.7924e+16)
(-3.80079e+16 -9.81872e+16 3.54145e+16)
(-3.5326e+16 -8.11062e+16 3.36914e+16)
(-4.72329e+16 -7.35598e+16 3.00821e+16)
(-3.05705e+16 -1.47156e+17 4.50183e+16)
(-1.7916e+16 -1.24619e+17 3.8501e+16)
(-4.36578e+15 -1.06514e+17 3.08252e+16)
(-9.98358e+15 -8.98865e+16 2.30999e+16)
(-1.6619e+16 -6.84505e+16 1.45384e+16)
(-1.68265e+17 -1.26986e+17 -1.75599e+16)
(-1.05636e+17 -9.46379e+16 -8.64237e+15)
(-7.79932e+16 -7.60035e+16 2.75097e+15)
(-7.09039e+16 -6.42873e+16 1.29085e+16)
(-8.01398e+16 -6.76854e+16 1.37801e+16)
(-1.38461e+17 -1.08275e+17 -1.038e+15)
(-1.0571e+17 -1.01084e+17 5.08062e+15)
(-7.21748e+16 -9.47478e+16 2.04575e+16)
(-6.75887e+16 -8.80517e+16 2.22221e+16)
(-9.14803e+16 -8.76963e+16 1.7848e+16)
(-1.06136e+17 -1.33187e+17 2.3802e+16)
(-7.85813e+16 -1.15556e+17 2.27209e+16)
(-5.1929e+16 -1.02454e+17 2.07828e+16)
(-5.68008e+16 -9.73363e+16 1.83706e+16)
(-7.32754e+16 -9.11636e+16 1.40719e+16)
(-6.58873e+16 -1.63634e+17 2.60186e+16)
(-4.4245e+16 -1.35004e+17 2.18815e+16)
(-3.57359e+16 -1.16335e+17 1.77908e+16)
(-4.50081e+16 -1.0523e+17 1.20783e+16)
(-4.07732e+16 -8.61997e+16 6.84566e+15)
)
;

boundaryField
{
    inlet
    {
        type            zeroGradient;
    }
    outlet
    {
        type            zeroGradient;
    }
    bottom
    {
        type            zeroGradient;
    }
    top
    {
        type            symmetryPlane;
    }
    side1
    {
        type            symmetryPlane;
    }
    side2
    {
        type            symmetryPlane;
    }
    procBoundary94to30
    {
        type            processor;
        value           nonuniform List<vector> 
20
(
(-6.20624e+16 -1.646e+17 2.98055e+16)
(-7.05364e+16 -1.63232e+17 1.95202e+16)
(-1.21868e+17 -1.66493e+17 1.94327e+16)
(-1.90502e+17 -1.74406e+17 3.09193e+16)
(-1.44751e+17 -1.25098e+17 3.6977e+16)
(-5.15326e+16 -1.58946e+17 3.35883e+16)
(-6.05488e+16 -1.50161e+17 2.02348e+16)
(-9.1168e+16 -1.41107e+17 2.04172e+16)
(-8.63675e+16 -1.0646e+17 2.48699e+16)
(-4.84664e+16 -5.50275e+16 2.17652e+16)
(-1.98932e+16 -1.32072e+17 2.41103e+16)
(-3.48589e+16 -1.14663e+17 1.9542e+16)
(-3.4467e+16 -8.85163e+16 1.77112e+16)
(-1.83434e+16 -5.69773e+16 1.42423e+16)
(-9.23874e+15 -3.85995e+16 8.82045e+15)
(3.31475e+16 -1.18421e+17 1.97715e+16)
(2.65624e+16 -9.06556e+16 1.12125e+16)
(2.42041e+16 -6.71116e+16 8.32688e+15)
(1.34662e+16 -4.63597e+16 5.595e+15)
(9.60657e+15 -3.53969e+16 4.21731e+15)
)
;
    }
    procBoundary94to78
    {
        type            processor;
        value           nonuniform List<vector> 
15
(
(-1.48181e+17 -1.35029e+17 4.12384e+16)
(-1.39874e+17 -1.38803e+17 1.87421e+16)
(-1.1436e+17 -1.49539e+17 5.04025e+15)
(-1.111e+17 -1.56464e+17 -2.55362e+15)
(-1.31806e+17 -1.54016e+17 2.29219e+16)
(-1.98838e+17 -1.14154e+17 6.74056e+15)
(-1.72598e+17 -1.03399e+17 -7.48925e+15)
(-1.36965e+17 -1.04935e+17 -1.44474e+16)
(-1.11935e+17 -1.10462e+17 -1.32753e+16)
(-9.7897e+16 -1.05213e+17 -6.04899e+15)
(-2.50478e+17 -1.19741e+17 -4.77737e+15)
(-2.07676e+17 -1.05542e+17 -1.39129e+16)
(-1.32876e+17 -7.98543e+16 -1.57393e+16)
(-8.42249e+16 -5.04205e+16 -1.26351e+16)
(-6.17819e+16 -4.12733e+16 -7.07974e+15)
)
;
    }
    procBoundary94to93
    {
        type            processor;
        value           nonuniform List<vector> 
12
(
(-1.23972e+17 -1.79606e+17 6.23711e+16)
(-1.0655e+17 -1.87073e+17 7.23068e+16)
(-5.57977e+16 -1.73588e+17 5.93174e+16)
(5.03503e+14 -1.67105e+17 4.5173e+16)
(-1.26806e+17 -1.51181e+17 2.02019e+16)
(-1.03399e+17 -1.76131e+17 4.25783e+16)
(-1.25331e+17 -2.00417e+17 5.453e+16)
(-3.99874e+16 -1.85746e+17 5.6169e+16)
(-1.87565e+17 -1.50646e+17 -7.51921e+15)
(-1.27733e+17 -1.32148e+17 2.55869e+15)
(-1.03508e+17 -1.51843e+17 1.99703e+16)
(-8.11547e+16 -1.85644e+17 3.2918e+16)
)
;
    }
    procBoundary94to95
    {
        type            processor;
        value           nonuniform List<vector> 
12
(
(-1.15676e+17 -1.13555e+17 4.18881e+16)
(-7.39783e+16 -6.20017e+16 2.60722e+16)
(-2.74863e+16 -3.90832e+16 1.66362e+16)
(5.45865e+14 -2.91234e+16 8.13753e+15)
(-1.14922e+17 -1.0389e+17 3.70595e+16)
(-8.79787e+16 -7.9107e+16 3.01189e+16)
(-5.354e+16 -5.66363e+16 2.29234e+16)
(-1.3766e+16 -4.84382e+16 9.55669e+15)
(-1.16144e+17 -7.91366e+16 1.36776e+16)
(-1.11904e+17 -8.46194e+16 1.41217e+16)
(-7.52569e+16 -7.19827e+16 1.02323e+16)
(-2.47293e+16 -6.38141e+16 4.53016e+15)
)
;
    }
    procBoundary94to110
    {
        type            processor;
        value           nonuniform List<vector> 
15
(
(5.29932e+16 -1.31924e+17 2.16306e+16)
(3.98119e+16 -1.05099e+17 8.38899e+15)
(4.85123e+16 -8.60363e+16 4.3193e+15)
(5.32861e+16 -6.71658e+16 1.30509e+15)
(4.42591e+16 -5.16341e+16 2.98034e+15)
(7.31754e+15 -1.32705e+17 2.84013e+16)
(1.2364e+16 -1.13656e+17 2.48655e+16)
(3.14564e+16 -1.0069e+17 2.09653e+16)
(4.08013e+16 -8.59039e+16 1.20864e+16)
(3.56636e+16 -6.31077e+16 5.39768e+15)
(-4.85658e+15 -1.55163e+17 1.35033e+16)
(1.60166e+16 -1.30237e+17 1.62301e+16)
(7.61896e+15 -1.07105e+17 1.46448e+16)
(3.46969e+15 -8.69139e+16 8.78089e+15)
(9.55629e+15 -6.79233e+16 2.97865e+15)
)
;
    }
}


// ************************************************************************* //
