/*--------------------------------*- C++ -*----------------------------------*\
| =========                 |                                                 |
| \\      /  F ield         | OpenFOAM: The Open Source CFD Toolbox           |
|  \\    /   O peration     | Version:  2.4.0                                 |
|   \\  /    A nd           | Web:      www.OpenFOAM.org                      |
|    \\/     M anipulation  |                                                 |
\*---------------------------------------------------------------------------*/
FoamFile
{
    version     2.0;
    format      ascii;
    class       surfaceScalarField;
    location    "0.04";
    object      phia;
}
// * * * * * * * * * * * * * * * * * * * * * * * * * * * * * * * * * * * * * //

dimensions      [0 3 -1 0 0 0 0];

internalField   nonuniform List<scalar> 
490
(
1.02205e-05
-3.97387e-05
-4.42264e-06
9.9215e-06
-3.97237e-05
-4.43621e-06
-2.78223e-05
-1.53411e-05
-4.82807e-06
-6.57574e-05
1.09032e-05
-5.22421e-06
-6.62478e-05
1.12397e-05
-5.22938e-06
-6.62479e-05
1.12397e-05
-5.22938e-06
-6.62479e-05
1.12397e-05
-5.22938e-06
-6.62522e-05
1.12397e-05
-5.22938e-06
-6.62618e-05
1.12333e-05
-5.23127e-06
1.12254e-05
-5.23361e-06
-5.30369e-05
-3.78482e-05
3.85673e-06
-5.84262e-05
-3.78133e-05
-9.01685e-07
-6.60351e-05
-1.34976e-05
-5.13735e-06
-6.62479e-05
1.0805e-05
-5.22938e-06
-6.62479e-05
1.12173e-05
-5.22938e-06
-6.62479e-05
1.12126e-05
-5.22938e-06
-6.62479e-05
1.12031e-05
-5.22938e-06
-6.62556e-05
1.11748e-05
-5.22939e-06
-6.62728e-05
2.77987e-06
-5.23271e-06
2.1924e-06
-5.23692e-06
-7.12985e-05
-3.72716e-05
6.0079e-06
-7.12864e-05
-3.72128e-05
5.91279e-06
-6.88404e-05
-3.70355e-05
3.79959e-07
-6.63694e-05
-1.31449e-05
-5.14951e-06
-6.6341e-05
1.06551e-05
-5.24803e-06
-6.63677e-05
1.11101e-05
-5.25184e-06
-6.64386e-05
1.10833e-05
-5.25941e-06
-8.22606e-05
1.09955e-05
-5.28201e-06
-9.91237e-05
-6.22197e-06
-1.04575e-05
-7.16725e-06
-1.07143e-05
-7.12986e-05
6.008e-06
-7.12986e-05
6.00799e-06
-7.12874e-05
5.9184e-06
-6.89014e-05
3.70132e-07
-6.64994e-05
-5.16038e-06
-6.65126e-05
-5.27895e-06
-6.6673e-05
-5.29633e-06
-8.35082e-05
-5.34774e-06
-0.000100918
-1.07149e-05
-1.08761e-05
8.94562e-06
-3.93454e-05
-4.42247e-06
-2.91698e-05
-1.42645e-05
-4.4666e-06
-6.61298e-05
1.11587e-05
-5.26133e-06
-6.62479e-05
1.12397e-05
-5.2669e-06
-6.62479e-05
1.12397e-05
-5.27229e-06
-6.62479e-05
1.12397e-05
-5.28123e-06
-6.62479e-05
1.12397e-05
-5.29895e-06
-6.62556e-05
1.12397e-05
-5.35078e-06
-6.62728e-05
1.12285e-05
-8.08847e-06
1.12142e-05
-8.12241e-06
-6.0682e-05
-3.74353e-05
3.69975e-06
-6.62007e-05
-1.27985e-05
-5.24611e-06
-6.62479e-05
1.10871e-05
-5.29138e-06
-6.62479e-05
1.12039e-05
-5.29744e-06
-6.62479e-05
1.1199e-05
-5.30648e-06
-6.62479e-05
1.11909e-05
-5.32142e-06
-6.62479e-05
1.11748e-05
-5.35082e-06
-6.62613e-05
1.11267e-05
-5.43545e-06
-6.6292e-05
2.0122e-06
-8.13125e-06
1.71689e-06
-8.14818e-06
-7.12568e-05
-3.72128e-05
6.00488e-06
-6.8805e-05
-3.67443e-05
-9.05921e-07
-6.63887e-05
-1.25925e-05
-8.12259e-06
-6.63917e-05
1.09536e-05
-8.15664e-06
-6.6416e-05
1.10673e-05
-8.16257e-06
-6.64616e-05
1.10445e-05
-8.16886e-06
-6.65824e-05
1.09953e-05
-8.17695e-06
-8.3788e-05
1.08419e-05
-8.19389e-06
-0.000101441
-7.45454e-06
-1.08897e-05
-7.91024e-06
-1.09743e-05
-7.12986e-05
6.008e-06
-7.12606e-05
6.00209e-06
-6.88945e-05
-1.74106e-06
-6.65749e-05
-8.14683e-06
-6.66187e-05
-8.18235e-06
-6.67237e-05
-8.18999e-06
-6.70002e-05
-8.2028e-06
-8.45937e-05
-8.23681e-06
-0.00010231
-1.09745e-05
-1.10262e-05
7.51931e-06
-3.88935e-05
-4.42023e-06
-3.08653e-05
-1.34265e-05
-4.50337e-06
-6.66382e-05
1.08722e-05
-5.33408e-06
-6.6759e-05
1.08827e-05
-5.34699e-06
-6.685e-05
1.0834e-05
-5.36432e-06
-6.70194e-05
1.07532e-05
-5.39293e-06
-6.74612e-05
1.05939e-05
-5.44917e-06
-8.51777e-05
1.01326e-05
-5.61044e-06
-0.000102771
-8.22676e-06
-1.09776e-05
-8.3846e-06
-1.10289e-05
-6.11752e-05
-3.6959e-05
3.51364e-06
-6.6982e-05
-1.75257e-06
-5.38396e-06
-6.70743e-05
1.18571e-06
-5.42248e-06
-6.71702e-05
1.14839e-06
-5.44197e-06
-6.73225e-05
1.10267e-06
-5.4709e-06
-6.76042e-05
1.03899e-06
-5.51837e-06
-6.83288e-05
9.28397e-07
-5.61059e-06
-8.59817e-05
6.33093e-07
-5.86738e-06
-0.000103187
-8.48137e-06
-1.10431e-05
-8.52949e-06
-1.10657e-05
-8.40531e-05
-3.71491e-05
5.99452e-06
-0.000100022
-2.55271e-05
-8.6881e-06
-0.000103279
-9.88863e-06
-1.10622e-05
-0.00010334
-8.45448e-06
-1.10702e-05
-0.000103394
-8.482e-06
-1.10771e-05
-0.000103439
-8.50669e-06
-1.10831e-05
-0.000103478
-8.5284e-06
-1.10882e-05
-0.000103508
-8.54711e-06
-1.10924e-05
-0.000103522
-8.56279e-06
-1.10958e-05
-8.55831e-06
-1.10957e-05
-7.13097e-05
6.008e-06
-8.56931e-05
5.98152e-06
-0.000101736
-9.88093e-06
-0.000103422
-1.10817e-05
-0.000103451
-1.10855e-05
-0.000103476
-1.10887e-05
-0.000103497
-1.10915e-05
-0.000103514
-1.10939e-05
-0.000103522
-1.10958e-05
-1.10957e-05
5.97442e-06
-3.83772e-05
-4.4053e-06
-3.26742e-05
-1.25884e-05
-4.5379e-06
-6.71697e-05
1.05222e-05
-5.40604e-06
-6.73418e-05
1.04802e-05
-5.42864e-06
-6.75425e-05
1.03726e-05
-5.46046e-06
-6.79122e-05
1.01961e-05
-5.51235e-06
-6.88523e-05
9.85351e-06
-5.61266e-06
-8.62626e-05
8.90141e-06
-5.89084e-06
-0.000103097
-8.38468e-06
-1.10049e-05
-8.47683e-06
-9.27555e-06
-6.17196e-05
-3.64193e-05
3.29475e-06
-6.78334e-05
-2.06372e-07
-5.51414e-06
-6.79994e-05
9.18902e-07
-5.5582e-06
-6.82111e-05
8.6453e-07
-5.59378e-06
-6.85441e-05
7.89144e-07
-5.64607e-06
-6.91499e-05
6.72031e-07
-5.73063e-06
-7.06429e-05
4.53549e-07
-5.89115e-06
-8.75073e-05
-1.33637e-07
-6.31616e-06
-0.000103331
-8.52951e-06
-1.10481e-05
-8.55781e-06
-1.00377e-05
-8.6098e-05
-3.70781e-05
5.96684e-06
-0.000102116
-2.37267e-05
-1.00454e-05
-0.00010339
-8.99421e-06
-1.10542e-05
-0.000103422
-8.48908e-06
-1.10604e-05
-0.000103451
-8.50587e-06
-1.1066e-05
-0.000103476
-8.52123e-06
-1.10712e-05
-0.000103497
-8.53509e-06
-1.10758e-05
-0.000103514
-8.54745e-06
-1.10799e-05
-0.000103522
-8.5583e-06
-1.10836e-05
-8.55383e-06
-1.10819e-05
-7.13373e-05
6.00156e-06
-8.68147e-05
5.93345e-06
-0.000102857
-1.05852e-05
-0.000103468
-1.10659e-05
-0.000103483
-1.10697e-05
-0.000103497
-1.10732e-05
-0.000103508
-1.10764e-05
-0.000103518
-1.10794e-05
-0.000103522
-1.1082e-05
-1.10804e-05
4.36117e-06
-3.77893e-05
-3.45798e-05
-1.1737e-05
-6.77486e-05
1.01312e-05
-6.79905e-05
1.0038e-05
-6.83153e-05
9.86466e-06
-6.89073e-05
9.58278e-06
-7.03699e-05
9.04558e-06
-8.727e-05
7.61921e-06
-8.66208e-05
-8.4396e-06
-1.15748e-05
-6.23238e-05
-3.58201e-05
-6.87559e-05
9.19837e-08
-6.90083e-05
6.53261e-07
-6.93483e-05
5.73814e-07
-6.98788e-05
4.60186e-07
-7.08258e-05
2.8061e-07
-7.30527e-05
-5.32573e-08
-8.8996e-05
-9.12664e-07
-9.3749e-05
-8.5461e-06
-9.68847e-06
-8.67429e-05
-3.69969e-05
-0.000102757
-2.31237e-05
-0.000103427
-8.74993e-06
-0.00010345
-8.49771e-06
-0.00010347
-8.51087e-06
-0.000103488
-8.5231e-06
-0.000103503
-8.53434e-06
-0.000103516
-8.54457e-06
-0.00010352
-8.5538e-06
-8.5496e-06
-7.13875e-05
-8.71676e-05
-0.000103168
-0.000103484
-0.000103494
-0.000103503
-0.000103512
-0.000103519
-0.000103521
)
;

boundaryField
{
    inlet
    {
        type            calculated;
        value           nonuniform 0();
    }
    outlet
    {
        type            calculated;
        value           nonuniform 0();
    }
    bottom
    {
        type            calculated;
        value           uniform 0;
    }
    top
    {
        type            symmetryPlane;
        value           uniform 0;
    }
    side1
    {
        type            symmetryPlane;
        value           nonuniform 0();
    }
    side2
    {
        type            symmetryPlane;
        value           uniform 0;
    }
    procBoundary29to21
    {
        type            processor;
        value           nonuniform List<scalar> 
50
(
4.12102e-05
4.12104e-05
4.10052e-05
1.52409e-05
-1.03375e-05
-1.12135e-05
-1.12159e-05
-1.12183e-05
-1.1212e-05
-1.11998e-05
4.121e-05
4.03365e-05
1.47306e-05
-1.1006e-05
-1.12136e-05
-1.12159e-05
-1.12183e-05
-1.12207e-05
-1.12112e-05
-1.12e-05
4.12098e-05
3.93758e-05
1.44223e-05
-1.08807e-05
-1.09609e-05
-1.09099e-05
-1.08065e-05
-1.04985e-05
7.91724e-06
8.21012e-06
4.11829e-05
3.83341e-05
1.41062e-05
-1.06622e-05
-1.06721e-05
-1.05577e-05
-1.03305e-05
-9.67629e-06
8.2103e-06
8.38038e-06
4.10862e-05
3.72152e-05
1.37614e-05
-1.04007e-05
-1.03511e-05
-1.01653e-05
-9.80126e-06
-8.78603e-06
8.31361e-06
1.29465e-05
)
;
    }
    procBoundary29to28
    {
        type            processor;
        value           nonuniform List<scalar> 
20
(
-1.02197e-05
5.73641e-05
7.12984e-05
7.12986e-05
-1.02185e-05
5.74489e-05
7.12984e-05
7.12986e-05
-1.02171e-05
5.75562e-05
7.13039e-05
7.12986e-05
-1.02257e-05
5.76871e-05
7.13177e-05
7.12986e-05
-1.02646e-05
5.78386e-05
7.13429e-05
7.12986e-05
)
;
    }
    procBoundary29to30
    {
        type            processor;
        value           nonuniform List<scalar> 
20
(
-6.62706e-05
-6.62929e-05
-9.98058e-05
-0.000100931
-6.62929e-05
-6.63285e-05
-0.000101398
-0.000101884
-0.000102173
-0.000102514
-0.00010281
-0.000102722
-0.000101076
-0.000101952
-0.000102722
-0.000102634
-4.45207e-05
-5.15437e-05
-9.62446e-05
-9.87874e-05
)
;
    }
}


// ************************************************************************* //
