/*--------------------------------*- C++ -*----------------------------------*\
| =========                 |                                                 |
| \\      /  F ield         | OpenFOAM: The Open Source CFD Toolbox           |
|  \\    /   O peration     | Version:  2.4.0                                 |
|   \\  /    A nd           | Web:      www.OpenFOAM.org                      |
|    \\/     M anipulation  |                                                 |
\*---------------------------------------------------------------------------*/
FoamFile
{
    version     2.0;
    format      ascii;
    class       volVectorField;
    location    "0.04";
    object      Ua;
}
// * * * * * * * * * * * * * * * * * * * * * * * * * * * * * * * * * * * * * //

dimensions      [0 1 -1 0 0 0 0];

internalField   nonuniform List<vector> 
200
(
(-45.7415 -5.60873 0.923492)
(-10.4253 7.64578 3.67891)
(-10.4079 7.66134 3.67973)
(-10.4079 7.66538 3.67973)
(-10.4079 7.66942 3.67973)
(-10.4079 7.66538 3.67973)
(-10.4079 7.66135 3.67972)
(-10.3976 7.65004 3.67001)
(-10.37 7.62417 3.64003)
(-10.3141 7.57673 3.57826)
(-45.9245 -2.75749 0.601069)
(-10.4221 7.64085 3.67852)
(-10.4079 7.65057 3.67973)
(-10.4079 7.65595 3.67973)
(-10.4079 7.66133 3.67973)
(-10.4079 7.65595 3.67973)
(-10.4079 7.65058 3.67973)
(-10.4078 7.64523 3.67972)
(-10.41 7.63991 3.67998)
(-10.4156 7.63461 3.68062)
(-41.1499 1.13502 0.765196)
(-10.414 7.61976 3.67915)
(-10.4079 7.62908 3.67973)
(-10.4079 7.63713 3.67973)
(-10.4079 7.64519 3.67973)
(-10.4079 7.63713 3.67973)
(-10.4079 7.62908 3.67973)
(-10.4079 7.62105 3.67973)
(-10.4079 7.61303 3.67973)
(-10.4079 7.60502 3.67973)
(-10.4185 7.53091 3.67872)
(-10.4079 7.54904 3.67973)
(-10.4079 7.56498 3.67973)
(-10.4079 7.58095 3.67973)
(-10.4079 7.59694 3.67973)
(-10.4079 7.58095 3.67973)
(-10.4079 7.56498 3.67973)
(-10.4079 7.54904 3.67973)
(-10.4079 7.53313 3.67973)
(-10.4079 7.51725 3.67973)
(-6.08797 -15.9642 6.53182)
(-10.4065 7.65351 3.68066)
(-10.4079 7.66539 3.67973)
(-10.4079 7.66944 3.67973)
(-10.4079 7.67348 3.67973)
(-10.4079 7.66944 3.67973)
(-10.4078 7.66539 3.67971)
(-10.3833 7.6467 3.66061)
(-10.3112 7.59889 3.60058)
(-10.168 7.50847 3.47711)
(-7.86013 -6.27122 5.35886)
(-10.4075 7.64838 3.68)
(-10.4079 7.65597 3.67973)
(-10.4079 7.66135 3.67973)
(-10.4079 7.66673 3.67973)
(-10.4079 7.66135 3.67973)
(-10.4079 7.65597 3.67973)
(-10.4079 7.65059 3.67973)
(-10.4079 7.64523 3.67973)
(-10.4079 7.63987 3.67973)
(-10.4092 7.61907 3.67978)
(-10.4079 7.6291 3.67973)
(-10.4079 7.63715 3.67973)
(-10.4079 7.64521 3.67973)
(-10.4079 7.65327 3.67973)
(-10.4079 7.64521 3.67973)
(-10.4079 7.63715 3.67973)
(-10.4079 7.6291 3.67973)
(-10.4079 7.62106 3.67973)
(-10.4079 7.61303 3.67973)
(-10.4079 7.54907 3.67973)
(-10.4079 7.56501 3.67973)
(-10.4079 7.58098 3.67973)
(-10.4079 7.59698 3.67973)
(-10.4079 7.61301 3.67973)
(-10.4079 7.59698 3.67973)
(-10.4079 7.58098 3.67973)
(-10.4079 7.56501 3.67973)
(-10.4079 7.54907 3.67973)
(-10.4079 7.53317 3.67973)
(-3.76009 -28.6315 8.05757)
(-4.48572 -24.6711 7.57977)
(-10.4007 7.62224 3.68444)
(-10.4079 7.66538 3.67973)
(-10.4079 7.66943 3.67973)
(-10.4074 7.66509 3.67932)
(-9.60309 7.17855 3.05161)
(2.59013 -0.256044 -6.09251)
(2.95609 -0.356746 -6.75086)
(3.19282 -0.399672 -7.24952)
(-3.76014 -28.6305 8.05751)
(-5.5476 -18.8766 6.8804)
(-10.4058 7.63955 3.68106)
(-10.4079 7.65596 3.67973)
(-10.4079 7.66134 3.67973)
(-10.4079 7.65596 3.67973)
(-10.4079 7.65059 3.67972)
(-10.3993 7.63993 3.67354)
(-10.3731 7.61869 3.65352)
(-10.3198 7.58166 3.6113)
(-5.95072 -16.6893 6.61511)
(-10.4065 7.61384 3.6806)
(-10.4079 7.6291 3.67973)
(-10.4079 7.63715 3.67973)
(-10.4079 7.6452 3.67973)
(-10.4079 7.63715 3.67973)
(-10.4079 7.6291 3.67973)
(-10.4079 7.62106 3.67973)
(-10.4078 7.61303 3.67973)
(-10.4079 7.605 3.67973)
(-10.4069 7.52781 3.68038)
(-10.4079 7.54907 3.67973)
(-10.4079 7.565 3.67973)
(-10.4079 7.58097 3.67973)
(-10.4079 7.59697 3.67973)
(-10.4079 7.58097 3.67973)
(-10.4079 7.565 3.67973)
(-10.4079 7.54907 3.67973)
(-10.4079 7.53316 3.67973)
(-10.4079 7.51729 3.67973)
(-3.7601 -28.6318 8.05756)
(-4.14402 -26.5371 7.80483)
(-10.3912 7.56625 3.69072)
(-10.4079 7.66135 3.67973)
(-10.4079 7.66539 3.67973)
(-10.4066 7.66067 3.67872)
(-8.86784 6.74419 2.441)
(2.90862 -0.328077 -6.71462)
(3.14502 -0.400948 -7.20526)
(-11.4483 -2.03143 6.74937)
(-3.76005 -28.631 8.05758)
(-4.79295 -22.9955 7.37738)
(-10.4031 7.61917 3.68287)
(-10.4079 7.65058 3.67973)
(-10.4079 7.65595 3.67973)
(-10.4079 7.65059 3.67973)
(-10.4079 7.64522 3.67972)
(-10.3904 7.62925 3.66659)
(-10.3374 7.59198 3.62498)
(-10.5712 6.63555 4.03221)
(-5.07192 -21.4812 7.19376)
(-10.4048 7.59599 3.68179)
(-10.4079 7.62106 3.67973)
(-10.4079 7.6291 3.67973)
(-10.4079 7.63714 3.67973)
(-10.4079 7.6291 3.67973)
(-10.4079 7.62106 3.67973)
(-10.4078 7.61303 3.67973)
(-10.4078 7.605 3.67972)
(-10.405 7.59167 3.6771)
(-10.4056 7.50467 3.68127)
(-10.4079 7.53316 3.67973)
(-10.4079 7.54906 3.67973)
(-10.4079 7.565 3.67973)
(-10.4079 7.58095 3.67973)
(-10.4079 7.565 3.67973)
(-10.4079 7.54906 3.67973)
(-10.4079 7.53316 3.67973)
(-10.4079 7.51729 3.67973)
(-10.4054 7.49692 3.67744)
(-3.76015 -28.632 8.02662)
(-4.02134 -27.2107 7.85387)
(-10.3867 7.49586 3.68892)
(-10.4101 7.65735 3.67014)
(-10.4079 7.66137 3.67063)
(-10.4079 7.65614 3.66835)
(-8.21456 6.32499 1.87547)
(1.48846 -0.554126 -5.61062)
(-13.6415 -2.26946 8.85839)
(-13.5666 -2.28038 8.92119)
(-3.76003 -28.6312 8.02888)
(-4.48653 -24.6725 7.55112)
(-10.4017 7.59433 3.67561)
(-10.4078 7.64522 3.67063)
(-10.4079 7.65057 3.67139)
(-10.4079 7.64521 3.67064)
(-10.4079 7.63984 3.66986)
(-10.3825 7.61572 3.65008)
(-12.6937 1.58966 6.89909)
(-13.7353 -2.27925 8.95934)
(-4.6967 -23.5332 7.4136)
(-10.4046 7.57524 3.67372)
(-10.4078 7.61304 3.67063)
(-10.4079 7.62105 3.67139)
(-10.4079 7.62907 3.67215)
(-10.4079 7.62104 3.67139)
(-10.4078 7.61301 3.67064)
(-10.4078 7.60499 3.66988)
(-10.408 7.59668 3.66928)
(-10.8922 6.16477 4.42104)
(-10.406 7.47942 3.67282)
(-10.4078 7.5173 3.67063)
(-10.4079 7.53314 3.67139)
(-10.4079 7.54904 3.67215)
(-10.4079 7.56496 3.67291)
(-10.4079 7.54904 3.67215)
(-10.4079 7.53314 3.67139)
(-10.4079 7.51727 3.67064)
(-10.4079 7.50143 3.66988)
(-10.3994 7.4699 3.66126)
)
;

boundaryField
{
    inlet
    {
        type            calculated;
        value           nonuniform 0();
    }
    outlet
    {
        type            calculated;
        value           nonuniform 0();
    }
    bottom
    {
        type            calculated;
        value           uniform (0 0 0);
    }
    top
    {
        type            symmetryPlane;
    }
    side1
    {
        type            symmetryPlane;
    }
    side2
    {
        type            symmetryPlane;
    }
    procBoundary29to21
    {
        type            processor;
        value           nonuniform List<vector> 
50
(
(11.3823 1.2135 6.9252)
(13.7497 1.80228 7.13846)
(-9.39305 7.42087 3.82484)
(-10.4071 7.67086 3.67983)
(-10.4078 7.67427 3.67972)
(-10.4071 7.67057 3.67888)
(-9.1765 6.94522 2.61542)
(3.38556 -0.375662 -7.83663)
(3.64883 -0.451035 -8.29682)
(3.81647 -0.48139 -8.64057)
(-9.81728 -20.8567 4.36665)
(-14.8589 1.93045 1.01966)
(-10.4125 7.66495 3.67689)
(-10.4078 7.67428 3.67972)
(-10.4078 7.67752 3.67972)
(-10.4064 7.6734 3.67835)
(-8.14246 6.34529 1.7832)
(3.25685 -0.392944 -7.43808)
(3.49927 -0.44184 -7.93001)
(3.67786 -0.468856 -8.32147)
(-3.80541 -28.6332 8.07691)
(-4.60205 -26.4291 7.61099)
(-10.3894 7.56813 3.68065)
(-10.3913 7.66152 3.66522)
(-10.352 7.64197 3.63202)
(1.23498 0.878134 -6.04071)
(3.30964 -0.424212 -7.48032)
(3.0617 -0.393101 -6.9178)
(3.31122 -0.42514 -7.4816)
(3.51443 -0.451508 -7.94221)
(-3.81957 -28.6336 8.08091)
(-4.23756 -27.4949 7.86483)
(-10.3988 7.44379 3.68903)
(-10.391 7.64567 3.6475)
(-10.2839 7.59509 3.56569)
(2.4298 0.251455 -7.25957)
(3.5148 -0.450852 -7.94292)
(3.31164 -0.425198 -7.48257)
(3.48471 -0.454754 -7.91271)
(-10.6355 -1.99475 6.20974)
(-3.83319 -28.6337 8.05126)
(-4.12132 -27.8722 7.92344)
(-10.4362 7.28793 3.69034)
(-10.4088 7.6263 3.61548)
(-10.207 7.53537 3.46981)
(2.8864 -0.00461742 -7.79507)
(3.43349 -0.499452 -8.04498)
(2.30611 -0.582307 -6.7148)
(-13.2072 -2.26745 8.76964)
(-13.2883 -2.28024 8.89025)
)
;
    }
    procBoundary29to28
    {
        type            processor;
        value           nonuniform List<vector> 
20
(
(-54.1736 -7.62029 0.129002)
(-58.5447 -5.79793 -0.558673)
(-63.7509 -3.62728 -1.37755)
(-48.7276 -0.455658 0.0467428)
(-3.76449 -28.628 8.05675)
(-3.76796 -28.6234 8.05589)
(-19.7625 -4.10385 3.76304)
(-10.4107 7.53125 3.6796)
(-3.7599 -28.6318 8.05767)
(-3.7599 -28.6318 8.05767)
(-3.76075 -28.6299 8.05738)
(-6.33081 -14.5091 6.36507)
(-3.75991 -28.6318 8.05766)
(-3.7599 -28.6318 8.05767)
(-3.7603 -28.6307 8.05752)
(-5.35664 -19.7838 7.01007)
(-3.75994 -28.6318 8.02894)
(-3.7599 -28.6318 8.03116)
(-3.76017 -28.631 8.02884)
(-4.92032 -22.1566 7.27447)
)
;
    }
    procBoundary29to30
    {
        type            processor;
        value           nonuniform List<vector> 
20
(
(-10.3552 7.49855 3.49341)
(-10.5073 7.62971 3.68731)
(-10.4415 7.59728 3.6822)
(-10.4082 7.50149 3.67969)
(-10.0301 7.33806 3.3024)
(-10.4415 7.63484 3.68219)
(-10.4082 7.60508 3.67969)
(-10.4079 7.51729 3.67973)
(-0.327587 -0.839048 -3.97008)
(-10.294 7.47942 3.56495)
(-10.4075 7.59572 3.679)
(-10.4073 7.50029 3.67914)
(-13.3206 -2.28016 8.93646)
(-13.291 -2.33858 8.82725)
(-1.85231 -8.52426 -4.32054)
(-1.82822 -8.42083 -4.34789)
(-13.2915 -2.28024 8.89095)
(-13.3184 -2.28028 8.88958)
(-13.1725 -2.40898 8.68135)
(-0.453525 -10.9806 -5.59294)
)
;
    }
}


// ************************************************************************* //
