/*--------------------------------*- C++ -*----------------------------------*\
| =========                 |                                                 |
| \\      /  F ield         | OpenFOAM: The Open Source CFD Toolbox           |
|  \\    /   O peration     | Version:  2.4.0                                 |
|   \\  /    A nd           | Web:      www.OpenFOAM.org                      |
|    \\/     M anipulation  |                                                 |
\*---------------------------------------------------------------------------*/
FoamFile
{
    version     2.0;
    format      ascii;
    class       labelField;
    location    "0.02/lagrangian/defaultCloud";
    object      origId;
}
// * * * * * * * * * * * * * * * * * * * * * * * * * * * * * * * * * * * * * //


80
(
8
9
7
5
6
0
1
2
3
4
34
32
33
30
25
22
14
16
10
12
31
29
26
27
28
24
21
23
17
18
19
20
14
15
16
10
11
12
4
5
6
8
0
1
2
3
34
32
31
30
28
29
23
18
19
20
21
13
15
17
9
11
8
6
2
3
9
13
7
33
25
26
27
24
22
4
5
7
0
1
)


// ************************************************************************* //
