/*--------------------------------*- C++ -*----------------------------------*\
| =========                 |                                                 |
| \\      /  F ield         | OpenFOAM: The Open Source CFD Toolbox           |
|  \\    /   O peration     | Version:  2.4.0                                 |
|   \\  /    A nd           | Web:      www.OpenFOAM.org                      |
|    \\/     M anipulation  |                                                 |
\*---------------------------------------------------------------------------*/
FoamFile
{
    version     2.0;
    format      ascii;
    class       Cloud<softParticle>;
    location    "0.02/lagrangian/defaultCloud";
    object      positions;
}
// * * * * * * * * * * * * * * * * * * * * * * * * * * * * * * * * * * * * * //

80
(
(0.0230183 0.00142258 0.000207746) 16
(0.0242698 0.00151719 0.000305504) 18
(0.022658 0.000320404 0.000156897) 6
(0.0219645 9.2526e-05 0.00020869) 5
(0.0217523 0.00120327 0.000131889) 4
(0.0208248 0.000146189 0.000197697) 3
(0.0210122 0.000143572 0.000493532) 3
(0.0211225 0.000267239 0.000109688) 3
(0.0211406 0.000794424 0.000291818) 3
(0.021428 0.000504801 0.000133789) 4
(0.0207269 0.000335288 0.000324762) 3
(0.0205395 0.000135008 0.000179255) 2
(0.0202136 0.000163468 0.000381396) 2
(0.0205941 0.000113249 0.000694071) 2
(0.0205313 0.00027206 0.000470388) 2
(0.0205355 0.0003268 0.000771206) 2
(0.0229743 0.00183298 0.00361452) 56
(0.0236219 0.00206966 0.00226488) 57
(0.0235617 0.0014986 0.0013284) 17
(0.0230686 0.000721048 0.00233087) 46
(0.0200027 0.000304073 0.000110108) 2
(0.0203218 8.84282e-05 0.000880008) 2
(0.0202072 0.000241422 0.000769274) 2
(0.0201195 0.000479703 0.00102162) 2
(0.0200367 0.000127991 0.000226559) 2
(0.0205989 0.000109459 0.000514884) 2
(0.0200334 0.000279069 0.000508492) 2
(0.0201551 0.000535381 0.000733369) 2
(0.0209814 0.000866338 0.000587724) 3
(0.0196541 0.000137419 8.68625e-05) 1
(0.0195881 0.00011762 0.00167613) 1
(0.0198586 0.00020836 0.00121952) 1
(0.0198945 0.000114243 0.000724585) 1
(0.0202795 0.000795728 0.000490735) 2
(0.0199466 0.000537334 0.000892407) 1
(0.0197481 0.000311662 0.000383072) 1
(0.0201474 0.0006053 0.00054266) 2
(0.02081 0.00108507 0.000597047) 3
(0.0209006 0.00153862 0.00097104) 13
(0.0203852 0.000695361 0.00159206) 2
(0.0210926 0.00198038 0.000211745) 13
(0.0211025 0.00106833 8.71758e-05) 3
(0.0205821 0.000856181 0.000368598) 2
(0.02097 0.00206291 0.000662004) 13
(0.020302 0.00084551 0.00014123) 2
(0.0205911 0.00154618 0.00086596) 12
(0.0207326 0.00123752 0.00153047) 3
(0.020968 0.000652316 0.00201747) 43
(0.0203532 0.00328709 0.000181268) 22
(0.0202703 0.00404174 0.000112889) 32
(0.0209557 0.00202497 0.00116238) 13
(0.0205093 0.000941462 0.000552511) 2
(0.0209864 0.000331278 0.00170683) 3
(0.0218667 0.00161346 0.00241505) 54
(0.0214449 0.000147375 0.00273403) 44
(0.0204798 0.00269116 0.000512194) 22
(0.020939 0.00243544 0.00152547) 13
(0.0220952 0.00224459 0.00345099) 55
(0.0209163 0.0024666 0.00310873) 53
(0.021955 0.00111479 0.00375524) 45
(0.0214558 0.00410479 0.00142539) 34
(0.0211063 0.00335445 0.00233925) 63
(0.0227265 0.00133553 0.00122054) 16
(0.0229137 0.00325818 0.00140186) 26
(0.0228275 0.00280876 0.00100717) 26
(0.0231479 0.0017914 0.00137421) 17
(0.0196933 0.000173614 0.000563152) 1
(0.0195568 0.000357974 0.000310858) 1
(0.0196703 0.000490355 0.000839321) 1
(0.0199631 0.000773869 0.000430478) 1
(0.0198207 0.00203225 0.000282356) 11
(0.0201363 0.000547518 0.00136519) 2
(0.0193029 0.00330556 0.000219317) 20
(0.0203664 0.0014704 0.0020825) 52
(0.0201459 0.00149574 0.00226193) 52
(0.0199069 0.000351523 0.00108773) 1
(0.0193305 0.000789424 0.000474777) 0
(0.0202644 0.00181007 0.000694873) 12
(0.0199022 0.0010847 0.000777689) 1
(0.0202891 0.00200693 0.000828948) 12
)


// ************************************************************************* //
