/*--------------------------------*- C++ -*----------------------------------*\
| =========                 |                                                 |
| \\      /  F ield         | OpenFOAM: The Open Source CFD Toolbox           |
|  \\    /   O peration     | Version:  2.4.0                                 |
|   \\  /    A nd           | Web:      www.OpenFOAM.org                      |
|    \\/     M anipulation  |                                                 |
\*---------------------------------------------------------------------------*/
FoamFile
{
    version     2.0;
    format      ascii;
    class       labelField;
    location    "0.02/lagrangian/defaultCloud";
    object      tag;
}
// * * * * * * * * * * * * * * * * * * * * * * * * * * * * * * * * * * * * * //


80
(
79
80
78
76
77
71
72
73
74
75
70
68
69
66
61
58
15
17
11
13
67
65
62
63
64
60
57
59
53
54
55
56
50
51
52
46
47
48
40
41
42
44
36
37
38
39
35
33
32
31
29
30
24
19
20
21
22
14
16
18
10
12
9
7
3
4
45
49
43
34
26
27
28
25
23
5
6
8
1
2
)


// ************************************************************************* //
