/*--------------------------------*- C++ -*----------------------------------*\
| =========                 |                                                 |
| \\      /  F ield         | OpenFOAM: The Open Source CFD Toolbox           |
|  \\    /   O peration     | Version:  2.4.0                                 |
|   \\  /    A nd           | Web:      www.OpenFOAM.org                      |
|    \\/     M anipulation  |                                                 |
\*---------------------------------------------------------------------------*/
FoamFile
{
    version     2.0;
    format      ascii;
    class       vectorField;
    location    "0.02/lagrangian/defaultCloud";
    object      U;
}
// * * * * * * * * * * * * * * * * * * * * * * * * * * * * * * * * * * * * * //


80
(
(0.706156 0.119535 0.224701)
(0.976814 0.716496 -0.0825915)
(0.609259 0.150887 0.0340753)
(1.5715 0.200824 0.169244)
(0.595417 0.0965925 0.0748097)
(0.511925 -0.250988 0.156927)
(0.656215 -0.0151605 0.210784)
(0.540877 -0.00509954 0.0607781)
(0.603099 0.0148092 0.0981557)
(0.612877 0.0782621 0.0637039)
(1.02211 0.0581727 -0.0791133)
(1.14491 0.0936377 -0.022785)
(1.04962 -0.108775 -0.0159009)
(1.12692 -0.137224 0.0536615)
(0.737638 -0.0395879 0.191265)
(1.00326 0.02127 0.166514)
(2.18568 0.145397 0.89534)
(2.40613 0.27927 0.282735)
(2.31472 0.243076 0.340428)
(2.16523 0.0802105 0.499544)
(1.00211 0.121445 0.00863206)
(0.969863 0.00413923 0.127151)
(1.04347 0.112031 0.141556)
(1.42688 0.365485 0.122439)
(0.839079 0.036432 0.22889)
(1.11882 0.274189 0.0904905)
(0.92063 0.0860873 0.280547)
(1.02943 0.133412 0.12265)
(1.42099 0.160323 0.147006)
(0.845309 0.01921 -0.0277888)
(0.893926 -0.00342739 0.349127)
(0.964132 -0.0773481 0.379046)
(0.914984 0.0593543 0.158718)
(1.32631 0.146583 0.192394)
(1.21223 0.122691 0.258781)
(0.860185 0.0395388 0.0649217)
(1.4016 0.0410857 0.277119)
(1.4876 0.208257 0.164125)
(1.61795 0.302498 0.319776)
(1.46463 0.244028 0.526478)
(1.57024 0.482296 -0.00691162)
(1.1516 0.731503 0.0243418)
(1.31623 -0.0225554 0.289528)
(1.60282 0.392803 0.198562)
(1.36135 0.241478 0.109932)
(1.7413 0.509258 0.289528)
(1.63881 0.321065 0.510937)
(1.81536 -0.163469 0.737647)
(1.44332 0.780713 -0.00515563)
(1.39661 0.827087 0.0487618)
(2.98018 0.770632 0.70283)
(1.18183 -0.0208351 0.202537)
(1.79198 -0.111328 0.59814)
(1.97659 0.24957 0.560319)
(2.00661 0.0811469 0.732414)
(1.7754 0.722076 0.0680392)
(1.70854 0.662679 0.253985)
(2.33235 0.731023 0.230009)
(1.84077 0.308476 0.606146)
(2.0937 0.115309 0.627729)
(1.9036 1.07183 0.114675)
(1.93103 0.700493 0.535391)
(2.22034 0.201343 0.229496)
(2.59349 1.07468 0.272626)
(2.76975 0.908544 0.134945)
(2.81331 0.395124 0.27755)
(1.21098 0.166153 0.145159)
(1.04145 0.295066 0.107861)
(0.980411 0.139465 0.213983)
(1.23665 0.505499 0.0160715)
(1.29516 0.479949 0.0479683)
(1.61231 0.394612 0.358741)
(1.11792 0.798024 0.0266039)
(1.77195 0.688962 0.645185)
(1.78851 0.617396 0.641316)
(1.08929 -0.00490433 0.355289)
(1.36983 0.382497 0.248239)
(1.62559 0.383711 0.225656)
(3.01321 0.738161 0.508316)
(1.87947 0.781859 0.206648)
)


// ************************************************************************* //
