/*--------------------------------*- C++ -*----------------------------------*\
| =========                 |                                                 |
| \\      /  F ield         | OpenFOAM: The Open Source CFD Toolbox           |
|  \\    /   O peration     | Version:  2.4.0                                 |
|   \\  /    A nd           | Web:      www.OpenFOAM.org                      |
|    \\/     M anipulation  |                                                 |
\*---------------------------------------------------------------------------*/
FoamFile
{
    version     2.0;
    format      ascii;
    class       volSymmTensorField;
    location    "0.03";
    object      B;
}
// * * * * * * * * * * * * * * * * * * * * * * * * * * * * * * * * * * * * * //

dimensions      [0 2 -2 0 0 0 0];

internalField   nonuniform List<symmTensor> 
200
(
(3.63567 0.161173 0.1964 5.94119 -1.11386 6.43115)
(1.05343 -0.226522 -0.564504 2.15429 -0.626192 3.88582)
(5.23998 0.903396 -0.760656 8.09478 -1.5198 9.92118)
(2.10414 0.184255 -1.04362 4.35666 -0.66341 5.60974)
(8.32482 -0.342116 -1.05648 9.41949 -0.536635 10.7597)
(5.38898 -3.23826 -0.978077 7.50846 -0.928424 9.66198)
(2.52633 -8.66616 -1.893 1.42553 -4.71558 13.9027)
(5.52683 -2.04226 -2.93005 3.63699 -0.538749 7.56072)
(5.63477 -2.60976 -0.22612 6.80134 -0.855941 11.5058)
(0.727222 -5.65996 -2.06562 4.38072 -0.371227 8.74002)
(0.0162763 -0.0789994 0.0121497 0.493228 -0.285139 0.784853)
(3.28684 0.0978588 -0.310346 5.13424 -1.08821 5.28174)
(0.225611 0.894026 -1.12495 3.27977 -0.596665 3.9865)
(4.28265 0.189698 -1.68573 8.39609 -1.05219 9.02624)
(4.06426 -2.62782 -1.54111 2.38066 -1.51793 6.38987)
(2.05058 -3.67546 -1.1431 5.54165 -2.47306 8.31552)
(4.35351 -1.0027 -0.707344 12.6855 -2.85738 10.6648)
(26.7552 -8.39755 0.392925 46.8314 -7.0105 46.0977)
(16.3606 -3.12741 -4.73195 31.7631 -1.9747 31.1906)
(87.9682 10.831 -22.5237 153.871 -13.7444 137.181)
(1.68969 -0.244401 -0.287557 2.37888 -0.517544 1.46999)
(-1.18461 0.47565 -0.474653 0.899968 -0.0609395 0.448461)
(0.869291 0.547236 -0.11367 3.87746 -0.118553 3.61815)
(9.20204 -2.24633 -3.19357 8.1485 0.115822 10.1119)
(2.58128 -3.93352 -1.28477 10.1942 -1.62038 9.46591)
(0.915161 1.66445 1.67644 20.0946 -0.3981 15.6462)
(8.37055 0.896409 -10.5116 40.518 -3.1464 37.8525)
(24.6655 -0.194532 -4.4493 42.6296 1.76535 38.3964)
(81.8125 14.0377 -28.9056 142.366 -15.3184 126.351)
(-15.9299 -4.99382 12.4338 14.4332 16.2534 14.9631)
(0.146695 0.0993959 0.0200866 1.15612 -0.420534 0.498403)
(0.550201 -0.104057 0.214185 1.5327 0.542317 0.692427)
(2.02849 -0.124396 -0.98868 3.23518 0.00949389 4.41575)
(1.66052 0.0207518 -1.38545 6.23127 -0.0125727 8.74105)
(4.01149 0.52311 -0.533371 9.16466 0.792332 8.80151)
(1.37187 -1.27012 -5.57563 15.6716 1.66477 22.7903)
(-0.543853 3.05164 0.966881 8.44453 0.0811636 12.4918)
(65.0919 3.39965 -12.1886 65.2914 4.30009 77.7476)
(0.950417 -10.8287 -11.5096 11.6654 0.855784 33.7632)
(30.4422 6.18546 -18.6193 23.528 10.4724 69.088)
(0.18194 -0.212533 0.159916 0.406292 -0.000167228 0.49359)
(3.23057 -0.0714476 1.65398 5.71177 -0.148026 5.09256)
(-0.180109 -0.356273 0.05913 -0.0102448 0.0162573 0.135237)
(1.12711 -0.209598 1.08234 0.897396 0.0312908 1.07847)
(1.58765 -2.40541 2.78945 1.96817 0.902137 0.381243)
(4.08695 -2.62419 1.22721 1.16379 0.997344 3.88069)
(8.45908 -2.28005 0.954513 3.78167 1.91155 4.7231)
(9.47152 -2.71651 5.28417 10.3865 2.56345 12.2711)
(13.321 -1.64242 1.48151 5.74813 3.23102 8.80999)
(24.9644 -1.88711 2.44542 18.124 3.75594 21.2251)
(1.3432 -0.647988 1.10572 2.5635 -0.646924 1.56504)
(-0.00123898 -0.169451 0.118058 0.156588 -0.0439929 0.342401)
(3.13977 -0.559777 1.07767 5.09789 -0.617441 5.23404)
(-0.491946 -0.616017 0.541081 0.303721 -0.244649 0.268015)
(1.41621 -1.35944 0.295861 2.03312 -0.320144 2.86406)
(4.54418 -3.62698 0.254985 2.03183 0.853481 2.6498)
(8.66316 -1.78867 3.39876 9.66721 1.91278 11.845)
(5.57516 -1.80785 2.47111 6.7858 3.40047 5.53767)
(11.4951 -2.57244 3.84824 14.9853 1.73001 16.3033)
(15.8058 -17.2729 14.6821 13.614 13.5136 29.2006)
(-0.0720518 -0.0924881 0.0894786 -0.203375 -0.0779813 0.0993845)
(2.46275 -0.826299 2.00616 3.72194 -1.51935 2.42)
(-0.32193 -0.274328 0.245885 0.918552 0.196187 0.995724)
(4.10426 -0.765592 1.47827 6.73606 0.0564934 7.04812)
(-0.18605 -1.521 -0.15952 1.40608 0.354935 1.3928)
(0.834794 -2.20939 0.860484 5.43254 1.02044 5.0384)
(1.64311 0.272963 10.9911 20.9417 4.20197 2.57501)
(4.29717 -1.98892 4.38743 10.2927 0.693725 13.4378)
(50.8356 -4.27087 7.38412 75.7943 9.4504 63.9029)
(11.7565 -3.10354 7.29396 24.8371 -3.96225 39.9032)
(0.0782531 0.0159883 -0.705191 2.29787 0.432732 1.08792)
(1.40677 0.0591994 0.431339 2.09953 -0.254464 2.03626)
(11.2064 -0.664201 4.48777 11.9916 0.500713 10.8601)
(0.139751 -0.158588 -0.137433 1.87842 0.718073 1.0949)
(2.9289 -0.698799 0.567107 8.12218 -0.810354 7.89945)
(-2.37018 3.13345 5.48522 15.0371 2.57328 -1.4722)
(-1.22846 -1.82927 3.07598 8.72487 -0.798119 8.69007)
(58.3098 14.1264 32.7294 64.5763 -0.522356 39.4323)
(14.7805 -2.88701 3.61151 9.32592 6.86661 38.0117)
(-26.9987 -36.5541 -9.55974 84.0947 5.50009 45.5252)
(15.5182 -1.76156 4.20981 17.8209 -0.470627 14.0151)
(2.67193 -1.02797 -0.13999 2.41916 0.151263 2.04688)
(11.5006 -1.69422 -0.278195 8.20921 0.715662 6.06075)
(11.6635 -0.940001 -0.782768 6.39855 0.786444 3.91487)
(9.81144 -0.108122 2.07238 4.61002 1.49701 4.54703)
(10.4179 1.10918 2.2748 6.55588 1.30615 4.45592)
(10.7964 -0.0235364 2.34089 9.68895 2.78011 9.84817)
(8.07559 0.799372 1.36332 6.63541 1.91171 6.20835)
(15.166 -0.489708 2.65005 12.6697 4.02336 12.8805)
(15.338 0.606638 1.0474 11.2912 2.92928 13.9073)
(2.47518 -0.33284 0.289822 1.36962 0.00487035 2.04665)
(10.2038 -1.48737 3.2576 8.76816 -1.07752 7.8802)
(4.90739 -1.7869 -0.541529 4.16859 0.635703 3.37874)
(8.28376 -2.32306 0.261343 6.20459 1.2976 5.57345)
(12.5113 -0.785376 1.02544 5.87379 0.675875 4.7649)
(17.544 0.562806 4.27019 12.0211 1.73141 14.6688)
(16.1177 0.184958 4.27744 7.00116 2.10896 9.86537)
(17.2997 -2.00896 6.11813 12.5208 4.19369 15.7337)
(22.4287 -1.74974 5.80296 16.7843 3.99321 19.6898)
(41.4131 -2.12033 3.04785 30.8944 7.55802 32.3226)
(1.26211 -0.365826 0.240488 -0.40596 -0.0291361 0.47515)
(1.01441 -0.115401 0.498119 0.52032 0.352011 1.53926)
(13.2838 -1.24641 3.12331 12.7386 -0.670634 12.4444)
(4.52331 -1.76652 -1.06973 4.36548 0.495415 2.97321)
(3.64834 -1.31445 0.350486 3.08704 0.954185 2.61119)
(5.21733 -1.16214 0.72187 2.44565 0.45596 1.58768)
(13.5256 -0.342748 4.70665 8.16102 0.765984 10.6591)
(31.1796 -0.851834 7.98504 21.788 0.416713 22.072)
(43.7662 -3.1513 19.5493 32.9437 5.20311 41.1965)
(33.7927 -4.04846 1.26583 11.4396 8.35763 4.75058)
(1.32739 -0.0158696 0.381092 2.03181 -0.205038 2.49895)
(3.15162 -0.253183 2.0702 2.58304 2.2455 3.77547)
(0.899352 -0.080561 -0.310336 0.361003 -0.331015 0.361713)
(14.6926 -1.1753 4.22053 14.6894 -1.02187 13.3892)
(3.33692 -0.489334 -0.201474 6.0454 2.3538 1.88894)
(6.60214 -1.02183 1.89856 8.84481 -1.66785 6.35587)
(5.9356 0.399929 1.5753 7.00499 2.83851 1.11862)
(21.5006 -0.705186 13.7048 16.4583 -5.17497 18.0211)
(58.2269 -0.538808 13.4174 41.5484 1.09491 32.1694)
(107.591 0.9898 13.0838 91.536 -0.0425257 98.0922)
(9.53666 -0.921392 -0.992911 5.07788 0.0653883 4.82304)
(19.2338 -2.85317 1.72034 17.5056 -1.29086 15.7646)
(10.6008 -2.13671 -2.01089 7.86921 0.329076 5.45244)
(6.10606 -0.459885 -0.278073 2.29159 0.712248 2.50502)
(3.61732 0.624482 0.661974 1.40124 0.289806 0.294465)
(4.96898 0.917172 0.657502 3.68208 0.587861 3.45206)
(3.56669 1.01953 0.589436 3.32108 0.399616 1.46662)
(6.81153 1.49428 0.459668 5.13701 0.833564 4.30737)
(4.20247 0.902539 0.11846 3.17993 0.545183 1.72133)
(6.35312 1.37154 -0.418444 4.60302 0.991896 4.49904)
(6.3212 -0.546869 1.49746 -0.881554 -1.02169 4.34601)
(4.97729 -0.84439 -0.6938 2.11712 0.674162 0.902882)
(15.0157 -2.99332 2.36314 12.1072 -0.758423 10.677)
(7.9756 -1.53271 -1.34293 5.21707 1.00231 3.68385)
(6.03684 0.270684 0.763456 3.4008 0.448405 3.93561)
(11.4891 1.67331 1.95209 4.80105 0.142859 4.89421)
(7.49745 0.602961 1.2764 2.6392 0.144518 3.47575)
(3.90431 -0.0832376 0.825125 2.0964 0.0458061 0.44999)
(10.7482 0.504468 0.503687 5.75918 1.92564 4.96531)
(7.53052 0.508734 -1.0841 4.94733 -0.234108 3.23053)
(0.259647 0.0852216 0.189727 -0.235546 0.34383 0.11675)
(7.4611 -0.482651 4.01651 2.52293 -0.634897 6.44332)
(5.41155 -1.08201 -1.6212 3.53468 0.576956 1.35849)
(9.8865 -1.96193 1.99123 8.05258 0.362189 6.93507)
(3.80429 -0.755682 -0.61019 2.26468 0.435588 1.13847)
(2.73544 -0.254039 0.426894 0.737702 0.306527 1.49627)
(10.9215 0.463256 1.03157 7.58984 -0.217355 7.79006)
(32.4741 1.62957 5.46293 19.233 0.0618708 21.594)
(18.4128 -1.45827 -0.985651 6.78455 -0.0716405 2.45236)
(23.8338 -0.0531297 -3.14802 11.8795 2.2927 11.0637)
(2.10062 0.100767 -0.0439276 1.2574 1.57314 1.46816)
(1.03622 0.164668 0.107773 0.293833 -0.78199 -0.281769)
(12.2067 -0.58946 5.13033 9.53261 0.537163 11.0807)
(5.45113 -0.787489 -2.13068 4.71923 1.67336 1.43468)
(6.33983 -0.809462 1.43214 6.58601 -1.56125 4.08954)
(7.68648 0.279394 0.149415 7.78117 3.53577 3.25777)
(6.59816 0.267365 1.07286 5.09241 -1.84565 4.24081)
(20.2195 -0.105258 3.31508 13.8658 2.22469 13.3924)
(70.2939 2.23644 7.55241 34.6208 -7.60221 38.1488)
(55.5457 1.05795 -3.83042 21.1004 9.74457 16.1263)
(9.05083 -0.655091 0.238911 5.64011 -0.352976 9.18274)
(3.15691 -0.678357 -0.53761 0.996458 -0.153478 2.09928)
(5.28228 -1.03933 -0.179739 3.47383 0.422618 6.12175)
(1.81472 -0.155002 0.0490255 0.542536 -0.145624 2.59714)
(2.56794 0.407889 0.375739 1.37164 0.942183 5.20255)
(0.95639 0.813834 0.265985 0.622619 -0.0414582 1.36097)
(2.83666 1.39532 0.161684 2.25966 0.750244 3.35747)
(3.0211 1.07005 -0.444411 2.50416 -0.298923 2.14449)
(9.20358 2.41533 0.479454 6.90905 1.0492 7.76262)
(4.24384 1.6549 0.01321 2.53217 0.135611 1.24493)
(8.02922 -0.756309 -3.79437 4.78211 1.67351 4.92087)
(5.16262 -0.971398 0.301225 4.34117 -0.0619958 6.70461)
(0.336331 -0.368029 -0.0727679 -0.18269 -0.0255806 0.141024)
(1.38788 -0.403725 0.19411 0.70396 0.585072 2.88475)
(2.79754 0.498714 0.316413 0.971194 -0.0572684 2.53395)
(3.1449 0.989989 0.503969 0.936908 0.471131 2.65223)
(3.56159 0.558535 -0.816095 1.15785 -0.506499 1.90655)
(4.7028 0.601118 0.418629 1.55736 0.349428 3.17041)
(3.24609 0.364695 -0.197116 1.36096 -0.301574 1.04563)
(11.7465 1.96849 0.845601 6.67641 0.957308 7.90093)
(5.47477 -0.271883 3.34485 3.13127 -0.872032 4.15808)
(7.95153 -0.548725 -3.18861 6.17249 1.08945 5.06836)
(4.33437 -0.635558 0.743498 4.61055 0.0923824 5.80088)
(-0.239722 -0.110565 -0.0396863 -0.038896 -0.0184137 -0.0762795)
(0.603832 0.0666967 0.388923 0.537131 0.611277 1.88187)
(1.25182 0.0649369 -0.0701219 0.577613 -0.200838 1.12885)
(2.67881 0.0745703 0.440684 0.542313 0.473201 2.59982)
(5.43652 0.29206 -0.615893 2.88073 -0.571234 3.41858)
(14.0738 1.50294 1.02707 7.72486 0.0962951 9.55468)
(16.7296 0.299203 2.12318 8.54623 -0.50947 9.36046)
(1.13712 0.254881 -0.389867 0.781878 -0.539465 0.387433)
(5.30033 -0.310504 2.87267 5.11362 -0.226726 5.55703)
(3.58082 -0.0965945 -2.39877 4.16867 1.92034 1.67797)
(3.59465 -0.259452 1.12551 5.3981 -1.75258 4.65891)
(3.02654 0.337424 -0.695253 5.45653 2.67608 3.7442)
(3.48503 0.259885 1.07028 4.83008 -2.39144 4.54851)
(4.76284 0.584558 -0.321312 4.68309 2.95926 4.11094)
(7.85988 0.617767 0.632954 5.1412 -3.35503 6.39799)
(11.5955 -0.127706 -0.573359 5.9201 3.50354 5.49438)
(37.8107 2.13679 0.12955 21.3423 -6.65139 26.0198)
)
;

boundaryField
{
    inlet
    {
        type            calculated;
        value           nonuniform 0();
    }
    outlet
    {
        type            calculated;
        value           nonuniform 0();
    }
    bottom
    {
        type            calculated;
        value           nonuniform List<symmTensor> 
40
(
(-0.0744688 0.00827872 0.0253796 0.043955 -0.049281 0.119087)
(-0.0563352 -0.00862514 -0.00734305 -0.0042618 -0.0922102 0.0258574)
(0.00166705 -0.0145673 -0.0182383 0.0427453 -0.0373644 0.0482055)
(-0.0393395 0.00750601 -0.0170625 0.0368885 -0.044928 -0.053423)
(-0.085126 -0.0131539 -0.0708003 -0.0212005 -0.116621 0.136491)
(-0.050813 0.00503572 -0.0281525 0.0442522 -0.0554296 0.075295)
(-0.0493016 0.01552 -0.0246501 0.0187163 -0.0351305 -0.0353425)
(-0.0112257 -0.00476762 -0.00635805 0.0337899 0.0338996 0.122493)
(-0.0886505 0.0363856 -0.0469905 0.026331 -0.051495 0.0925464)
(-0.0978731 0.0351794 -0.0697403 0.0223061 -0.0852484 0.0638088)
(-0.070149 0.0222378 -0.0275428 0.0520925 0.0128443 0.0810204)
(-0.0539935 -0.00638922 -0.0630583 0.00798414 -0.0162731 0.088793)
(-0.0891947 0.00872395 -0.121773 0.017456 -0.0967114 0.152648)
(-0.0940415 0.00683656 -0.110078 0.0542032 0.00761508 0.0589273)
(0.00992615 -0.0804491 -0.141773 -0.0278048 -0.00742037 0.0527995)
(-0.133115 0.000697551 -0.0876314 0.0205265 0.00512077 0.11426)
(-0.055571 -0.0229969 -0.129161 0.0180125 0.00155679 0.0770895)
(-0.0288563 -0.0970102 -0.116463 -0.0910088 -0.120674 0.0498728)
(-0.0970977 -0.084111 -0.0311633 0.0656905 -0.0840071 -0.0693642)
(-0.132451 0.0220326 -0.0876046 0.0845925 0.0270409 0.11219)
(-0.0983411 -0.130953 -0.136373 -0.0126305 -0.118214 0.102744)
(-0.085743 -0.0894093 -0.0879652 -0.000819037 -0.117253 0.0726939)
(-0.243336 0.0338593 -0.0307164 0.146826 -0.0771376 0.116381)
(-0.171434 -0.0187499 -0.162678 0.0396615 0.0908068 0.252653)
(-0.0789664 -0.131521 -0.137229 -0.0956725 -0.144485 0.111963)
(-0.070375 -0.0194479 -0.118454 0.0912284 -0.187624 0.136307)
(-0.226037 0.0106123 -0.225478 0.154544 -0.0218062 0.209608)
(-0.131035 0.0552171 -0.116735 0.031603 -0.0249104 0.154925)
(0.00594133 -0.0544716 -0.225891 -0.0444649 -0.192181 0.186328)
(-0.105875 -0.105421 -0.081352 0.146156 -0.147669 0.215455)
(-0.354805 -0.00625545 -0.301983 0.222854 0.0115365 0.0743879)
(-0.0776011 0.0859455 -0.425749 -0.0725581 0.255627 0.586085)
(-0.0854583 -0.094461 -0.104315 -0.0432341 -0.104765 0.0464263)
(-0.395655 -0.10557 -0.3101 0.124273 -0.273544 0.349236)
(-0.289938 0.137591 -0.524378 0.303585 -0.106678 0.163597)
(-0.204138 -0.128101 -0.313625 -0.0773815 -0.00127118 -0.255275)
(-0.146283 -0.148673 -0.260025 -0.0503146 -0.261154 0.342915)
(-0.48388 0.139632 -0.536523 0.365729 -0.226178 0.0445295)
(-0.16803 -0.0345763 -0.169154 0.0421987 0.238642 -0.160471)
(-0.0105952 0.0371029 -0.315335 -0.0520696 0.0690506 0.548542)
)
;
    }
    top
    {
        type            symmetryPlane;
    }
    side1
    {
        type            symmetryPlane;
    }
    side2
    {
        type            symmetryPlane;
    }
    procBoundary27to19
    {
        type            processor;
        value           nonuniform List<symmTensor> 
50
(
(-2.32305 -0.136827 -0.0909359 -0.559762 -0.751099 1.78037)
(-3.07324 1.64856 -0.614188 2.32854 -1.84645 3.35456)
(-0.771251 -0.0497005 -0.781659 -1.071 -0.490994 1.49577)
(0.368432 -0.217968 -1.53838 -2.47507 -0.298391 2.15689)
(-4.49253 -4.97966 -1.68003 -0.173689 -1.03988 2.78667)
(0.2851 -0.797392 -0.883949 -4.80007 -2.52035 4.46049)
(5.34137 -2.188 -3.36539 -7.84281 -0.808479 2.80238)
(-2.7442 -8.31284 0.381968 -1.77516 -1.24317 2.6672)
(0.493737 -3.54789 -3.85113 -2.43847 -1.96337 2.38807)
(0.294255 -0.117421 0.0810695 -1.08582 0.150282 0.237987)
(-3.57937 2.04239 1.43543 5.29196 -0.785964 0.529276)
(-0.726331 -0.194672 0.110082 -0.0316878 0.00668882 0.024347)
(1.4926 1.89507 1.11257 -0.325322 0.288056 0.560957)
(0.145202 -0.822782 -0.102379 -0.802413 -0.0748353 -0.592294)
(4.19563 -0.486428 0.907318 -3.98275 0.998709 -0.461868)
(3.64129 -0.916222 2.18494 -1.12441 2.33196 -1.75528)
(3.79822 -3.03121 4.15613 -3.45432 2.07231 -0.777257)
(3.94193 0.13628 1.13587 -2.7503 1.64793 -0.111239)
(2.36223 -1.39252 3.00663 -2.98245 3.82003 -0.140837)
(4.86154 2.84968 -0.541774 -2.73167 1.85552 1.73112)
(-0.0693826 -0.62429 -0.51907 0.16398 -0.275607 -0.187775)
(-1.39607 1.47746 1.27657 4.78195 0.192197 0.0316144)
(-0.355668 -0.795906 -1.03682 -0.0635796 -0.170253 -1.01821)
(11.4411 3.57192 -2.25831 -2.29316 0.175556 -2.8609)
(2.55157 1.40122 0.217175 -0.398387 0.25544 -1.97031)
(1.92475 1.135 0.774665 -1.24122 1.19936 -0.634715)
(1.82921 2.09804 0.510575 0.215537 0.996797 -1.45461)
(0.724296 0.503356 0.862993 -0.823866 1.85136 -0.165538)
(1.42956 1.84237 -0.0750997 -0.0302987 1.1715 -0.509166)
(1.22587 0.535604 0.313338 -1.24951 1.82319 -0.191512)
(5.44891 -5.18678 4.39194 -7.31786 -3.33573 -1.62878)
(0.473604 -1.24946 -0.656457 0.272194 -0.603697 -1.49647)
(0.878071 1.0627 -1.74032 4.51843 -0.679058 -1.86892)
(-0.503037 0.198451 -1.13814 0.199732 -0.679757 -1.52958)
(1.71342 3.46105 -0.0150754 0.356125 -0.599409 -0.410503)
(0.505736 2.17696 0.237365 0.156059 0.171622 -1.7178)
(1.07503 2.52227 0.827046 -0.296956 0.682165 -0.012601)
(0.504707 1.61653 0.0334698 0.054499 0.485181 -1.28322)
(1.16094 2.46101 -0.473216 -0.377897 0.431496 -0.184722)
(0.843739 1.76363 -0.425066 0.0244998 0.456046 -1.68581)
(6.69312 1.29795 -2.96565 -4.42663 -2.28221 -2.42666)
(1.78249 0.587606 -0.713182 -3.00542 -0.658113 0.527148)
(-0.0920064 -1.03363 -0.0587316 0.450812 -1.98944 0.00930902)
(-1.27681 -0.11176 -0.131441 1.1286 -0.275247 1.58481)
(-1.31276 0.777139 0.0949117 0.149442 -0.851554 1.1018)
(-1.03925 1.7815 0.165034 -0.438413 0.570683 2.13899)
(-0.291777 1.84738 0.0505412 -0.129558 -0.125832 0.357848)
(0.180156 2.8546 -0.244483 -0.477757 0.784498 0.779784)
(-0.0916002 2.26753 -0.943413 -0.189484 0.278427 -0.347921)
(1.19995 3.43271 0.0106462 -0.0905614 1.07591 1.0845)
)
;
    }
    procBoundary27to26
    {
        type            processor;
        value           nonuniform List<symmTensor> 
20
(
(-0.657253 -0.353971 0.358142 -0.211056 -0.541992 0.491569)
(-0.393629 -0.0672985 -0.403205 0.779721 -0.776264 -0.0173352)
(-0.0021209 -0.070714 0.0454998 0.0412313 -0.0353901 -0.109196)
(-0.0953549 -0.106747 -0.33418 0.479099 0.106453 -0.179633)
(-1.73294 -0.595573 1.62574 3.0993 -0.285581 -0.739305)
(-0.113702 -0.168967 0.148664 -0.103829 -0.0140481 0.0456957)
(-0.164235 -0.181568 -0.259702 0.100448 -0.0683503 -0.0425061)
(-0.456448 -0.316753 -0.18003 0.298749 -0.183653 0.222027)
(0.708183 -0.615246 0.248579 -0.532183 -0.426749 0.104309)
(0.341802 -0.0714223 0.845513 -0.581438 0.145482 -0.0420117)
(0.0437914 -0.217447 -0.00982493 -0.613475 0.307015 0.84013)
(-0.357004 0.0184647 -0.282382 0.0606467 0.500749 0.427025)
(4.40189 1.35266 2.06932 -4.66996 -1.08384 1.58331)
(0.487316 -0.0681818 -0.329584 -0.724512 0.103653 -9.92943e-05)
(0.146578 0.164144 -0.143993 -0.231631 0.0850486 -0.0095135)
(-0.152205 -0.0197185 0.145534 -0.0456688 -0.38946 0.0164141)
(3.54229 2.30252 -5.256 -3.05243 1.13292 -2.0175)
(2.71054 -0.0206833 2.75703 -1.61679 -0.921758 -0.184411)
(0.25634 0.416184 -0.263835 -0.389913 -0.017448 -0.357342)
(0.713865 0.10749 0.601886 0.176686 0.922657 -0.646688)
)
;
    }
    procBoundary27to28
    {
        type            processor;
        value           nonuniform List<symmTensor> 
20
(
(-9.29917 1.16605 -3.66249 1.80211 -1.50912 2.77205)
(-0.244743 -19.3417 29.6509 14.4173 28.895 6.81889)
(-32.2114 36.1325 -67.4791 19.5069 -16.5048 77.0535)
(-45.8702 -3.63074 127.301 -8.13217 -38.1624 23.0118)
(6.93683 -3.20366 1.15131 -7.42466 4.56293 0.140945)
(-4.29484 -8.20603 0.988089 -5.80538 1.57474 5.74328)
(29.9098 -38.7039 54.408 5.89566 29.83 -58.6442)
(-65.9245 11.0965 20.1116 24.278 -1.81427 37.6641)
(3.31742 -0.0755153 0.104602 -1.88182 3.06899 -0.556544)
(6.40495 -1.63186 0.105883 -3.84347 2.44201 -1.59204)
(26.0318 -3.73396 6.06976 -3.74493 12.302 -1.6947)
(12.7336 1.86866 15.7375 -9.39045 30.5649 -17.1263)
(1.30376 1.6786 -0.898081 -0.418375 -0.0731204 -1.80681)
(2.9556 0.558262 -2.74516 -2.35571 1.2548 -0.442708)
(6.2721 0.559137 2.87354 -3.52393 0.354735 -1.51493)
(16.1422 -0.28071 -1.93981 -7.38897 -2.80078 -7.22911)
(2.77048 3.38215 0.328338 -0.125005 1.45898 0.198687)
(1.04257 0.408172 0.863657 -0.681678 0.316473 -1.01734)
(6.10052 1.95428 -2.59735 -4.19928 0.190527 -1.2825)
(14.6499 -1.06835 6.23522 -9.3975 5.48046 -3.92177)
)
;
    }
}


// ************************************************************************* //
