/*--------------------------------*- C++ -*----------------------------------*\
| =========                 |                                                 |
| \\      /  F ield         | OpenFOAM: The Open Source CFD Toolbox           |
|  \\    /   O peration     | Version:  2.4.0                                 |
|   \\  /    A nd           | Web:      www.OpenFOAM.org                      |
|    \\/     M anipulation  |                                                 |
\*---------------------------------------------------------------------------*/
FoamFile
{
    version     2.0;
    format      ascii;
    class       surfaceScalarField;
    location    "0.03";
    object      phia;
}
// * * * * * * * * * * * * * * * * * * * * * * * * * * * * * * * * * * * * * //

dimensions      [0 3 -1 0 0 0 0];

internalField   nonuniform List<scalar> 
490
(
-6.43172e-06
-6.21327e-07
5.99088e-07
-6.43167e-06
2.57692e-07
6.0877e-07
-6.43164e-06
2.58312e-07
6.08779e-07
-6.43164e-06
2.58313e-07
6.08839e-07
-6.4238e-06
2.58315e-07
8.29931e-07
-4.1379e-06
2.67171e-07
4.04001e-06
-1.72213e-06
1.6945e-06
7.24917e-06
-1.57841e-06
1.73235e-06
7.36615e-06
-1.56999e-06
1.70422e-06
7.27984e-06
1.66117e-06
7.16594e-06
-6.17608e-06
-1.91979e-06
5.90623e-07
-6.43153e-06
2.53363e-07
5.9775e-07
-6.43164e-06
2.5831e-07
6.08528e-07
-6.43163e-06
2.58312e-07
6.08908e-07
-6.41016e-06
2.58317e-07
1.10315e-06
-3.99007e-06
2.76765e-07
3.77199e-06
-1.52067e-06
1.59599e-06
6.75781e-06
-1.43817e-06
1.59142e-06
6.71759e-06
-1.41651e-06
1.5541e-06
6.57792e-06
1.50204e-06
6.40354e-06
-6.05334e-06
-2.42047e-06
5.87342e-07
-6.43049e-06
2.36425e-07
5.97544e-07
-6.43164e-06
2.57858e-07
6.07232e-07
-6.43163e-06
2.57834e-07
6.0887e-07
-6.38551e-06
2.57812e-07
1.43121e-06
-3.88431e-06
2.90163e-07
3.54583e-06
-1.38215e-06
1.48731e-06
6.27404e-06
-1.31994e-06
1.46547e-06
6.16722e-06
-1.29058e-06
1.42289e-06
5.99518e-06
1.36565e-06
5.78475e-06
-6.02205e-06
5.86605e-07
-6.42676e-06
5.97422e-07
-6.43164e-06
6.04374e-07
-6.43161e-06
6.08396e-07
-6.34612e-06
1.73314e-06
-3.78468e-06
3.36013e-06
-1.27228e-06
5.83519e-06
-1.21865e-06
5.69435e-06
-1.18477e-06
5.50303e-06
5.27185e-06
-6.07172e-06
-2.41385e-06
5.87816e-07
-6.43097e-06
-1.15126e-06
5.97556e-07
-6.4316e-06
2.2619e-07
6.10738e-07
-6.27719e-06
2.52921e-07
3.03162e-06
-3.86535e-06
4.2012e-07
4.26019e-06
-1.5944e-06
1.75334e-06
7.42809e-06
-1.57341e-06
1.73544e-06
7.36898e-06
-1.55721e-06
1.71006e-06
7.28495e-06
-1.54032e-06
1.67844e-06
7.1803e-06
1.6346e-06
7.04399e-06
-5.60589e-06
-2.61252e-06
5.86247e-07
-6.01358e-06
-2.57946e-06
5.86482e-07
-6.4206e-06
2.85957e-08
5.97274e-07
-6.0459e-06
2.16271e-07
6.38362e-07
-3.5696e-06
5.47853e-07
4.22528e-06
-1.46141e-06
1.62204e-06
6.83125e-06
-1.43427e-06
1.59379e-06
6.71948e-06
-1.40625e-06
1.55869e-06
6.58142e-06
-1.37501e-06
1.51598e-06
6.41359e-06
1.45998e-06
6.20345e-06
-5.59912e-06
-2.59975e-06
5.86253e-07
-5.95873e-06
-2.59274e-06
5.86304e-07
-6.36328e-06
-4.96469e-07
5.95975e-07
-5.71316e-06
8.64166e-08
6.11073e-07
-3.1904e-06
6.62975e-07
4.26495e-06
-1.34847e-06
1.50128e-06
6.31113e-06
-1.31654e-06
1.46746e-06
6.16864e-06
-1.28142e-06
1.42684e-06
5.99787e-06
-1.24183e-06
1.37791e-06
5.7926e-06
1.31516e-06
5.54015e-06
-5.59818e-06
5.86259e-07
-5.85177e-06
5.86283e-07
-6.22802e-06
5.93118e-07
-5.32476e-06
6.03727e-07
-2.78291e-06
4.29428e-06
-1.2506e-06
5.85646e-06
-1.21551e-06
5.69547e-06
-1.17618e-06
5.50521e-06
-1.13183e-06
5.27833e-06
5.00241e-06
-5.59925e-06
-2.61249e-06
5.86247e-07
-5.96943e-06
-2.60706e-06
5.86307e-07
-4.6906e-06
-1.32974e-06
6.2644e-07
-2.31818e-06
-6.00334e-07
6.43574e-06
-1.58625e-06
1.74543e-06
7.43873e-06
-1.57151e-06
1.73683e-06
7.37024e-06
-1.55404e-06
1.71214e-06
7.28676e-06
-1.53268e-06
1.68217e-06
7.18339e-06
-1.50677e-06
1.64486e-06
7.05191e-06
1.59578e-06
6.87831e-06
-5.59756e-06
-2.61248e-06
5.86239e-07
-5.59775e-06
-2.61252e-06
5.86244e-07
-5.57247e-06
-2.61207e-06
5.86255e-07
-3.51942e-06
-2.57218e-06
6.64314e-07
-1.46892e-06
1.57485e-06
6.80202e-06
-1.4328e-06
1.59486e-06
6.72036e-06
-1.40373e-06
1.56032e-06
6.58268e-06
-1.36873e-06
1.51898e-06
6.41577e-06
-1.32651e-06
1.46843e-06
6.20908e-06
1.40414e-06
5.94589e-06
-5.5976e-06
-2.60061e-06
5.86241e-07
-5.59768e-06
-2.59974e-06
5.86246e-07
-5.58828e-06
-2.59877e-06
5.86252e-07
-3.50729e-06
-2.58291e-06
6.12061e-07
-1.38377e-06
1.3895e-06
6.2147e-06
-1.31527e-06
1.46836e-06
6.16932e-06
-1.27919e-06
1.42824e-06
5.99885e-06
-1.23613e-06
1.38053e-06
5.79431e-06
-1.18465e-06
1.32272e-06
5.54458e-06
1.25036e-06
5.23416e-06
-5.59763e-06
5.86243e-07
-5.5977e-06
5.86248e-07
-5.59262e-06
5.86253e-07
-3.50777e-06
5.989e-07
-1.33044e-06
5.66561e-06
-1.21436e-06
5.69601e-06
-1.1741e-06
5.50603e-06
-1.1264e-06
5.27975e-06
-1.06979e-06
5.00608e-06
4.67191e-06
-5.59756e-06
-2.61246e-06
5.84799e-07
-5.58213e-06
-2.61248e-06
5.84692e-07
-3.59489e-06
-2.59508e-06
6.40572e-07
-1.60087e-06
-3.83325e-07
7.41987e-06
-1.57064e-06
1.72643e-06
7.41945e-06
-1.55287e-06
1.71303e-06
7.35233e-06
-1.53088e-06
1.68343e-06
7.2706e-06
-1.50295e-06
1.64693e-06
7.16906e-06
-1.46628e-06
1.6008e-06
7.03963e-06
1.5406e-06
6.86909e-06
-5.59747e-06
-2.61245e-06
5.8491e-07
-5.59747e-06
-2.61245e-06
5.8479e-07
-5.573e-06
-2.61245e-06
5.84675e-07
-3.50777e-06
-2.57807e-06
6.6215e-07
-1.44291e-06
1.54982e-06
6.78023e-06
-1.4028e-06
1.56103e-06
6.70112e-06
-1.36726e-06
1.51999e-06
6.56601e-06
-1.32328e-06
1.47014e-06
6.40135e-06
-1.26743e-06
1.40836e-06
6.19659e-06
1.33015e-06
5.93608e-06
-5.59747e-06
-2.60147e-06
5.8479e-07
-5.59747e-06
-2.60056e-06
5.8467e-07
-5.58844e-06
-2.59965e-06
5.84552e-07
-3.49086e-06
-2.58528e-06
6.10044e-07
-1.3502e-06
1.364e-06
6.19302e-06
-1.27837e-06
1.42884e-06
6.15047e-06
-1.23481e-06
1.38142e-06
5.98275e-06
-1.18165e-06
1.32424e-06
5.78033e-06
-1.11568e-06
1.2542e-06
5.53199e-06
1.16761e-06
5.22408e-06
-5.59747e-06
5.84669e-07
-5.59747e-06
5.84549e-07
-5.59256e-06
5.8443e-07
-3.48695e-06
5.96861e-07
-1.29076e-06
5.64556e-06
-1.17335e-06
5.67853e-06
-1.12514e-06
5.4911e-06
-1.06687e-06
5.26649e-06
-9.95813e-07
4.99342e-06
4.6617e-06
-5.59759e-06
-2.61247e-06
-5.581e-06
-2.61249e-06
-3.60054e-06
-2.59379e-06
-1.61437e-06
-3.76305e-07
-1.58535e-06
1.74558e-06
-1.57068e-06
1.73729e-06
-1.5529e-06
1.71298e-06
-1.5309e-06
1.68348e-06
-1.50294e-06
1.64696e-06
1.60078e-06
-5.59747e-06
-2.61245e-06
-5.59747e-06
-2.61245e-06
-5.5714e-06
-2.61245e-06
-3.51781e-06
-2.57555e-06
-1.46763e-06
1.57412e-06
-1.43182e-06
1.59496e-06
-1.40277e-06
1.56104e-06
-1.36732e-06
1.52019e-06
-1.32331e-06
1.4702e-06
1.40841e-06
-5.59747e-06
-2.60056e-06
-5.59747e-06
-2.59965e-06
-5.58793e-06
-2.59874e-06
-3.50654e-06
-2.58348e-06
-1.38283e-06
1.38882e-06
-1.3146e-06
1.4688e-06
-1.27858e-06
1.42929e-06
-1.23498e-06
1.38193e-06
-1.18171e-06
1.32431e-06
1.25429e-06
-5.59747e-06
-5.59747e-06
-5.59233e-06
-3.50752e-06
-1.33025e-06
-1.21428e-06
-1.17396e-06
-1.12548e-06
-1.06696e-06
)
;

boundaryField
{
    inlet
    {
        type            calculated;
        value           nonuniform 0();
    }
    outlet
    {
        type            calculated;
        value           nonuniform 0();
    }
    bottom
    {
        type            calculated;
        value           uniform 0;
    }
    top
    {
        type            symmetryPlane;
        value           uniform 0;
    }
    side1
    {
        type            symmetryPlane;
        value           nonuniform 0();
    }
    side2
    {
        type            symmetryPlane;
        value           uniform 0;
    }
    procBoundary27to19
    {
        type            processor;
        value           nonuniform List<scalar> 
50
(
-2.58237e-07
-2.58314e-07
-2.58313e-07
-2.58313e-07
-2.58313e-07
-2.6153e-07
-1.71298e-06
-1.89763e-06
-1.88292e-06
-1.85152e-06
9.78636e-07
-2.55858e-07
-2.58311e-07
-2.58329e-07
-3.22425e-07
-1.89938e-06
-1.90259e-06
-1.89209e-06
-1.87787e-06
-1.85308e-06
2.54434e-06
1.17942e-06
-1.05447e-07
-1.11378e-06
-1.91221e-06
-1.9048e-06
-1.89532e-06
-1.88357e-06
-1.86835e-06
-1.8461e-06
2.61259e-06
2.59823e-06
3.49092e-07
-1.89628e-06
-1.9059e-06
-1.89671e-06
-1.88548e-06
-1.87144e-06
-1.85337e-06
-1.82924e-06
2.61261e-06
2.59893e-06
3.25622e-07
-1.90114e-06
-1.9135e-06
-1.90591e-06
-1.89673e-06
-1.88548e-06
-1.87142e-06
-1.85328e-06
)
;
    }
    procBoundary27to26
    {
        type            processor;
        value           nonuniform List<scalar> 
20
(
6.35055e-06
5.75918e-06
5.63745e-06
5.6099e-06
5.65533e-06
5.59754e-06
5.59757e-06
5.59761e-06
5.59754e-06
5.5975e-06
5.59751e-06
5.59753e-06
5.5975e-06
5.59747e-06
5.59747e-06
5.59747e-06
5.59751e-06
5.59747e-06
5.59747e-06
5.59747e-06
)
;
    }
    procBoundary27to28
    {
        type            processor;
        value           nonuniform List<scalar> 
20
(
-4.1711e-06
-3.82434e-06
-3.52987e-06
-3.27696e-06
-3.89845e-06
-3.4854e-06
-3.15156e-06
-2.87571e-06
-3.32884e-06
-2.84697e-06
-2.49098e-06
-2.21555e-06
-1.34074e-06
-1.15758e-06
-1.01804e-06
-9.07962e-07
-1.39311e-06
-1.22569e-06
-1.09385e-06
-9.87102e-07
)
;
    }
}


// ************************************************************************* //
