/*--------------------------------*- C++ -*----------------------------------*\
| =========                 |                                                 |
| \\      /  F ield         | OpenFOAM: The Open Source CFD Toolbox           |
|  \\    /   O peration     | Version:  2.4.0                                 |
|   \\  /    A nd           | Web:      www.OpenFOAM.org                      |
|    \\/     M anipulation  |                                                 |
\*---------------------------------------------------------------------------*/
FoamFile
{
    version     2.0;
    format      ascii;
    class       volVectorField;
    location    "0.03";
    object      Uc;
}
// * * * * * * * * * * * * * * * * * * * * * * * * * * * * * * * * * * * * * //

dimensions      [0 1 -1 0 0 0 0];

internalField   nonuniform List<vector> 
200
(
(-5.62224e-16 -7.39483e-19 1.74696e-16)
(-9.48978e-18 -1.24541e-20 2.94822e-18)
(-1.31739e-19 -3.51589e-21 5.95467e-21)
(-1.90216e-19 -3.96424e-19 -4.08499e-18)
(-2.0636e-17 -4.33574e-17 -4.46833e-16)
(-2.03758e-15 -4.28108e-15 -4.41197e-14)
(-1.75585e-13 -3.68917e-13 -3.80194e-12)
(-1.24833e-11 -2.62283e-11 -2.70299e-10)
(-6.57453e-10 -1.38137e-09 -1.42357e-08)
(-1.94826e-08 -4.09347e-08 -4.21854e-07)
(-1.42355e-18 -1.90171e-21 4.42418e-19)
(-2.60307e-20 -3.44825e-23 8.08707e-21)
(-3.9279e-22 -1.80097e-23 -6.09607e-23)
(-9.28449e-22 -1.94043e-21 -1.99972e-20)
(-9.39995e-20 -1.97493e-19 -2.0354e-18)
(-8.58284e-18 -1.80327e-17 -1.85846e-16)
(-6.78855e-16 -1.4263e-15 -1.46993e-14)
(-4.39041e-14 -9.22452e-14 -9.50656e-13)
(-2.08111e-12 -4.37258e-12 -4.50621e-11)
(-5.48258e-11 -1.15194e-10 -1.18714e-09)
(-3.2537e-21 -4.48052e-24 1.0116e-21)
(-6.40778e-23 -8.63642e-26 1.99081e-23)
(-1.0485e-24 -7.38075e-26 -4.31797e-25)
(-3.61509e-24 -7.56636e-24 -7.79789e-23)
(-3.43624e-22 -7.21944e-22 -7.44064e-21)
(-2.92498e-20 -6.14537e-20 -6.33355e-19)
(-2.1424e-18 -4.50124e-18 -4.63899e-17)
(-1.27284e-16 -2.6743e-16 -2.75609e-15)
(-5.48975e-15 -1.15344e-14 -1.18869e-13)
(-1.30183e-13 -2.73525e-13 -2.81882e-12)
(-6.87721e-24 -9.92944e-27 2.13967e-24)
(-1.45156e-25 -2.00469e-28 4.51027e-26)
(-2.57229e-27 -2.5724e-28 -1.87252e-27)
(-1.20457e-26 -2.50838e-26 -2.60063e-25)
(-1.07905e-24 -2.25436e-24 -2.33652e-23)
(-8.60582e-23 -1.79858e-22 -1.86346e-21)
(-5.87153e-21 -1.22757e-20 -1.27138e-19)
(-3.22704e-19 -6.74924e-19 -6.98755e-18)
(-1.27708e-17 -2.67193e-17 -2.76525e-16)
(-2.7531e-16 -5.76217e-16 -5.96126e-15)
(2.90451e-18 -1.04744e-18 2.242e-18)
(-8.53414e-21 -7.81801e-21 2.6001e-20)
(-4.60965e-22 -7.68877e-23 9.45098e-23)
(-1.11437e-21 -2.30033e-21 -2.33505e-20)
(-1.10798e-19 -2.31907e-19 -2.37806e-18)
(-1.00489e-17 -2.10968e-17 -2.17203e-16)
(-7.93582e-16 -1.66735e-15 -1.71835e-14)
(-5.13344e-14 -1.07857e-13 -1.11154e-12)
(-2.43381e-12 -5.11362e-12 -5.2699e-11)
(-6.41303e-11 -1.34743e-10 -1.38861e-09)
(3.12788e-20 -7.15884e-21 1.18165e-20)
(1.61263e-22 -5.73731e-23 1.22122e-22)
(-6.91295e-26 -5.50471e-25 1.46096e-25)
(-5.68563e-24 -1.18598e-23 -1.21411e-22)
(-5.37256e-22 -1.12691e-21 -1.15894e-20)
(-4.56056e-20 -9.5785e-20 -9.86758e-19)
(-3.33856e-18 -7.01435e-18 -7.22906e-17)
(-1.98391e-16 -4.16827e-16 -4.29578e-15)
(-8.55834e-15 -1.79817e-14 -1.85313e-13)
(-2.02991e-13 -4.26503e-13 -4.39535e-12)
(1.72472e-22 -3.51753e-23 5.2297e-23)
(1.24364e-24 -3.01759e-25 5.2098e-25)
(6.33311e-27 -2.93926e-27 1.98427e-28)
(-2.33573e-26 -4.8985e-26 -5.03026e-25)
(-2.09368e-24 -4.39508e-24 -4.52496e-23)
(-1.66915e-22 -3.50624e-22 -3.6129e-21)
(-1.1396e-20 -2.39431e-20 -2.46762e-19)
(-6.26939e-19 -1.31722e-18 -1.35752e-17)
(-2.48289e-17 -5.2167e-17 -5.37619e-16)
(-5.35461e-16 -1.12505e-15 -1.15943e-14)
(7.15561e-25 -1.38471e-25 1.97441e-25)
(5.97653e-27 -1.26637e-27 1.98121e-27)
(4.15046e-29 -1.27112e-29 8.35217e-31)
(-8.21479e-29 -1.71829e-28 -1.77795e-27)
(-6.99356e-27 -1.45991e-26 -1.51277e-25)
(-5.25368e-25 -1.0975e-24 -1.13737e-23)
(-3.36062e-23 -7.02355e-23 -7.27689e-22)
(-1.72127e-21 -3.59868e-21 -3.7271e-20)
(-6.3009e-20 -1.31782e-19 -1.36433e-18)
(-1.24564e-18 -2.60617e-18 -2.69716e-17)
(2.55095e-20 -6.07912e-21 1.03181e-20)
(1.14226e-22 -5.01986e-23 1.09624e-22)
(-9.56113e-23 -1.12895e-22 3.52443e-23)
(-4.90326e-21 -5.793e-21 1.7155e-21)
(-1.8053e-19 -2.13472e-19 5.89198e-20)
(-3.60245e-18 -4.27869e-18 7.25766e-19)
(-2.13575e-18 -4.3209e-18 -4.22653e-17)
(-1.16154e-16 -2.44041e-16 -2.515e-15)
(-5.01094e-15 -1.05283e-14 -1.08502e-13)
(-1.1886e-13 -2.49735e-13 -2.57365e-12)
(2.2097e-22 -4.48048e-23 6.59095e-23)
(1.60323e-24 -3.86176e-25 6.48309e-25)
(-2.03033e-25 -2.53403e-25 7.96884e-26)
(-1.02573e-23 -1.21287e-23 3.34154e-24)
(-3.53445e-22 -4.18867e-22 9.30072e-23)
(-6.59721e-21 -7.91031e-21 -4.59275e-22)
(-9.24368e-21 -1.9095e-20 -1.9236e-19)
(-4.89237e-19 -1.02789e-18 -1.05933e-17)
(-1.93816e-17 -4.07219e-17 -4.19671e-16)
(-4.18013e-16 -8.78282e-16 -9.05119e-15)
(1.22182e-24 -2.36019e-25 3.29331e-25)
(1.03196e-26 -2.15485e-27 3.23606e-27)
(-3.62784e-28 -5.37179e-28 1.72758e-28)
(-2.01052e-26 -2.38142e-26 5.58127e-27)
(-6.53521e-25 -7.77936e-25 8.92234e-26)
(-1.15971e-23 -1.41638e-23 -6.99242e-24)
(-3.32998e-23 -6.93604e-23 -7.06662e-22)
(-1.67408e-21 -3.51725e-21 -3.62489e-20)
(-6.1337e-20 -1.28872e-19 -1.32813e-18)
(-1.21288e-18 -2.54836e-18 -2.62623e-17)
(5.27281e-27 -9.91234e-28 1.36051e-27)
(4.89153e-29 -9.59056e-30 1.37625e-29)
(-4.51606e-31 -1.10227e-30 3.75582e-31)
(-3.74883e-29 -4.43836e-29 7.1314e-30)
(-1.15777e-27 -1.38443e-27 -1.06823e-28)
(-1.99362e-26 -2.50265e-26 -3.03871e-26)
(-1.04268e-25 -2.16786e-25 -2.23242e-24)
(-4.94948e-24 -1.03442e-23 -1.07172e-22)
(-1.68649e-22 -3.52599e-22 -3.65176e-21)
(-3.07843e-21 -6.43854e-21 -6.66569e-20)
(-4.18413e-21 -4.31922e-21 1.17971e-21)
(-3.30422e-23 -3.39913e-23 9.35173e-24)
(-8.32036e-25 -9.42299e-25 2.81776e-25)
(-2.81469e-23 -3.32429e-23 1.01071e-23)
(-9.65001e-22 -1.14012e-21 3.37829e-22)
(-1.77344e-20 -2.09892e-20 5.34599e-21)
(-4.44204e-21 -8.44168e-21 -7.48635e-20)
(-1.91082e-19 -4.01442e-19 -4.13692e-18)
(-7.56799e-18 -1.59008e-17 -1.6387e-16)
(-1.63227e-16 -3.42954e-16 -3.53433e-15)
(-3.08578e-23 -3.19794e-23 8.72153e-24)
(-2.60646e-25 -2.70052e-25 7.39144e-26)
(-3.46078e-27 -3.77987e-27 1.08563e-27)
(-6.29714e-26 -7.43926e-26 2.20514e-26)
(-2.03003e-24 -2.40039e-24 6.62753e-25)
(-3.49134e-23 -4.14726e-23 6.89718e-24)
(-1.90212e-23 -3.80832e-23 -3.66896e-22)
(-8.71152e-22 -1.83023e-21 -1.88619e-20)
(-3.19323e-20 -6.70912e-20 -6.91432e-19)
(-6.31449e-19 -1.32673e-18 -1.36727e-17)
(-1.62795e-25 -1.69156e-25 4.61291e-26)
(-1.46725e-27 -1.52587e-27 4.17059e-28)
(-1.54612e-29 -1.65025e-29 4.60296e-30)
(-1.31446e-28 -1.55372e-28 4.37038e-29)
(-4.00549e-27 -4.7441e-27 1.11894e-27)
(-6.50801e-26 -7.78696e-26 -6.18008e-28)
(-7.08062e-26 -1.45043e-25 -1.44424e-24)
(-3.2093e-24 -6.7426e-24 -6.94891e-23)
(-1.09475e-22 -2.30012e-22 -2.37048e-21)
(-1.99872e-21 -4.19948e-21 -4.3278e-20)
(-6.88976e-28 -7.12403e-28 1.95744e-28)
(-6.60414e-30 -6.83473e-30 1.88194e-30)
(-6.55373e-32 -6.87326e-32 1.9036e-32)
(-2.59994e-31 -3.06459e-31 7.81372e-32)
(-7.51749e-30 -8.89829e-30 1.45822e-30)
(-1.16632e-28 -1.40855e-28 -4.42746e-29)
(-2.32541e-28 -4.78729e-28 -4.86824e-27)
(-1.01672e-26 -2.12413e-26 -2.20149e-25)
(-3.24212e-25 -6.77598e-25 -7.02019e-24)
(-5.49672e-24 -1.14923e-23 -1.1902e-22)
(-7.49576e-19 -7.54544e-19 2.00748e-19)
(-5.56887e-21 -5.60571e-21 1.49022e-21)
(-3.93726e-23 -3.96331e-23 1.05276e-23)
(-3.53761e-25 -3.71218e-25 1.0256e-25)
(-2.7874e-24 -3.29216e-24 9.89287e-25)
(-4.75406e-23 -5.62121e-23 1.55571e-23)
(-7.78509e-24 -1.37811e-23 -1.06688e-22)
(-2.55628e-22 -5.36995e-22 -5.5205e-21)
(-9.36291e-21 -1.96719e-20 -2.02302e-19)
(-1.85135e-19 -3.88984e-19 -4.00078e-18)
(-5.13581e-21 -5.17e-21 1.3742e-21)
(-4.10932e-23 -4.13662e-23 1.09865e-23)
(-3.11291e-25 -3.13355e-25 8.31588e-26)
(-2.45883e-27 -2.51117e-27 6.74528e-28)
(-6.28956e-27 -7.42979e-27 2.14893e-27)
(-1.00599e-25 -1.19193e-25 2.70522e-26)
(-3.2402e-26 -6.22532e-26 -5.60835e-25)
(-1.25421e-24 -2.63488e-24 -2.70863e-23)
(-4.2801e-23 -8.99264e-23 -9.24641e-22)
(-7.81384e-22 -1.64175e-21 -1.68829e-20)
(-2.52634e-23 -2.54319e-23 6.75369e-24)
(-2.16594e-25 -2.18036e-25 5.78559e-26)
(-1.75022e-27 -1.76185e-27 4.67137e-28)
(-1.39125e-29 -1.40848e-29 3.74628e-30)
(-1.32881e-29 -1.56997e-29 4.19319e-30)
(-2.00105e-28 -2.38061e-28 3.06348e-29)
(-1.22698e-28 -2.45496e-28 -2.35633e-27)
(-4.95006e-27 -1.03995e-26 -1.06893e-25)
(-1.58036e-25 -3.32039e-25 -3.41354e-24)
(-2.67968e-24 -5.63018e-24 -5.78887e-23)
(-1.00199e-25 -1.00189e-25 2.67621e-26)
(-9.16572e-28 -9.16091e-28 2.44612e-28)
(-7.87147e-30 -7.86394e-30 2.09904e-30)
(-6.50447e-32 -6.51257e-32 1.739e-32)
(-2.67513e-32 -3.14824e-32 7.20064e-33)
(-3.79712e-31 -4.53365e-31 -2.07743e-32)
(-4.18219e-31 -8.48821e-31 -8.44417e-30)
(-1.67322e-29 -3.49437e-29 -3.61276e-28)
(-5.01584e-28 -1.04793e-27 -1.08322e-26)
(-7.93848e-27 -1.65914e-26 -1.71465e-25)
)
;

boundaryField
{
    inlet
    {
        type            calculated;
        value           nonuniform 0();
    }
    outlet
    {
        type            calculated;
        value           nonuniform 0();
    }
    bottom
    {
        type            calculated;
        value           uniform (0 0 0);
    }
    top
    {
        type            symmetryPlane;
    }
    side1
    {
        type            symmetryPlane;
    }
    side2
    {
        type            symmetryPlane;
    }
    procBoundary27to19
    {
        type            processor;
        value           nonuniform List<vector> 
50
(
(-1.93796e-13 -2.53284e-16 6.02095e-14)
(-2.99837e-15 -3.9185e-18 9.31504e-16)
(-3.81728e-17 -5.02606e-19 7.12348e-18)
(-2.79305e-17 -5.78101e-17 -5.95629e-16)
(-3.25998e-15 -6.8495e-15 -7.05878e-14)
(-3.51143e-13 -7.37784e-13 -7.60326e-12)
(-3.32845e-11 -6.99339e-11 -7.20705e-10)
(-2.62923e-09 -5.52426e-09 -5.69304e-08)
(-1.55776e-07 -3.273e-07 -3.37299e-06)
(-5.27506e-06 -1.10834e-05 -0.00011422)
(-4.27307e-16 -8.37206e-17 3.81485e-16)
(-1.17108e-17 -5.8537e-19 5.34308e-18)
(-1.84045e-19 -6.85084e-21 4.11373e-20)
(-1.60787e-19 -3.22476e-19 -3.17773e-18)
(-1.65023e-17 -3.42835e-17 -3.48012e-16)
(-1.59636e-15 -3.34638e-15 -3.43813e-14)
(-1.36869e-13 -2.87575e-13 -2.96361e-12)
(-9.73266e-12 -2.04492e-11 -2.1074e-10)
(-5.12692e-10 -1.07721e-09 -1.11012e-08)
(-1.5196e-08 -3.19283e-08 -3.29038e-07)
(2.39437e-19 -4.45989e-19 1.25765e-18)
(-2.24016e-20 -4.00426e-21 1.68232e-20)
(-3.98167e-20 -4.65027e-20 1.44788e-20)
(-2.16462e-18 -2.55654e-18 7.7998e-19)
(-8.57421e-17 -1.01292e-16 3.03175e-17)
(-1.85267e-15 -2.19145e-15 5.89191e-16)
(-3.95637e-16 -7.52407e-16 -6.67979e-15)
(-2.00397e-14 -4.21032e-14 -4.3387e-13)
(-9.50081e-13 -1.99621e-12 -2.0572e-11)
(-2.50363e-11 -5.26036e-11 -5.42107e-10)
(-3.13556e-19 -3.2002e-19 8.81791e-20)
(-2.36253e-21 -2.36772e-21 6.67749e-22)
(-2.43045e-22 -2.83287e-22 8.70556e-23)
(-1.15711e-20 -1.36648e-20 4.20013e-21)
(-4.23799e-19 -5.00536e-19 1.52715e-19)
(-8.38765e-18 -9.91146e-18 2.90442e-18)
(-9.34212e-19 -1.57295e-18 -1.08991e-17)
(-3.02726e-17 -6.35946e-17 -6.55234e-16)
(-1.3045e-15 -2.74087e-15 -2.82461e-14)
(-3.0944e-14 -6.50162e-14 -6.70026e-13)
(-5.92693e-17 -5.96656e-17 1.58869e-17)
(-4.06445e-19 -4.09163e-19 1.08856e-19)
(-2.66884e-21 -2.6868e-21 7.1426e-22)
(-5.02511e-23 -5.63992e-23 1.65997e-23)
(-1.1372e-21 -1.34301e-21 4.10271e-22)
(-2.07701e-20 -2.45369e-20 7.32514e-21)
(-1.82082e-21 -2.77944e-21 -1.43596e-20)
(-3.74695e-20 -7.86955e-20 -8.08851e-19)
(-1.47931e-18 -3.10817e-18 -3.1968e-17)
(-3.19041e-17 -6.70334e-17 -6.89563e-16)
)
;
    }
    procBoundary27to26
    {
        type            processor;
        value           nonuniform List<vector> 
20
(
(-2.42298e-14 -3.23325e-17 7.52983e-15)
(-5.623e-17 -7.82983e-20 1.74842e-17)
(-1.18594e-19 -1.79007e-22 3.69173e-20)
(-2.32578e-22 -3.97957e-25 7.2545e-23)
(6.10144e-16 -1.32469e-16 2.0902e-16)
(4.27204e-18 -8.36798e-19 1.1922e-18)
(2.01355e-20 -3.81937e-21 5.24617e-21)
(7.54867e-23 -1.40376e-23 1.90933e-23)
(3.60964e-18 -7.1552e-19 1.02819e-18)
(2.58311e-20 -4.89946e-21 6.69628e-21)
(1.28828e-22 -2.40914e-23 3.23592e-23)
(5.13816e-25 -9.48772e-26 1.27324e-25)
(-5.00201e-19 -5.16458e-19 1.40529e-19)
(-3.41852e-21 -3.53876e-21 9.63045e-22)
(-1.67798e-23 -1.74089e-23 4.74021e-24)
(-6.64152e-26 -6.85884e-26 1.88144e-26)
(-9.49797e-17 -9.5615e-17 2.5457e-17)
(-6.00638e-19 -6.04655e-19 1.60842e-19)
(-2.74329e-21 -2.76164e-21 7.33951e-22)
(-1.0152e-23 -1.01555e-23 2.71366e-24)
)
;
    }
    procBoundary27to28
    {
        type            processor;
        value           nonuniform List<vector> 
20
(
(-5.74341e-10 -1.20671e-09 -1.24363e-08)
(-1.84724e-12 -3.88109e-12 -3.99988e-11)
(-4.93451e-15 -1.03675e-14 -1.06848e-13)
(-1.15967e-17 -2.42614e-17 -2.51106e-16)
(-2.16023e-12 -4.53865e-12 -4.67761e-11)
(-7.69248e-15 -1.61619e-14 -1.66568e-13)
(-2.25452e-17 -4.73674e-17 -4.88178e-16)
(-5.76975e-20 -1.20666e-19 -1.24934e-18)
(-4.50391e-15 -9.46264e-15 -9.75245e-14)
(-1.75987e-17 -3.69745e-17 -3.81071e-16)
(-5.61647e-20 -1.18001e-19 -1.21615e-18)
(-1.55524e-22 -3.25139e-22 -3.3676e-21)
(-6.87846e-18 -1.44301e-17 -1.48786e-16)
(-2.92889e-20 -6.13779e-20 -6.33053e-19)
(-1.01211e-22 -2.11824e-22 -2.18557e-21)
(-3.01851e-25 -6.27457e-25 -6.51124e-24)
(-8.6152e-21 -1.79675e-20 -1.85176e-19)
(-3.97963e-23 -8.25742e-23 -8.52161e-22)
(-1.48416e-25 -3.06108e-25 -3.16405e-24)
(-4.75671e-28 -9.68823e-28 -1.00896e-26)
)
;
    }
}


// ************************************************************************* //
