/*--------------------------------*- C++ -*----------------------------------*\
| =========                 |                                                 |
| \\      /  F ield         | OpenFOAM: The Open Source CFD Toolbox           |
|  \\    /   O peration     | Version:  2.4.0                                 |
|   \\  /    A nd           | Web:      www.OpenFOAM.org                      |
|    \\/     M anipulation  |                                                 |
\*---------------------------------------------------------------------------*/
FoamFile
{
    version     2.0;
    format      ascii;
    class       volVectorField;
    location    "0.13";
    object      Ub;
}
// * * * * * * * * * * * * * * * * * * * * * * * * * * * * * * * * * * * * * //

dimensions      [0 1 -1 0 0 0 0];

internalField   nonuniform List<vector> 
200
(
(3.30176e+12 -3.27787e+12 -4.88455e+12)
(8.74651e+12 3.70824e+12 -4.42743e+12)
(5.60033e+12 -4.98492e+12 -1.59972e+12)
(1.30106e+13 5.4043e+12 -3.52541e+12)
(5.44539e+12 -7.66937e+12 5.35323e+12)
(1.62201e+13 8.73853e+12 1.02538e+13)
(4.25754e+12 1.26518e+12 -3.58004e+12)
(1.35263e+13 -8.3179e+10 2.18071e+12)
(8.07728e+12 -3.79277e+12 7.53473e+12)
(7.49784e+12 3.76189e+11 5.04543e+12)
(6.19267e+12 1.42937e+12 -1.21066e+12)
(3.91071e+12 -2.65812e+12 -1.92615e+12)
(8.57739e+12 3.57598e+12 -4.32258e+12)
(4.18659e+12 -3.94273e+12 2.7462e+12)
(8.82303e+12 1.14347e+12 3.57608e+12)
(4.02972e+12 -6.52502e+12 -2.22642e+12)
(1.0716e+13 -2.8348e+12 6.12228e+11)
(3.94423e+12 -4.62543e+12 -2.39853e+13)
(3.14546e+13 4.57873e+12 4.39894e+13)
(7.96828e+12 -1.46793e+13 2.0699e+13)
(4.10498e+12 -1.6158e+12 -1.16237e+12)
(6.19617e+12 1.59485e+12 -6.18751e+11)
(4.75897e+12 -4.21897e+11 6.60726e+11)
(7.21317e+12 1.54589e+12 1.58116e+12)
(4.65164e+12 -3.5286e+12 -3.36135e+11)
(7.38848e+12 -1.2532e+12 1.72538e+12)
(5.5668e+12 -1.02444e+13 -5.6709e+12)
(5.2316e+12 -5.19926e+12 -3.63671e+12)
(1.06085e+13 -1.39007e+13 -1.77437e+13)
(1.331e+13 8.24398e+11 -7.95196e+10)
(4.68751e+12 -1.97845e+12 5.77579e+11)
(4.09836e+12 -2.21328e+12 -3.14962e+11)
(6.06174e+12 -1.21083e+11 8.99561e+11)
(6.01246e+12 -1.03811e+12 8.33174e+11)
(6.29023e+12 -1.81941e+12 5.8329e+11)
(6.49453e+12 -4.47834e+12 -3.25446e+11)
(9.30129e+12 -1.38872e+12 7.64089e+11)
(4.1347e+12 -1.71118e+13 -6.87916e+12)
(9.52794e+12 -2.76129e+11 -4.36521e+12)
(7.84941e+12 -1.42587e+13 -4.28073e+12)
(5.33971e+12 1.59968e+11 -1.47387e+12)
(2.521e+12 -2.72169e+12 -9.07878e+12)
(8.87929e+12 3.01094e+12 -7.01044e+12)
(6.47928e+12 -3.69247e+12 -6.83046e+11)
(1.29768e+13 4.4905e+12 -6.59571e+12)
(5.92992e+12 6.59297e+12 -1.00948e+11)
(1.0107e+13 -1.01954e+11 1.74342e+12)
(8.30882e+12 2.62642e+12 1.41782e+12)
(6.69137e+12 -2.18759e+12 6.32494e+12)
(6.89427e+12 -5.86603e+12 2.08764e+12)
(4.55602e+12 -1.67978e+12 -5.35363e+11)
(6.93239e+12 -7.14914e+10 -3.04918e+12)
(3.96546e+12 -1.45987e+12 -1.82681e+11)
(9.36107e+12 2.75269e+12 -7.83593e+12)
(4.84323e+12 2.36994e+12 2.00167e+12)
(1.09293e+13 -1.1658e+12 9.22738e+11)
(1.00184e+13 2.38683e+12 2.84969e+10)
(8.52483e+12 -3.15337e+12 2.14316e+11)
(8.40492e+12 1.25448e+13 -1.81759e+12)
(8.99149e+12 -8.14813e+11 -1.76663e+12)
(5.70733e+12 -1.06608e+12 7.2433e+11)
(4.24904e+12 -1.75342e+12 3.88298e+11)
(6.7734e+12 1.4477e+11 -2.94626e+12)
(3.58459e+12 -1.15874e+12 1.06848e+12)
(7.29823e+12 -3.47368e+11 -2.27977e+11)
(8.85384e+12 -1.21051e+12 1.6037e+12)
(9.27315e+12 -3.34743e+12 3.22675e+10)
(1.02354e+13 9.05121e+12 1.23297e+12)
(6.79857e+12 -2.83623e+12 -2.14072e+12)
(1.11013e+13 2.32386e+12 -1.50207e+12)
(6.32421e+12 6.18251e+11 2.26381e+12)
(6.15624e+12 -2.12462e+12 3.46255e+12)
(5.60892e+12 -1.80756e+12 1.26304e+12)
(5.99002e+12 -1.41137e+12 7.30955e+11)
(6.36543e+12 -2.11969e+12 1.2592e+12)
(6.28343e+12 -4.2417e+12 -2.25358e+12)
(7.33127e+12 -1.41093e+12 1.46709e+12)
(7.12049e+12 -5.92618e+12 -1.63565e+12)
(1.08718e+13 2.11245e+12 2.0732e+12)
(1.44051e+13 -2.28428e+12 2.99754e+12)
(2.26848e+12 -1.04998e+12 -6.93199e+12)
(3.64228e+12 -1.30117e+12 6.10923e+11)
(-7.65563e+11 -3.67902e+12 -2.67093e+13)
(4.9224e+12 2.8119e+12 -6.65989e+12)
(5.11322e+12 -6.29378e+12 4.87566e+12)
(1.17668e+13 9.96251e+11 3.50529e+11)
(1.13838e+13 1.33758e+12 -1.06235e+12)
(9.78236e+12 -1.63001e+11 2.18452e+12)
(9.62142e+12 1.02053e+12 5.59518e+12)
(9.50511e+12 5.41661e+11 -1.27846e+12)
(5.97143e+12 8.50459e+11 2.19243e+10)
(3.84301e+12 2.02548e+11 -3.82856e+12)
(5.20606e+12 1.14025e+12 -1.91323e+12)
(3.68184e+12 -1.53342e+12 2.19016e+12)
(6.08521e+12 -1.70305e+12 -8.33763e+12)
(2.27389e+12 -1.56794e+13 6.64324e+12)
(1.1287e+13 6.47777e+11 -2.30238e+11)
(1.19623e+13 4.60604e+12 -2.34745e+12)
(8.5733e+12 -3.30703e+12 1.9002e+12)
(1.22047e+13 -7.086e+12 -5.01186e+12)
(7.34152e+12 1.29322e+12 1.09562e+12)
(6.89477e+12 6.69651e+11 7.53124e+11)
(5.48725e+12 -3.81582e+11 1.11883e+12)
(5.92239e+12 -1.02159e+12 -1.34273e+12)
(6.14859e+12 -3.79474e+12 2.39149e+12)
(6.81003e+12 -4.44857e+12 -8.9671e+12)
(2.34671e+12 -1.3154e+13 4.0008e+12)
(1.18709e+13 2.30565e+11 3.32124e+10)
(1.21677e+13 2.94225e+12 -1.24544e+12)
(9.38329e+12 -1.13647e+13 2.49465e+12)
(4.99363e+12 -3.56848e+12 -2.80085e+12)
(8.12478e+12 3.48664e+12 -2.98576e+11)
(8.45699e+12 1.27018e+12 3.11937e+12)
(6.65428e+12 -1.61656e+12 1.72673e+12)
(7.01655e+12 -3.11459e+12 -8.7651e+11)
(6.68028e+12 -4.23915e+12 2.02861e+12)
(6.96134e+12 -5.62104e+12 -5.44375e+12)
(3.50502e+12 -9.90321e+12 2.89363e+12)
(1.24684e+13 9.1534e+11 -1.03198e+12)
(1.32995e+13 3.22277e+10 1.1246e+12)
(5.22935e+12 -4.81881e+11 3.4842e+11)
(4.75551e+12 -2.22744e+12 -5.9996e+12)
(6.06757e+12 -1.19482e+12 2.94971e+12)
(-2.49105e+12 -1.12932e+13 -5.26438e+13)
(9.60736e+12 3.07274e+11 -1.10634e+13)
(6.92998e+12 -5.20092e+10 1.25126e+12)
(7.6419e+12 -9.1591e+11 3.25757e+12)
(7.57744e+12 -4.21038e+10 -1.41534e+11)
(6.48246e+12 -6.50654e+12 1.0479e+13)
(1.39378e+13 -4.63099e+12 8.24188e+11)
(6.99262e+12 2.02965e+12 2.19507e+12)
(6.21567e+12 1.41523e+11 -1.38263e+11)
(4.86057e+12 -1.84317e+12 -2.4578e+12)
(5.00921e+12 -1.8055e+12 -3.36804e+12)
(3.78425e+12 -3.63543e+12 2.46156e+12)
(7.45943e+12 -9.70885e+11 -7.46446e+12)
(8.2667e+12 -4.9609e+11 -7.31636e+11)
(4.93676e+12 -6.31541e+12 1.54678e+12)
(1.12425e+13 -3.61461e+12 -8.29991e+11)
(5.32365e+12 -2.2441e+13 7.06237e+11)
(5.35183e+12 4.41469e+11 8.87194e+10)
(7.37501e+12 9.50266e+11 1.15475e+11)
(6.83829e+12 1.45001e+11 1.60988e+11)
(5.53263e+12 -4.25128e+12 9.16421e+11)
(4.82877e+12 -5.56233e+12 -7.69313e+12)
(6.47414e+12 3.93918e+11 4.36976e+12)
(6.02355e+12 -2.7081e+12 -8.88368e+12)
(8.09473e+12 -1.3395e+12 -1.872e+12)
(4.30996e+12 -1.82508e+13 -6.06367e+11)
(7.45907e+12 -8.8017e+12 -2.01768e+12)
(7.36616e+12 1.36095e+12 -2.13125e+11)
(6.8972e+12 -5.14588e+11 4.55368e+11)
(7.21327e+12 2.19188e+11 3.23612e+10)
(8.17838e+12 1.83025e+11 1.77152e+12)
(6.42547e+12 -2.99927e+12 1.53057e+12)
(5.65575e+12 -4.55659e+12 -1.90024e+12)
(8.20426e+12 2.98122e+11 1.79152e+12)
(6.77543e+12 -5.80503e+12 -2.377e+12)
(8.31653e+12 -3.82354e+12 -1.52814e+12)
(5.52681e+12 -1.73978e+13 2.0226e+12)
(5.95997e+12 -1.23994e+12 -8.62824e+11)
(6.09477e+12 -1.65704e+12 6.4085e+09)
(6.19334e+12 -4.25251e+12 -1.11587e+12)
(6.07443e+12 -3.60724e+12 -2.74945e+12)
(5.19054e+12 -3.20308e+11 7.53776e+11)
(5.55166e+12 -3.58044e+11 2.49627e+12)
(1.1661e+13 -3.48932e+12 -8.46093e+10)
(-1.7221e+12 -8.2156e+11 2.0189e+13)
(1.31575e+13 1.88008e+12 2.3242e+12)
(1.59016e+13 -2.55083e+12 6.72695e+11)
(7.18079e+12 8.35028e+12 -3.44571e+12)
(4.65907e+12 -1.96571e+12 -2.37951e+11)
(7.74697e+12 1.18026e+12 3.3387e+12)
(1.44379e+12 -2.13189e+13 1.29187e+12)
(5.20446e+12 -1.1077e+13 -1.47459e+13)
(8.49204e+12 9.00469e+11 2.21727e+11)
(8.15418e+12 4.99948e+12 2.32965e+12)
(8.67006e+12 -1.16632e+11 7.81181e+11)
(8.05795e+12 -7.95629e+12 1.37278e+12)
(1.40251e+13 -5.11242e+12 3.39985e+12)
(8.61748e+12 4.09649e+12 -5.10646e+11)
(7.0825e+12 -1.26633e+11 -3.01367e+11)
(5.84451e+12 -4.59994e+12 4.84398e+11)
(7.84466e+12 -3.56885e+12 -4.65821e+11)
(-1.51504e+11 -1.9814e+13 2.64966e+12)
(2.63248e+12 -1.29538e+13 -1.5862e+13)
(8.2374e+12 -4.2171e+10 -1.15246e+11)
(5.71453e+12 1.73044e+12 5.26852e+11)
(5.13726e+12 -5.05359e+12 -6.07341e+11)
(2.01291e+12 -1.49496e+13 -9.1903e+11)
(9.42666e+12 3.00697e+12 -1.14889e+12)
(8.41482e+12 3.33503e+12 -4.68617e+11)
(7.74997e+12 -1.09493e+12 8.51433e+11)
(6.25861e+12 -6.10296e+12 1.30954e+12)
(8.34583e+12 -1.19576e+12 5.17084e+12)
(-3.69756e+11 -2.12382e+13 2.72671e+12)
(3.96754e+12 -1.01014e+13 -8.90484e+11)
(5.61003e+12 3.40222e+12 1.57211e+12)
(4.57797e+12 -5.27134e+12 -1.16432e+12)
(3.14532e+12 -6.81455e+12 -1.32471e+12)
)
;

boundaryField
{
    inlet
    {
        type            fixedValue;
        value           nonuniform 0();
    }
    outlet
    {
        type            zeroGradient;
    }
    bottom
    {
        type            fixedValue;
        value           uniform (0 0 0);
    }
    top
    {
        type            symmetryPlane;
    }
    side1
    {
        type            symmetryPlane;
    }
    side2
    {
        type            symmetryPlane;
    }
    procBoundary4to3
    {
        type            processor;
        value           nonuniform List<vector> 
20
(
(5.05797e+12 1.22168e+12 -3.9806e+11)
(4.14808e+12 -8.47873e+11 -9.36102e+11)
(4.58085e+12 -7.98611e+11 5.84042e+11)
(4.61357e+12 -1.26644e+12 3.33566e+11)
(2.85427e+12 -1.74452e+12 -1.38916e+12)
(5.86363e+12 -1.00936e+12 1.08119e+11)
(7.4156e+12 1.99564e+12 2.49086e+12)
(4.45922e+12 -1.46738e+12 1.30172e+12)
(4.00809e+12 4.7424e+11 1.44103e+11)
(6.24439e+12 4.87201e+11 1.19851e+12)
(5.92752e+12 2.61227e+11 6.0795e+11)
(2.33316e+12 -8.3869e+12 -2.22846e+12)
(5.39182e+12 -1.69855e+11 -6.42724e+11)
(5.11586e+12 8.33022e+11 -2.47373e+11)
(6.44089e+12 -8.74209e+11 1.46931e+12)
(6.18845e+12 -3.70193e+12 1.50612e+12)
(8.03112e+12 5.13688e+12 -1.9289e+12)
(8.00079e+12 2.24424e+12 -1.61558e+11)
(4.43749e+12 4.02342e+11 -6.91093e+11)
(1.00546e+13 -3.85092e+12 1.74e+12)
)
;
    }
    procBoundary4to5
    {
        type            processor;
        value           nonuniform List<vector> 
20
(
(9.1997e+12 1.41695e+12 2.86936e+12)
(1.1685e+13 3.85219e+11 1.36359e+12)
(6.43202e+12 -1.73353e+12 -9.28381e+11)
(9.12252e+12 2.32908e+11 5.11478e+12)
(1.29312e+13 -1.96276e+12 8.78796e+11)
(9.94113e+12 -7.10128e+12 -8.11027e+12)
(9.63548e+12 -2.82173e+12 -2.26188e+12)
(1.71709e+13 -1.51381e+12 5.45532e+12)
(1.40544e+13 -7.26531e+12 -8.3905e+12)
(1.378e+13 -3.15795e+12 -7.58507e+12)
(1.20211e+13 -1.3242e+13 -7.1378e+12)
(9.6195e+12 -1.44835e+13 1.45595e+13)
(1.6753e+13 -1.23652e+12 -8.99336e+12)
(1.82358e+13 -4.29189e+12 -3.94553e+12)
(-1.59531e+12 -5.02219e+13 -3.58027e+12)
(2.85004e+12 -1.44316e+13 2.04149e+10)
(1.69574e+13 -4.34572e+12 1.84035e+12)
(1.07971e+13 -4.90704e+12 -2.9592e+12)
(8.30123e+12 1.01488e+13 6.63668e+12)
(2.21657e+12 -1.32201e+13 -6.69755e+12)
)
;
    }
    procBoundary4to12
    {
        type            processor;
        value           nonuniform List<vector> 
50
(
(4.60231e+12 -2.29118e+12 3.21716e+11)
(5.20045e+12 -3.55752e+12 1.57126e+11)
(4.55064e+12 -4.62499e+12 -1.46598e+12)
(6.78436e+12 -1.41764e+12 8.64415e+11)
(6.3171e+12 -2.07778e+12 1.44264e+12)
(4.96139e+12 -8.09324e+12 -2.55643e+12)
(7.96286e+12 -4.68582e+12 5.2844e+10)
(9.45181e+12 -6.40205e+11 -1.60609e+11)
(5.90271e+12 -1.43627e+13 -4.1578e+12)
(1.10328e+13 3.13138e+12 -1.86078e+12)
(5.15862e+12 -2.16622e+12 8.8443e+11)
(4.83082e+12 -7.29456e+11 3.84565e+11)
(6.08719e+12 -2.08473e+12 2.51773e+12)
(5.9685e+12 -1.66513e+12 1.49483e+12)
(5.82191e+12 -2.75404e+12 -2.10614e+11)
(6.09855e+12 -2.02287e+12 1.7323e+12)
(4.70148e+12 -5.07031e+12 -4.48798e+12)
(5.4642e+12 -2.56127e+12 -2.97991e+12)
(1.9728e+12 -2.19651e+13 1.0503e+12)
(1.27354e+13 -7.59591e+12 -1.67268e+11)
(3.39867e+12 -3.15924e+12 -2.36628e+11)
(5.57376e+12 -4.24474e+12 -6.46652e+11)
(4.91761e+12 5.58034e+12 -5.39561e+12)
(8.65302e+12 1.59351e+12 3.56575e+12)
(6.34858e+12 -3.14207e+12 1.68303e+12)
(7.32983e+12 -5.18932e+12 -2.71611e+11)
(5.80643e+12 -5.88445e+12 7.9741e+11)
(7.53006e+12 -5.78866e+12 -1.37469e+12)
(3.29104e+12 -1.1102e+13 -9.23408e+11)
(1.16465e+13 -4.44974e+12 4.26334e+12)
(6.49166e+12 1.30903e+11 2.92096e+11)
(6.16266e+12 3.59551e+11 1.58657e+11)
(6.08149e+12 -1.63322e+12 1.59537e+12)
(5.94234e+12 -7.94474e+11 4.8235e+11)
(6.72106e+12 -2.8464e+12 2.05823e+12)
(6.22489e+12 -4.51485e+12 2.52278e+12)
(7.30312e+12 -5.38253e+12 2.17315e+11)
(8.6457e+12 -1.8951e+12 3.1422e+11)
(7.44707e+12 -8.59162e+12 1.72131e+11)
(7.69546e+12 -6.53253e+12 -4.65372e+10)
(5.38697e+12 -3.13848e+12 8.22335e+11)
(5.48673e+12 2.05724e+12 -2.20075e+12)
(8.9438e+12 9.35528e+11 1.28849e+11)
(7.40974e+12 -2.59804e+12 1.33918e+12)
(6.52537e+12 -5.01883e+12 2.23182e+12)
(6.67146e+12 -5.1415e+12 3.5737e+12)
(3.77912e+12 -4.28898e+12 1.77788e+12)
(2.44376e+12 -5.48968e+12 -6.3616e+11)
(6.15958e+12 1.04041e+12 1.77276e+11)
(3.79948e+12 -6.57036e+12 -6.46799e+11)
)
;
    }
}


// ************************************************************************* //
