/*--------------------------------*- C++ -*----------------------------------*\
| =========                 |                                                 |
| \\      /  F ield         | OpenFOAM: The Open Source CFD Toolbox           |
|  \\    /   O peration     | Version:  2.4.0                                 |
|   \\  /    A nd           | Web:      www.OpenFOAM.org                      |
|    \\/     M anipulation  |                                                 |
\*---------------------------------------------------------------------------*/
FoamFile
{
    version     2.0;
    format      ascii;
    class       volVectorField;
    location    "0.11";
    object      Ur;
}
// * * * * * * * * * * * * * * * * * * * * * * * * * * * * * * * * * * * * * //

dimensions      [0 1 -1 0 0 0 0];

internalField   nonuniform List<vector> 
200
(
(3.5028e+06 2.59988e+06 -4.74573e+06)
(-122901 -1.20376e+06 -1.24131e+06)
(6.39703e+06 480361 -1.81669e+06)
(512742 1.50424e+06 4.37128e+06)
(9.47121e+06 -2.36145e+06 -1.08981e+06)
(159933 4.77702e+06 5.34843e+06)
(1.29035e+07 -5.43002e+06 8114.33)
(-337699 9.9283e+06 8.44531e+06)
(1.47355e+07 -8.62136e+06 1.77033e+06)
(-319186 1.11052e+07 1.05474e+07)
(101705 -3.4983e+06 -2.45177e+06)
(4.5215e+06 422674 -4.39154e+06)
(1.74983e+06 -1.77582e+06 -204373)
(8.36628e+06 -3.01964e+06 -761079)
(1.91311e+06 2.05792e+06 4.96501e+06)
(1.18442e+07 -6.2806e+06 1.82679e+06)
(996021 5.01038e+06 6.06503e+06)
(1.53539e+07 -1.13508e+07 5.33675e+06)
(148115 7.49854e+06 7.6461e+06)
(1.84495e+07 -2.02583e+07 1.31908e+07)
(1.342e+06 -2.19523e+06 -3.56635e+06)
(1.00387e+06 -3.62077e+06 -3.45748e+06)
(6.28414e+06 -1.00936e+06 -4.36109e+06)
(3.41248e+06 -2.36677e+06 15661.6)
(9.66195e+06 -5.66655e+06 -189413)
(4.59468e+06 110074 3.95685e+06)
(1.457e+07 -9.58489e+06 2.49251e+06)
(5.02682e+06 1.59571e+06 4.72626e+06)
(1.88364e+07 -1.63214e+07 7.38781e+06)
(2.95587e+06 1.47605e+06 6.30772e+06)
(-1.47382e+06 -4.7567e+06 2.73459e+06)
(1.56708e+06 -4.61753e+06 -2.53509e+06)
(-343553 -6.20057e+06 79695.3)
(6.18378e+06 -1.49185e+06 -4.8016e+06)
(3.74792e+06 -3.32501e+06 316983)
(1.12672e+07 -7.38839e+06 260436)
(5.88571e+06 -2.05701e+06 3.03427e+06)
(1.38889e+07 -1.26105e+07 2.02831e+06)
(6.00044e+06 -3.38944e+06 2.79121e+06)
(1.77205e+07 -2.08187e+07 6.60182e+06)
(-1.12199e+06 -1.76371e+06 -3.07883e+06)
(43916.2 1.31184e+06 -4.24488e+06)
(-3.03278e+06 -1.46446e+06 -1.58038e+06)
(-343586 2.33336e+06 -4.46294e+06)
(-3.94878e+06 -1.38665e+06 -1.16808e+06)
(-460909 -245787 -3.87952e+06)
(-3.0058e+06 1.36313e+06 -235415)
(1.65169e+06 -3.0698e+06 -1.70701e+06)
(-3.18781e+06 3.0504e+06 -11896.8)
(5.03883e+06 -6.32137e+06 2.12779e+06)
(323411 -511351 -2.66288e+06)
(-2.08512e+06 -839683 589210)
(-1.02673e+06 -579467 -2.72595e+06)
(-3.51686e+06 -942849 -149074)
(-1.02666e+06 -225113 -4.02724e+06)
(-4.02877e+06 -1.75105e+06 -1.49592e+06)
(-1.04393e+06 -2.05529e+06 -3.03679e+06)
(-4.1009e+06 1.91661e+06 134225)
(1.7848e+06 -6.86946e+06 1.55815e+06)
(-4.81014e+06 299095 8.65373e+06)
(-2.73471e+06 -936102 4.73582e+06)
(-26763.4 -1.77607e+06 -817970)
(-4.07424e+06 -47965 2.59565e+06)
(-829546 -1.95971e+06 -2.89245e+06)
(-2.9533e+06 -2.06898e+06 -658304)
(78221.8 -2.89989e+06 -3.33729e+06)
(-2.75116e+06 -189586 -1.60385e+06)
(6.01982e+06 -9.44251e+06 2.84694e+06)
(-3.54225e+06 -244177 2.63325e+06)
(8.45935e+06 -2.01082e+07 1.19549e+07)
(2.5234e+06 1.79724e+06 -2.0437e+06)
(-3.43624e+06 -2.76889e+06 6.23991e+06)
(354358 -4.28355e+06 -673490)
(-3.67934e+06 -2.81819e+06 1.38241e+06)
(-410222 -4.95629e+06 -2.92976e+06)
(-3.04613e+06 -3.68407e+06 -1.90254e+06)
(1.18004e+06 -6.55544e+06 -1.89357e+06)
(-1.40455e+06 -1.60245e+06 -750871)
(6.58573e+06 -1.28823e+07 2.43497e+06)
(-3.31767e+06 -4.12527e+06 666141)
(509036 455622 -820582)
(-1.99832e+06 -360975 2.01584e+06)
(-1.14538e+06 405231 -905306)
(-2.7184e+06 14305.4 2.58071e+06)
(-2.22477e+06 975899 -1.46428e+06)
(-3.73101e+06 -2.8232e+06 253215)
(-442381 -345459 124984)
(-1.59394e+06 -674533 1.46594e+06)
(1.56154e+06 -1.83804e+06 2.13066e+06)
(-560923 -306287 4.25659e+06)
(-2.53674e+06 -1.36643e+06 5.38997e+06)
(315453 1.11024e+06 -717780)
(-3.28159e+06 -679716 5.5133e+06)
(151456 -502129 109861)
(-2.4771e+06 -123361 4.4513e+06)
(-1.0954e+06 -1.6958e+06 577778)
(-3.4069e+06 -3.71032e+06 2.08104e+06)
(-111446 -3.26727e+06 2.81743e+06)
(-2.77268e+06 -2.24546e+06 3.67131e+06)
(5.75228e+06 -7.64029e+06 4.79782e+06)
(2.38492e+06 5.02892e+06 -2.53755e+06)
(-2.73955e+06 -2.23755e+06 7.91104e+06)
(1.40974e+06 -929165 261595)
(-293048 -2.6959e+06 3.83956e+06)
(1.59011e+06 -2.57412e+06 602959)
(-468822 -2.88558e+06 1.58245e+06)
(3.41016e+06 -7.43174e+06 3.95571e+06)
(-846557 -5.04137e+06 3.44335e+06)
(4.78416e+06 -1.2157e+07 7.98798e+06)
(-1.02937e+06 -6.66024e+06 1.02548e+07)
(-2.64439e+06 -5.25181e+06 1.08143e+07)
(2.57026e+06 2.41709e+06 -1.14956e+06)
(-652527 -4.97424e+06 5.80557e+06)
(3.48168e+06 -6.03974e+06 1.38495e+06)
(510958 -4.99626e+06 1.5566e+06)
(4.55717e+06 -7.3253e+06 2.30865e+06)
(928980 -5.32674e+06 787297)
(4.54961e+06 -1.04119e+07 4.66386e+06)
(-157291 -7.56129e+06 3.75001e+06)
(2.90407e+06 -1.45678e+07 9.26233e+06)
(-1.9771e+06 -2.37364e+06 4.56614e+06)
(664678 3.12067e+06 -1.24686e+06)
(-1.62396e+06 -2.25128e+06 3.71738e+06)
(1.08979e+06 958735 -206977)
(-490390 -1.53758e+06 3.02282e+06)
(2.04755e+06 826692 -479713)
(1.5054e+06 -3.30684e+06 1.28946e+06)
(5.63613e+06 -784576 1.36099e+06)
(3.93414e+06 -2.7574e+06 2.99323e+06)
(1.19665e+07 -844833 462652)
(2.102e+06 6.27283e+06 -2.97563e+06)
(-1.87759e+06 -2.88231e+06 6.68743e+06)
(2.26211e+06 797897 -189174)
(133195 -2.92396e+06 3.01726e+06)
(2.61432e+06 89742.7 427689)
(1.27804e+06 -3.4357e+06 2.21298e+06)
(5.00616e+06 -2.69309e+06 2.69238e+06)
(2.50331e+06 -4.15595e+06 3.24937e+06)
(1.06419e+07 -4.505e+06 2.22244e+06)
(3.41532e+06 -6.03258e+06 1.24455e+07)
(-1.48247e+06 -3.71415e+06 9.89893e+06)
(3.33895e+06 2.03756e+06 -1.19887e+06)
(1.37066e+06 -2.92266e+06 3.92385e+06)
(7.59967e+06 -2.34782e+06 2.05011e+06)
(4.41742e+06 -2.85467e+06 2.17264e+06)
(8.80809e+06 -6.51421e+06 5.71621e+06)
(6.07072e+06 -5.37848e+06 3.88239e+06)
(1.02874e+07 -1.02636e+07 8.41116e+06)
(6.05361e+06 -7.68536e+06 8.40962e+06)
(1.17343e+07 -9.51965e+06 9.25845e+06)
(3.34004e+06 3.58634e+06 -1.27136e+06)
(876707 -5.67406e+06 5.86031e+06)
(6.3579e+06 -5.47358e+06 2.18641e+06)
(4.66394e+06 -4.41734e+06 1.38452e+06)
(9.34036e+06 -5.98003e+06 2.98459e+06)
(7.03882e+06 -5.236e+06 1.34026e+06)
(9.48562e+06 -7.4956e+06 6.13465e+06)
(8.14181e+06 -6.70099e+06 4.18881e+06)
(7.31526e+06 -6.85789e+06 9.78526e+06)
(9.0839e+06 -6.78394e+06 9.55707e+06)
(1.24946e+06 4.58028e+06 -2.37213e+06)
(-394006 -5.1947e+06 2.56102e+06)
(2.6946e+06 2.52753e+06 -1.12176e+06)
(1.66104e+06 -2.69488e+06 1.19748e+06)
(4.5417e+06 1.1086e+06 -50047.5)
(3.47032e+06 -2.73126e+06 447273)
(7.33662e+06 1.40457e+06 -490753)
(4.13838e+06 -3.62729e+06 2.82495e+06)
(1.30939e+07 479222 -1.61308e+06)
(6.96353e+06 -3.2647e+06 9.50995e+06)
(-726440 -3.90903e+06 7.44982e+06)
(2.54751e+06 2.95804e+06 -2.5789e+06)
(123380 -4.46439e+06 2.93839e+06)
(4.00572e+06 503836 169025)
(2.05207e+06 -2.9837e+06 833400)
(6.50984e+06 -2.38178e+06 3.2382e+06)
(3.91856e+06 -3.47912e+06 2.11668e+06)
(1.11049e+07 -3.16565e+06 1.71668e+06)
(7.47417e+06 -8.60661e+06 8.86332e+06)
(1.57193e+07 -1.7302e+06 1.94651e+06)
(2.89767e+06 3.17472e+06 -2.40027e+06)
(661101 -4.11619e+06 3.23283e+06)
(5.43635e+06 -1.11001e+06 51514.9)
(3.81234e+06 -2.49175e+06 557138)
(8.35758e+06 -4.98585e+06 5.94695e+06)
(7.87867e+06 -2.32291e+06 1.94864e+06)
(1.10886e+07 -6.34115e+06 6.96373e+06)
(1.20935e+07 -6.60756e+06 3.89074e+06)
(1.09499e+07 -2.85656e+06 6.11048e+06)
(1.5078e+07 -6.00977e+06 6.53401e+06)
(688622 -5.15828e+06 4.45058e+06)
(5.52655e+06 -5.10343e+06 1.51723e+06)
(3.77069e+06 -5.24616e+06 -1.23948e+06)
(7.97035e+06 -5.12363e+06 2.22469e+06)
(6.73355e+06 -4.28884e+06 -438892)
(9.10057e+06 -5.18225e+06 6.1934e+06)
(1.09585e+07 -3.54094e+06 2.22885e+06)
(7.25454e+06 1.73298e+06 7.14299e+06)
(1.51272e+07 -3.09702e+06 5.20833e+06)
(4.59383e+06 8.85922e+06 9.94115e+06)
)
;

boundaryField
{
    inlet
    {
        type            calculated;
        value           uniform (-6 0 0);
    }
    outlet
    {
        type            calculated;
        value           nonuniform 0();
    }
    bottom
    {
        type            calculated;
        value           uniform (0 0 0);
    }
    top
    {
        type            symmetryPlane;
    }
    side1
    {
        type            symmetryPlane;
    }
    side2
    {
        type            symmetryPlane;
    }
    procBoundary0to1
    {
        type            processor;
        value           nonuniform List<vector> 
20
(
(1.55692e+07 -1.39241e+07 7.4471e+06)
(-3.58886e+06 9.38182e+06 1.52668e+07)
(2.02673e+07 -2.88933e+07 1.71935e+07)
(3.14351e+06 -4.79104e+06 3.8908e+06)
(-1.99968e+06 3.27766e+06 7.9216e+06)
(9.61337e+06 -1.51076e+07 7.62657e+06)
(-4.98661e+06 -2.21761e+06 1.10267e+07)
(7.87224e+06 -2.40024e+07 1.24727e+07)
(7.71354e+06 -3.45218e+06 3.42452e+06)
(-411591 -5.67284e+06 1.5748e+07)
(8.11766e+06 -1.61017e+07 1.16979e+07)
(-1.91404e+06 -9.8673e+06 1.0603e+07)
(5.25836e+06 -2.49529e+06 1.55633e+07)
(1.50163e+07 -5.40051e+06 6.31389e+06)
(8.21017e+06 -7.05806e+06 1.54716e+07)
(1.80719e+06 1.76809e+06 1.32885e+07)
(1.89811e+07 -725753 4.33508e+06)
(1.52676e+07 -8.18203e+06 5.48904e+06)
(7.75676e+06 8.66845e+06 8.77705e+06)
(2.10302e+07 3.38038e+06 9.7945e+06)
)
;
    }
    procBoundary0to8
    {
        type            processor;
        value           nonuniform List<vector> 
50
(
(1.00145e+06 -5.11312e+06 -214151)
(-2.39897e+06 -5.4963e+06 3.68357e+06)
(-471274 -7.74022e+06 -210422)
(-2.70071e+06 -7.92163e+06 675514)
(733001 -8.03553e+06 -1.84745e+06)
(1.85114e+06 -6.96084e+06 -837618)
(4.5669e+06 -1.11104e+07 153625)
(2.27506e+06 -6.52314e+06 1.02194e+06)
(7.98397e+06 -1.45205e+07 973944)
(2.15025e+06 -8.48882e+06 557458)
(-3.18143e+06 -6.26617e+06 9.10647e+06)
(1.67833e+06 1.3312e+06 -1.7057e+06)
(-3.19379e+06 -4.65273e+06 5.62119e+06)
(-207598 -5.96911e+06 -643151)
(-3.47981e+06 -5.13854e+06 829302)
(-405638 -8.0349e+06 -1.67768e+06)
(-2.92684e+06 -6.19481e+06 -89274)
(1.83727e+06 -1.09775e+07 -893337)
(-2.12418e+06 -5.54518e+06 -969425)
(4.42745e+06 -1.51378e+07 1.35414e+06)
(2.58649e+06 6.13841e+06 -2.21151e+06)
(-1.06665e+06 -8.3587e+06 8.66605e+06)
(2.72016e+06 -4.00262e+06 987590)
(-269780 -6.91578e+06 3.81882e+06)
(3.0293e+06 -8.44475e+06 1.8383e+06)
(724623 -7.3162e+06 1.00321e+06)
(3.76716e+06 -1.0608e+07 3.34256e+06)
(742085 -8.30415e+06 1.14778e+06)
(2.16134e+06 -1.21267e+07 5.15819e+06)
(-1.04472e+06 -1.06558e+07 4.087e+06)
(-382598 -9.20027e+06 7.65813e+06)
(4.33764e+06 -4.09947e+06 1.47128e+06)
(2.02425e+06 -6.64036e+06 3.40403e+06)
(6.7582e+06 -8.01242e+06 3.00952e+06)
(5.35683e+06 -6.20537e+06 148061)
(7.94647e+06 -7.85943e+06 4.54547e+06)
(7.30985e+06 -7.62603e+06 2.27318e+06)
(5.77785e+06 -5.67367e+06 7.09317e+06)
(9.30968e+06 -8.12516e+06 6.41131e+06)
(279849 -316595 1.1453e+07)
(4.39045e+06 -5.22965e+06 571994)
(1.44473e+06 -6.28508e+06 1.30789e+06)
(6.05632e+06 -7.56941e+06 2.73432e+06)
(4.57216e+06 -5.75546e+06 -2.17447e+06)
(6.89546e+06 -5.83538e+06 4.40645e+06)
(8.28197e+06 -5.88857e+06 896140)
(5.26265e+06 808795 6.38657e+06)
(1.40559e+07 -4.24076e+06 4.69073e+06)
(4.63305e+06 6.62023e+06 9.71887e+06)
(2.12732e+07 1.03299e+06 1.00684e+07)
)
;
    }
}


// ************************************************************************* //
