/*--------------------------------*- C++ -*----------------------------------*\
| =========                 |                                                 |
| \\      /  F ield         | OpenFOAM: The Open Source CFD Toolbox           |
|  \\    /   O peration     | Version:  2.4.0                                 |
|   \\  /    A nd           | Web:      www.OpenFOAM.org                      |
|    \\/     M anipulation  |                                                 |
\*---------------------------------------------------------------------------*/
FoamFile
{
    version     2.0;
    format      ascii;
    class       volVectorField;
    location    "0.07";
    object      Ur;
}
// * * * * * * * * * * * * * * * * * * * * * * * * * * * * * * * * * * * * * //

dimensions      [0 1 -1 0 0 0 0];

internalField   nonuniform List<vector> 
200
(
(192147 105817 -24565.8)
(100204 -127449 -116562)
(298159 126723 -41367.4)
(150472 -125124 -113105)
(350390 185512 -34439)
(171646 -186312 -44441.7)
(311582 208251 137533)
(119258 -214413 7767.09)
(208823 107204 375554)
(72067.6 -122415 -5227.34)
(51224.3 -191321 -47633.5)
(198240 74601.4 9478.46)
(74781.9 -127603 -124992)
(298295 156579 -22545.7)
(130052 -180274 -71283.4)
(332296 246513 22831.1)
(121583 -234146 -35111)
(284060 171287 167139)
(52135.1 -234446 2377.09)
(151353 50494.2 379778)
(134636 -37819.3 83853.4)
(14615.6 -149178 -80250.4)
(197057 65693.2 18106)
(57933.2 -186462 -90802.5)
(285587 237587 22828)
(75451.6 -201109 -52637.4)
(308403 252592 16643.9)
(62759 -220406 14244.7)
(250080 125022 163891)
(837.91 -234594 5005.93)
(9794.19 -80985.3 -71752.4)
(117212 -45614.7 121466)
(-23609.6 -152466 -82171.5)
(157857 97493.9 17289.8)
(2433.41 -158381 -57253.8)
(208585 187097 -10678.6)
(34819.9 -148117 -6293.71)
(251205 160794 -21527.7)
(32471.9 -199746 32938.7)
(192950 81521.3 166139)
(112259 -157027 -104977)
(292140 119227 -39858.1)
(125466 -136120 -164923)
(347602 122400 -40792.3)
(132053 -152923 -93907.8)
(329259 168432 148805)
(113679 -199434 10930.7)
(284788 91495.1 444958)
(164013 -120355 -6763.76)
(297229 33120.4 365533)
(228820 467.884 7473.45)
(76045.3 -216471 -166693)
(285811 79832.5 -7585.35)
(91411.2 -144701 -141020)
(332073 130426 -35390.8)
(111969 -217266 -51166.1)
(300913 141433 189935)
(60092.1 -215359 -3418.05)
(229302 39152.1 434700)
(110260 -110924 -37301.7)
(46710.1 -45774.6 -97318.6)
(228079 20527.3 111319)
(42287.8 -192453 -182711)
(253055 64710.2 -15896.7)
(69097.4 -194888 -109040)
(300898 199091 20439.3)
(48879.1 -191371 -55148.4)
(265769 120883 165830)
(18221.1 -219511 -15625.9)
(176581 2754.55 401995)
(80430.5 -187824 -143489)
(13683 -42649.2 -76998.6)
(160494 5118.63 58802.1)
(-17308.1 -156538 -128077)
(183372 89849.6 -12066.7)
(-1571.59 -134857 -80361)
(197549 98675.7 -18936.2)
(18585.7 -149957 -28743.2)
(196423 74727.2 124452)
(-23809.2 -199481 -27211.2)
(276319 -25631.1 -138157)
(139293 -137283 -142950)
(366806 107274 -38444)
(133645 -172767 -168308)
(376768 128696 128791)
(138173 -203444 -20041.3)
(378372 84134.9 454746)
(238950 -143917 -11033.1)
(430927 40865.2 441914)
(307277 -26442 90084.9)
(77168.1 -15856.3 -104934)
(280820 -5811.04 -51146)
(72159.5 -148511 -184312)
(334716 59938.3 -36654.9)
(95610.7 -189351 -148722)
(356348 83814.9 136634)
(100498 -232569 -19975.1)
(321366 21255.6 449202)
(188493 -140525 -42254.6)
(326679 26151.8 414356)
(125626 -175856 -255410)
(44750.4 -44868.5 -91844.3)
(239703 -26160.4 -44287.7)
(31867.9 -148931 -185703)
(287713 34410.5 -57596.6)
(71812.4 -221979 -134310)
(316258 80328 160912)
(65498 -244862 -39990.4)
(262370 -23304.9 418538)
(171764 -157859 -68259.3)
(36295.3 9205.39 57919)
(76068.1 -161786 -191672)
(-1026.1 -51934.6 -62055.9)
(162677 -53602.3 -75697.4)
(-13815.9 -153889 -167675)
(226827 44601.6 -58782)
(17309.7 -194200 -125543)
(256410 41342.2 106390)
(17412.4 -231027 -55297.7)
(188945 -56436.7 360957)
(126572 -8233.14 -114386)
(364677 57571.1 -64885)
(184833 -218516 -102756)
(422187 169310 165030)
(182165 -233382 -55418.8)
(473799 118028 405241)
(303477 -177551 -73040.9)
(553534 54069.9 446512)
(426969 -33735.2 15406.3)
(528980 -23806.8 407280)
(190486 -173494 -237677)
(62315.7 -64038.7 -107331)
(329198 23672.9 -37287.1)
(78190.7 -240101 -226836)
(390452 74229.9 81123.9)
(124822 -257074 -109439)
(417148 20537.8 379893)
(251408 -185257 -110545)
(437960 30709.5 422182)
(443195 77657.3 -4383.78)
(104598 -9199.14 85195.6)
(141015 -180847 -176997)
(7331.97 -102879 -110017)
(292919 13906.8 -45222.6)
(22134.2 -240686 -259171)
(349416 11787.8 20174.8)
(96384.7 -281958 -134893)
(359978 -37560.6 340600)
(242877 -211307 -134282)
(375343 -62188.4 379088)
(135234 -188767 -22198.9)
(67365.2 -53111.3 97650.1)
(91551.7 -193698 -109370)
(-39899.5 -132214 -106176)
(277988 21753.4 -49546.2)
(-38087.7 -230132 -246346)
(306730 -9928.38 -1841.18)
(59748.8 -278475 -153011)
(290819 -88006.8 287337)
(184566 -245645 -169560)
(368067 -104257 -126600)
(174476 -332119 -478139)
(555480 522346 239286)
(164451 -309243 -191642)
(478803 284358 262214)
(222196 -231179 -221835)
(578540 83284 430532)
(457995 -31591.5 -96499.3)
(607015 -16471.7 391707)
(653250 189479 -30030.4)
(249073 -54623.8 84079.4)
(296198 -184915 -69824)
(42603.7 -458495 -636925)
(559317 560973 229376)
(67615.6 -348115 -427070)
(422507 129732 231330)
(186628 -230149 -239450)
(439116 59247.8 412836)
(499705 62845.1 -157570)
(400762 -82511.6 351161)
(220534 -178707 -14600.8)
(199055 -128159 96768.9)
(254123 -307243 254.385)
(-22029.3 -502707 -777011)
(487513 464470 150895)
(12401.1 -351241 -484714)
(373275 32638.5 186174)
(153596 -269224 -286062)
(315387 -75835.2 380611)
(559427 -2319.23 -212189)
(172857 -80692.3 63957.5)
(190999 -197531 18872.4)
(154561 -176378 121287)
(237600 -414248 62415.8)
(-22470.6 -442862 -662607)
(386358 -41593.6 83938.6)
(-5656.35 -335904 -476196)
(310690 -21027.9 156987)
(84358.3 -303338 -316080)
(204775 -136753 354058)
)
;

boundaryField
{
    inlet
    {
        type            calculated;
        value           nonuniform 0();
    }
    outlet
    {
        type            calculated;
        value           nonuniform 0();
    }
    bottom
    {
        type            calculated;
        value           uniform (0 0 0);
    }
    top
    {
        type            symmetryPlane;
    }
    side1
    {
        type            symmetryPlane;
    }
    side2
    {
        type            symmetryPlane;
    }
    procBoundary2to1
    {
        type            processor;
        value           nonuniform List<vector> 
20
(
(29811.7 -117988 -27999.7)
(106796 -43709.8 -19279.2)
(7414.24 -73099.6 -30958.1)
(-12095.5 -229057 42958.1)
(168338 -46593.6 -124513)
(62285.4 -21673.9 -120386)
(129395 -200498 -215330)
(32940.5 -638.56 16999.9)
(95805.1 44380.2 -109460)
(172552 -187654 -302039)
(70079.6 50766 43349.1)
(128221 -188536 -56195.9)
(249208 -160491 -266273)
(141123 54284.2 76308.4)
(180401 -195870 -66981.1)
(88286.8 -4576.93 81882.1)
(264637 5610.81 78109.9)
(253904 -161915 -45205.5)
(217741 -33305.3 60050.7)
(148427 -175985 38251.4)
)
;
    }
    procBoundary2to3
    {
        type            processor;
        value           nonuniform List<vector> 
20
(
(139505 35985.8 309133)
(7513.63 -122311 -32766)
(99441.1 14300 368684)
(-38277.9 -215490 2549.74)
(181409 -26238.3 42632.2)
(211981 21632.7 338350)
(94937.5 -119878 -66697)
(116018 -17262.2 337480)
(376773 -33554 406932)
(295575 51716.7 47787)
(261412 -31527.1 384472)
(111171 -179166 -113237)
(514105 167784 130239)
(375489 -39529.3 342485)
(538293 42851.1 -38018)
(267256 -147776 320515)
(558167 -134016 316846)
(870885 193135 -103065)
(258607 -459371 329114)
(382557 55006 -243631)
)
;
    }
    procBoundary2to10
    {
        type            processor;
        value           nonuniform List<vector> 
50
(
(-30161 -216573 55868.8)
(-15946.2 -53813.4 -63162.4)
(40410.4 -49500.4 59256.2)
(-57189.1 -83289.6 -44615.2)
(101179 100119 12433.8)
(-48512.5 -73723 -34345.2)
(79415.3 70019.2 -15950.8)
(5708.81 -85431.4 -6933.92)
(127668 79899.5 -32538.3)
(-8337.53 -165595 28734.5)
(16931.9 3274.42 16970.7)
(24880.5 -168610 -68199.6)
(-18774.2 -28510 -45333.3)
(54316.7 -43074.5 -21937.6)
(-48025.3 -42691.6 -58592.2)
(121873 68230.1 -22163.5)
(-35528.3 -108619 -98698.2)
(96396.5 41918.9 -38956.3)
(-16629.4 -95171.7 -28102.9)
(100699 38179.7 39456.9)
(63677.8 -159759 30341.6)
(4425.05 -295.22 69496.3)
(27360.8 -157524 -120919)
(-43922.5 -56205.4 -28538.6)
(52909.7 -98547 -92009.3)
(-60908.8 -104722 -107543)
(140098 -4436.46 -74469.2)
(-21106.2 -151411 -142242)
(179534 16673.2 30142.6)
(-35341.1 -184392 -79708.5)
(48395.6 -28131.2 88491.6)
(78664.9 -183132 16897.2)
(16375.8 -83629.1 109027)
(23840.7 -229833 -47600)
(-82494.7 -154157 -81007.5)
(158019 -121030 -64350.5)
(-59147.3 -213723 -256519)
(222810 -55168.5 -43618.9)
(14201.8 -234727 -165583)
(207808 -110067 201687)
(107271 -176121 50349.2)
(123587 -116221 72631.4)
(154163 -280337 45482.1)
(131316 -189508 144991)
(245746 -457204 87698.7)
(-24228.8 -426129 -674516)
(302384 -157915 70722.7)
(-35938.4 -325692 -472595)
(228734 -79881.3 113016)
(8998.58 -300625 -317249)
)
;
    }
}


// ************************************************************************* //
