/*--------------------------------*- C++ -*----------------------------------*\
| =========                 |                                                 |
| \\      /  F ield         | OpenFOAM: The Open Source CFD Toolbox           |
|  \\    /   O peration     | Version:  2.4.0                                 |
|   \\  /    A nd           | Web:      www.OpenFOAM.org                      |
|    \\/     M anipulation  |                                                 |
\*---------------------------------------------------------------------------*/
FoamFile
{
    version     2.0;
    format      ascii;
    class       surfaceScalarField;
    location    "0.14";
    object      phib;
}
// * * * * * * * * * * * * * * * * * * * * * * * * * * * * * * * * * * * * * //

dimensions      [0 3 -1 0 0 0 0];

internalField   nonuniform List<scalar> 
490
(
-3.08933e+08
-2.16347e+08
5.87247e+07
-4.15183e+08
-1.65151e+08
4.23577e+07
-3.52911e+08
-3.15212e+08
8.20684e+07
-4.00014e+08
-2.62925e+08
3.09702e+07
-3.86356e+08
-2.48391e+08
8.78363e+06
-3.39463e+08
-1.43392e+08
-8.74261e+07
-3.04443e+08
-5.91459e+07
-7.67518e+07
-2.4203e+08
-3.11082e+07
-8.35848e+07
-1.70967e+08
-2.73782e+07
-8.59703e+07
-1.26066e+07
-9.49187e+07
-5.7715e+08
-1.31573e+08
4.4485e+07
-5.11832e+08
-3.25773e+08
9.53026e+07
-5.77581e+08
-2.82796e+08
3.3333e+07
-5.50472e+08
-3.09483e+08
1.94493e+07
-4.78036e+08
-2.04007e+08
-1.1682e+08
-4.34364e+08
-9.89237e+07
-8.81399e+07
-3.3959e+08
-3.18331e+07
-1.22087e+08
-2.63755e+08
-1.07897e+07
-9.61535e+07
-1.84959e+08
6.53401e+06
-1.12707e+08
-1.25956e+07
-7.90227e+07
-6.91904e+08
-2.98445e+08
1.15889e+08
-7.72411e+08
-2.70433e+08
2.51669e+07
-7.39651e+08
-3.42748e+08
2.71921e+07
-6.46558e+08
-2.671e+08
-1.35477e+08
-5.91446e+08
-1.82134e+08
-7.69848e+07
-4.56137e+08
-6.48665e+07
-1.69367e+08
-3.6516e+08
-2.79875e+07
-9.48227e+07
-2.74103e+08
2.00842e+07
-1.21931e+08
-1.92064e+08
-1.96229e+06
-7.35432e+07
2.58426e+06
-7.07332e+07
-9.28283e+08
1.02823e+07
-9.0738e+08
3.70761e+07
-8.33918e+08
-1.20313e+08
-7.62401e+08
-7.11635e+07
-5.81887e+08
-2.39473e+08
-4.78838e+08
-8.46511e+07
-3.65159e+08
-1.49906e+08
-2.6376e+08
-6.25811e+07
-1.96494e+08
-7.49182e+07
-2.2903e+07
-7.78991e+07
-1.03255e+07
4.50989e+07
-3.54283e+07
-6.9025e+07
3.42235e+07
-6.46543e+07
-8.21065e+06
2.92257e+07
-1.71507e+07
-5.19247e+07
1.17776e+07
-5.17992e+07
6.5776e+06
-3.69935e+07
-1.29012e+08
8.75314e+07
-8.869e+07
-1.17339e+08
4.56205e+07
-1.02035e+08
-1.18056e+08
1.42123e+07
-1e+08
-9.4722e+07
1.21078e+07
-1.19817e+08
-4.54054e+07
-9.85054e+07
-1.25395e+08
-4.53078e+07
3.00226e+07
-1.48507e+08
1.11717e+07
3.82179e+07
-9.70774e+07
-3.34326e+07
7.12544e+06
-1.0948e+08
1.35633e+07
-3.36361e+07
-2.20113e+08
9.8704e+07
-9.83129e+07
-1.86809e+08
8.58934e+07
-1.19806e+08
-1.98524e+08
5.33789e+07
-1.18131e+08
-1.78538e+08
3.2119e+07
-1.34046e+08
-1.56536e+08
-1.85372e+07
-1.04064e+08
-2.21607e+07
-9.8792e+07
-2.69576e+08
4.75892e+07
5.78433e+07
-1.8677e+08
-6.157e+07
1.51029e+07
-1.84936e+08
2.31635e+07
-3.12378e+07
-2.91887e+08
9.31996e+07
-1.08163e+08
-2.6192e+08
1.12856e+08
-1.21104e+08
-3.07921e+08
8.75493e+07
-1.25022e+08
-2.79532e+08
6.88414e+07
-1.38674e+08
-2.7707e+08
1.34764e+07
-1.0575e+08
-2.60119e+08
-9.50912e+06
-9.95219e+07
-4.55102e+07
-6.56443e+07
-3.83459e+08
4.4993e+07
-3.75099e+08
-1.30446e+07
-4.04991e+08
-7.79961e+07
-3.58572e+08
-1.2459e+08
-4.30398e+08
-1.25146e+08
-3.86193e+08
-1.38099e+08
-3.88992e+08
-1.08654e+08
-3.47729e+08
-1.026e+08
-3.31138e+08
-6.26431e+07
-2.25022e+07
8.62801e+07
5.38841e+07
2.18363e+07
9.00155e+07
7.6982e+07
-2.80372e+06
1.10468e+08
6.77228e+07
590618
1.11346e+08
8.41802e+07
-2.30287e+07
9.08588e+07
7.26941e+07
-3.0914e+07
4.36982e+07
6.47461e+07
-5.55174e+07
1.98898e+07
2.96786e+07
-6.56174e+07
-9.60365e+06
3.63343e+07
-8.63174e+07
-7.32605e+06
-3.99827e+07
-6.97079e+07
-2.29582e+07
-8.78335e+07
5.26282e+07
8.38927e+07
3.56358e+06
9.51462e+07
7.1765e+07
916905
7.75729e+07
1.11478e+08
-1.90561e+07
5.82063e+07
9.69992e+07
-2.70886e+07
-1.17798e+07
9.52681e+07
-5.09007e+07
-6.62044e+07
7.63296e+07
-7.6965e+07
-1.02449e+08
5.59478e+07
-1.08156e+08
-1.15163e+08
-3.95635e+06
-8.10411e+07
-1.55481e+08
-1.85909e+07
-8.51382e+07
-6.98471e+07
-6.70863e+07
8.53382e+07
5.15685e+07
1.39416e+07
4.35474e+07
1.36968e+08
-8.30927e+06
4.34314e+07
1.13108e+08
-3.27526e+07
-4.99361e+07
1.3449e+08
-5.22857e+07
-1.11761e+08
1.1251e+08
-7.65201e+07
-1.56279e+08
9.89476e+07
-1.03122e+08
-2.0207e+08
5.02769e+07
-8.72112e+07
-2.36551e+08
1.21603e+07
-8.73868e+07
-2.41811e+08
-4.55247e+07
-6.73278e+07
-9.40118e+07
-2.2017e+07
-1.52907e+08
3.93348e+07
-8.6917e+07
-2.92945e+07
-1.31591e+08
-4.76855e+07
-1.66631e+08
-7.74965e+07
-2.11537e+08
-9.70688e+07
-2.59006e+08
-9.08053e+07
-2.84405e+08
-9.34127e+07
-3.04028e+08
-7.05433e+07
-3.10014e+08
-2.04582e+07
-4.43225e+07
1.26993e+08
6.23843e+07
-7.70563e+06
1.2494e+08
5.60213e+07
-1.76273e+07
1.21469e+08
5.77597e+07
-1.21164e+07
1.09387e+08
4.75053e+07
-1.8468e+07
8.4339e+07
4.10231e+07
-9.59206e+06
3.14844e+07
2.80486e+07
-1.95207e+07
-2.5995e+07
4.2003e+07
-3.98131e+07
-2.93003e+07
-2.78691e+07
-3.65532e+07
-6.89118e+07
-2.05337e+07
-5.79851e+07
-9.1762e+07
-4.88822e+07
1.38918e+08
7.28202e+07
-7.1328e+06
1.32823e+08
7.39687e+07
-1.09358e+07
1.16518e+08
6.3395e+07
-8.38685e+06
7.55747e+07
5.96615e+07
1.6989e+06
1.32394e+07
6.92729e+07
-1.68154e+07
-6.31923e+07
7.95233e+07
-5.2008e+07
-1.06582e+08
2.2457e+07
-4.52201e+07
-1.56167e+08
-5.05172e+06
-5.42741e+07
-1.43611e+08
-7.00825e+07
-4.81456e+07
-1.07363e+08
-385573
1.5669e+08
8.20119e+07
-3.61228e+06
1.58843e+08
7.01031e+07
-6.5958e+06
1.04563e+08
1.02697e+08
-1.77745e+07
3.95086e+07
8.83483e+07
-1.59181e+07
-4.80672e+07
1.24445e+08
-4.41168e+07
-1.30884e+08
9.65618e+07
-3.7344e+07
-1.90836e+08
4.90168e+07
-5.38188e+07
-2.17368e+08
-1.98855e+07
-4.60208e+07
-2.70933e+08
-8.97374e+07
5.89184e+06
-8.23067e+07
-2.91478e+07
1.30038e+08
5.66619e+06
7.80982e+07
-1.3995e+07
5.56777e+07
-1.89163e+07
-3.5333e+07
-3.491e+07
-1.08723e+08
-4.0675e+07
-1.69305e+08
-5.10583e+07
-2.35722e+08
-4.69157e+07
-2.85831e+08
-1.27629e+06
-3.18135e+08
-3.0146e+07
5.26177e+06
6.11971e+07
5.31024e+07
9.79072e+07
5.37032e+07
8.42202e+07
5.2765e+07
5.8414e+07
3.66991e+07
3.09843e+07
5.97438e+06
-2.44758e+07
1.91714e+07
-6.00182e+07
-3.98332e+06
-1.21218e+08
-1.71358e+07
-9.50281e+07
-9.4314e+07
-1.20437e+08
1.08864e+08
5.33577e+07
8.92597e+07
6.23713e+07
5.70472e+07
7.65906e+07
4.05795e+07
5.48657e+07
-1.84367e+07
4.81753e+07
-1.00612e+08
4.93386e+07
-1.65649e+08
1.58336e+07
-1.79106e+08
-5.79527e+07
-2.18928e+08
-1.02638e+08
-1.08883e+08
1.37383e+08
7.01337e+07
1.07715e+08
8.54427e+07
8.24158e+07
8.41158e+07
2.36445e+07
9.77188e+07
-7.28264e+07
1.00529e+08
-1.35405e+08
7.45729e+07
-1.99091e+08
2.57014e+07
-2.43971e+08
-5.90939e+07
-2.7493e+08
-6.57873e+07
-1.2315e+08
1.5635e+08
1.43102e+08
1.10473e+08
7.31014e+07
3.06767e+06
-1.12895e+08
-1.80509e+08
-2.45053e+08
-2.69783e+08
)
;

boundaryField
{
    inlet
    {
        type            fixedValue;
        value           nonuniform 0();
    }
    outlet
    {
        type            calculated;
        value           nonuniform 0();
    }
    bottom
    {
        type            fixedValue;
        value           uniform 0;
    }
    top
    {
        type            symmetryPlane;
        value           nonuniform List<scalar> 
40
(
-1.24189e-22
-1.01755e-22
-5.83284e-23
-5.17938e-23
-1.34779e-22
-6.70114e-23
-7.00173e-23
-5.66156e-23
-1.36467e-22
-1.04072e-22
-8.13109e-23
-4.88007e-23
-1.59601e-22
-1.8817e-22
-1.09841e-22
-5.23984e-23
-1.22581e-22
-1.529e-22
-1.6279e-22
-8.24972e-23
-1.28339e-22
-1.36695e-22
-8.62101e-23
-5.51263e-23
-1.78572e-22
-7.49733e-23
-5.16343e-23
-4.50051e-23
-1.32713e-22
-4.93223e-23
-4.19625e-23
-3.84196e-23
-6.28937e-23
-3.7476e-23
-3.19667e-23
-3.06495e-23
-4.51831e-23
-3.04896e-23
-2.52349e-23
-2.73028e-23
)
;
    }
    side1
    {
        type            symmetryPlane;
        value           nonuniform 0();
    }
    side2
    {
        type            symmetryPlane;
        value           nonuniform 0();
    }
    procBoundary13to5
    {
        type            processor;
        value           nonuniform List<scalar> 
50
(
1.7489e+08
2.29043e+08
1.70872e+08
2.79058e+08
2.25949e+08
1.83925e+08
1.00878e+08
5.22798e+07
4.22862e+07
4.66164e+07
7.02586e+06
3.46884e+07
9.02793e+07
2.36138e+07
7.3848e+07
-9.05479e+06
-3.20104e+07
2.92011e+06
-1.59479e+06
3.23922e+06
-4.79509e+07
-4.36902e+07
-5.95407e+07
-5.0251e+07
-5.82869e+07
-5.0758e+07
-4.22877e+07
-2.05236e+07
-1.24045e+07
5.4882e+07
-2.3513e+07
-3.91443e+07
-4.15815e+07
-3.9984e+07
-3.72973e+07
-1.11908e+07
-1.03278e+07
-1.85898e+07
4.84224e+07
8.17111e+06
823721
-1.08041e+08
-5.11944e+07
-2.93609e+07
1.18632e+07
1.6768e+07
-287320
4.17826e+07
1.01388e+07
1.14575e+08
)
;
    }
    procBoundary13to12
    {
        type            processor;
        value           nonuniform List<scalar> 
20
(
2.91666e+08
4.47891e+08
7.42887e+08
8.52791e+08
9.48246e+07
1.7484e+08
2.34725e+08
4.69797e+08
-6.89507e+07
-5.61778e+07
-9.11233e+06
1.03999e+08
-1.36323e+08
-1.38657e+08
-1.48328e+08
-7.78541e+07
-1.22829e+08
-1.16252e+08
-1.57771e+08
-1.70056e+08
)
;
    }
    procBoundary13to14
    {
        type            processor;
        value           nonuniform List<scalar> 
20
(
-1.10058e+08
-1.05948e+08
-1.3651e+08
-1.48288e+08
-4.89692e+07
-1.60011e+08
-2.41859e+08
-2.89114e+08
-4.99218e+07
-1.40297e+08
-2.61274e+08
-3.13126e+08
-2.42722e+07
-1.94711e+08
-2.88858e+08
-3.31217e+08
-1.38049e+08
-2.30867e+08
-2.8981e+08
-3.18456e+08
)
;
    }
    procBoundary13to21
    {
        type            processor;
        value           nonuniform List<scalar> 
50
(
-2.33236e+08
-3.28412e+08
-2.95897e+08
-2.67454e+08
-1.23175e+08
-8.32642e+07
8.24034e+06
-1.87337e+07
5.68952e+06
-2.2719e+07
-7.346e+07
-1.98086e+07
1.07389e+07
1.00207e+08
7.03544e+07
9.6793e+07
3.03879e+07
1.22323e+07
-3.83749e+07
-8.79356e+07
1.06135e+08
8.72278e+07
1.27472e+08
1.22436e+08
1.29338e+08
9.91232e+07
6.04346e+07
-273323
-8.17229e+07
-6.90794e+07
6.34965e+07
1.06744e+08
9.63478e+07
1.36773e+08
1.41441e+08
1.17397e+08
6.89362e+07
-3.90433e+07
-4.77459e+07
-1.18809e+08
8.95056e+07
8.46956e+07
9.78282e+07
1.00181e+08
1.29888e+08
1.39478e+08
4.63988e+07
4.17459e+06
-7.1204e+07
-6.92152e+07
)
;
    }
}


// ************************************************************************* //
