/*--------------------------------*- C++ -*----------------------------------*\
| =========                 |                                                 |
| \\      /  F ield         | OpenFOAM: The Open Source CFD Toolbox           |
|  \\    /   O peration     | Version:  2.4.0                                 |
|   \\  /    A nd           | Web:      www.OpenFOAM.org                      |
|    \\/     M anipulation  |                                                 |
\*---------------------------------------------------------------------------*/
FoamFile
{
    version     2.0;
    format      ascii;
    class       volScalarField;
    location    "0.08";
    object      nut;
}
// * * * * * * * * * * * * * * * * * * * * * * * * * * * * * * * * * * * * * //

dimensions      [0 2 -1 0 0 0 0];

internalField   nonuniform List<scalar> 
200
(
71.1289
84.5918
98.7317
132.033
193.095
240.387
245.5
947.253
1263.93
1136.88
65.7819
64.9753
77.6942
89.763
133.203
168.21
233.271
276.861
773.485
890.661
56.06
53.0535
42.2088
59.9389
78.8207
119.781
166.092
201.651
279.411
382.952
58.6551
43.0726
47.974
30.2384
56.9273
83.0138
126.563
164.501
200.427
216.683
64.051
96.5508
134.491
275.619
269.239
407.963
1279.57
1434.08
336.476
313.466
73.0668
92.4487
120.579
217.228
296.555
456.49
506.569
1487.35
1778.09
973.971
81.42
72.5687
97.045
114.268
177.962
215.3
317.372
336.124
816.375
937.323
99.1247
104.644
53.8706
87.1384
67.3133
107.653
153.227
225.133
295.231
299.492
48.7255
94.6745
120.483
111.573
333.014
934.3
590.729
348.571
627.716
1284.95
84.7773
128.108
263.612
248.197
428.927
580.695
1914.27
2144.83
583.233
343.03
127.156
148.631
155.684
289.496
440.722
821.04
599.114
1454.37
1741.88
812.776
112.211
102.849
163.784
122.99
149.988
232.294
412.215
458.993
745.288
844.49
58.3519
85.4968
87.7544
114.903
367.607
282.001
717.545
676.521
913.258
714.934
85.1583
161.537
134.352
212.672
545.216
1623
1432.96
1341.06
1410.94
1204.8
54.8648
111.142
236.326
296.64
440.92
589.446
1446.11
2079.44
743.91
297.565
115.8
85.411
130.305
93.6651
273.181
590.41
330.97
841.8
849.331
324.292
61.3106
91.0181
103.631
169.031
189.598
214.401
309.61
461.867
813.236
595.96
67.5909
89.6071
178.8
194.463
312.876
366.019
571.205
919.443
1494
1407.23
125.793
67.3541
125.134
306.021
310.101
325.599
923.352
1084.8
760.612
658.352
186.761
109.206
167.298
152.215
322.011
224.008
256.968
505.119
663.009
278.824
)
;

boundaryField
{
    inlet
    {
        type            calculated;
        value           nonuniform 0();
    }
    outlet
    {
        type            calculated;
        value           nonuniform List<scalar> 
20
(
8.90005e-22
8.53818e-22
3.20102e-22
1.86219e-22
2.13139e-22
6.43999e-22
8.41553e-22
2.8021e-22
2.1708e-22
1.5592e-22
5.11018e-22
7.80946e-22
4.04512e-22
4.04155e-22
1.07329e-22
1.18995e-22
3.11012e-22
7.54601e-22
3.36485e-22
8.30309e-23
)
;
    }
    bottom
    {
        type            calculated;
        value           nonuniform List<scalar> 
40
(
8.43358e-23
6.9392e-23
7.5119e-23
6.38243e-23
9.28773e-23
7.08673e-23
5.59665e-23
6.90357e-23
1.00361e-22
7.19e-23
5.26432e-23
3.8885e-23
1.20756e-22
8.62061e-23
4.74934e-23
5.68212e-23
1.7918e-22
9.52359e-23
8.44228e-23
5.30357e-23
2.30386e-22
1.6052e-22
8.54971e-23
1.07225e-22
2.32402e-22
1.76469e-22
1.66447e-22
1.25153e-22
3.58164e-22
2.77419e-22
1.83503e-22
1.87666e-22
9.61257e-22
3.32559e-22
2.73522e-22
2.1768e-22
1.27272e-21
6.53153e-22
3.4885e-22
2.55939e-22
)
;
    }
    top
    {
        type            symmetryPlane;
    }
    side1
    {
        type            symmetryPlane;
    }
    side2
    {
        type            symmetryPlane;
    }
    procBoundary31to23
    {
        type            processor;
        value           nonuniform List<scalar> 
50
(
74.2438
77.9846
98.9344
120.532
142.396
151.822
156.777
189.859
711.317
467.551
48.3898
82.4879
124.699
157.488
131.889
284.196
319.044
1367.3
761.64
844.485
49.4979
82.5692
95.6474
113.501
177.503
354.683
1149
855.315
668.297
254.94
70.0767
76.3756
85.799
125.804
141.016
453.401
602.092
571.584
468.709
454.914
69.5626
63.1054
121.289
101.506
196.067
165.139
196.446
236.699
344.617
470.899
)
;
    }
    procBoundary31to30
    {
        type            processor;
        value           nonuniform List<scalar> 
20
(
58.4273
75.2686
63.9402
75.0402
39.1329
63.236
85.2597
76.178
37.3721
78.3722
119.834
242.6
85.9931
61.8274
159.453
153.073
55.8716
95.4834
60.7959
204.945
)
;
    }
}


// ************************************************************************* //
