/*--------------------------------*- C++ -*----------------------------------*\
| =========                 |                                                 |
| \\      /  F ield         | OpenFOAM: The Open Source CFD Toolbox           |
|  \\    /   O peration     | Version:  2.4.0                                 |
|   \\  /    A nd           | Web:      www.OpenFOAM.org                      |
|    \\/     M anipulation  |                                                 |
\*---------------------------------------------------------------------------*/
FoamFile
{
    version     2.0;
    format      ascii;
    class       volVectorField;
    location    "0.13";
    object      Ur;
}
// * * * * * * * * * * * * * * * * * * * * * * * * * * * * * * * * * * * * * //

dimensions      [0 1 -1 0 0 0 0];

internalField   nonuniform List<vector> 
200
(
(-2.57638e+12 1.23565e+12 9.29888e+10)
(-2.68273e+12 1.88956e+12 -1.49694e+11)
(-2.73806e+12 1.57365e+12 -5.18117e+11)
(-3.35995e+12 1.97648e+12 -6.36062e+11)
(-7.41818e+11 6.48019e+12 2.62662e+12)
(-3.40679e+12 4.67882e+12 6.62283e+10)
(-4.69203e+12 1.38114e+12 -6.86116e+11)
(-4.37453e+12 1.28885e+12 -7.61045e+11)
(-4.0987e+12 1.8078e+12 -5.83492e+11)
(-4.66458e+12 1.35833e+12 -7.54436e+11)
(-2.21619e+12 1.61307e+12 -6.88395e+11)
(-2.01218e+12 1.988e+12 1.57636e+11)
(-2.78135e+12 2.24917e+12 -3.70023e+11)
(-2.09696e+12 2.58421e+12 -3.30352e+11)
(-4.77421e+12 8.71519e+11 -1.40635e+12)
(4.4856e+12 1.62645e+13 7.58306e+12)
(-3.85201e+12 4.767e+12 4.46235e+11)
(-3.055e+12 1.87987e+12 -3.55147e+11)
(-3.67021e+12 1.38936e+12 -8.00481e+11)
(-2.61274e+12 3.77868e+12 -1.0478e+12)
(-1.1085e+12 2.65911e+12 -7.11445e+11)
(2.06381e+11 3.02383e+12 -1.68925e+12)
(-1.47144e+12 4.60382e+12 4.63549e+11)
(-3.64381e+12 2.86799e+12 -7.93545e+11)
(-2.32933e+12 3.73211e+12 -3.31193e+11)
(-4.02494e+12 1.6592e+12 -9.80055e+11)
(3.04459e+12 8.48365e+12 1.36659e+12)
(-2.99109e+12 3.58754e+12 -2.71729e+11)
(6.98971e+11 5.10229e+12 -9.7992e+11)
(-4.0163e+12 3.69104e+12 -2.10536e+12)
(-7.93279e+11 3.4555e+12 -7.15997e+11)
(-1.75716e+12 7.37552e+12 -2.17348e+12)
(-1.70571e+12 1.18512e+13 -4.08312e+12)
(-2.81492e+12 4.26528e+12 -7.39174e+11)
(-2.83535e+12 5.18663e+12 -5.24225e+11)
(-2.58335e+12 4.32816e+12 -1.51333e+12)
(-6.25546e+12 4.92515e+12 1.28301e+12)
(-2.40205e+12 5.31986e+12 -1.81131e+12)
(-5.88386e+12 3.20018e+12 -1.70987e+12)
(-1.99176e+12 1.1737e+13 -4.65368e+10)
(-3.1334e+12 2.1686e+12 9.56773e+10)
(-3.24812e+12 1.04327e+12 -3.52094e+11)
(-2.39551e+12 1.72152e+12 5.72091e+11)
(-3.74472e+12 -8.86796e+11 -2.5845e+12)
(-3.58978e+12 1.71647e+12 -7.87571e+11)
(-3.72045e+12 1.4019e+12 -8.10923e+11)
(-4.50475e+12 5.59007e+11 -8.28057e+11)
(-5.84939e+12 -2.38862e+11 -1.37776e+12)
(-3.83084e+12 4.40037e+12 -3.13367e+12)
(-2.37965e+12 7.07724e+12 -1.10805e+12)
(-2.97459e+12 1.96206e+12 -1.07259e+12)
(-2.95256e+12 2.76154e+12 -1.33999e+12)
(-2.80989e+12 1.83955e+12 -1.89947e+12)
(-2.20786e+12 1.8909e+12 -2.2473e+12)
(-3.75651e+12 7.00674e+11 -3.38716e+12)
(-2.49539e+12 4.28511e+12 -1.93313e+12)
(-2.69679e+12 3.97485e+12 -9.26189e+11)
(-4.83132e+12 1.96472e+12 -1.08965e+12)
(-4.95884e+12 3.87929e+12 -2.41521e+12)
(-4.24733e+12 4.48922e+12 -2.79326e+12)
(-2.56223e+12 2.3337e+12 -1.6224e+12)
(-2.30841e+12 2.43384e+12 -1.80699e+12)
(-3.12499e+12 3.05308e+12 -2.59597e+12)
(-1.7485e+12 5.19529e+12 -3.00389e+12)
(-1.61598e+12 2.68543e+12 -5.21896e+12)
(-2.49364e+12 2.74299e+12 -4.06251e+12)
(-3.45412e+12 6.75726e+12 4.8708e+11)
(-2.86239e+12 5.97464e+12 -1.74109e+12)
(-5.30532e+12 2.86824e+12 -5.102e+11)
(-4.23567e+12 8.10365e+12 -3.48991e+12)
(-6.34242e+11 2.92436e+12 -1.76762e+12)
(-1.65204e+12 3.22366e+12 -2.72203e+12)
(-1.35794e+12 5.09401e+12 -2.82587e+12)
(-1.70971e+12 2.46261e+12 -2.5332e+12)
(-6.63469e+11 5.9447e+12 -3.83861e+12)
(-5.43348e+12 1.12033e+13 5.5501e+12)
(-3.6683e+12 5.97081e+12 -2.81773e+12)
(-5.97464e+12 6.01671e+12 1.69476e+12)
(-5.27885e+12 8.0615e+12 -3.4624e+12)
(-5.74654e+12 2.3344e+12 -2.01734e+12)
(-3.05333e+12 4.01668e+11 -1.8363e+11)
(1.26808e+12 1.8682e+13 -4.78557e+12)
(-2.29951e+12 2.37356e+12 -1.83552e+12)
(-5.01191e+12 5.96613e+11 1.84651e+11)
(-4.91205e+12 1.41822e+11 6.23665e+11)
(-4.94607e+12 1.7335e+11 -6.12211e+11)
(-6.30393e+12 -7.345e+11 -9.92157e+11)
(-5.17453e+12 2.37927e+12 -1.14807e+12)
(-4.07259e+12 4.3148e+12 -8.71139e+11)
(-4.19621e+12 2.86774e+12 -2.2605e+12)
(-2.8176e+12 3.69871e+12 -1.58754e+12)
(-4.3986e+12 -4.31733e+11 -1.00658e+12)
(4.43501e+12 1.75858e+13 -7.72633e+12)
(-2.06543e+12 3.32976e+12 -3.65418e+12)
(-3.85235e+12 5.8293e+11 -1.45888e+12)
(-3.79797e+12 1.07548e+12 -9.39828e+11)
(-5.10105e+12 1.0304e+12 -1.36147e+12)
(-6.91376e+12 -6.30296e+12 -1.57403e+12)
(-5.21125e+12 3.37045e+12 -2.40289e+12)
(-5.0697e+12 4.73856e+12 -3.88931e+12)
(-3.2026e+12 1.83862e+12 -1.26691e+12)
(-3.03697e+12 3.17448e+12 -2.28876e+12)
(-4.90816e+12 1.10946e+11 -2.01106e+12)
(9.96073e+11 7.96722e+12 -9.32216e+12)
(-3.41496e+12 1.09667e+12 -6.33953e+12)
(-3.94417e+12 3.88987e+12 -1.59317e+11)
(-2.92767e+12 2.12256e+12 -2.67681e+12)
(-6.4288e+12 3.07713e+12 -6.86314e+11)
(-5.52767e+12 2.82123e+12 -3.12246e+12)
(-5.34921e+12 2.41205e+12 -3.66395e+12)
(-2.76674e+12 2.10693e+12 -2.25418e+12)
(-3.20885e+12 2.35214e+12 -2.61363e+12)
(-4.47002e+12 2.87201e+12 -2.92739e+12)
(-3.13431e+12 4.02513e+12 -3.55831e+12)
(-4.48708e+12 1.50661e+12 -4.13989e+12)
(-4.24198e+12 1.47192e+12 -3.75224e+12)
(-6.33878e+12 8.05613e+12 4.80325e+12)
(-3.78572e+12 2.84293e+12 -3.32027e+12)
(-7.49112e+12 4.13662e+12 2.33795e+11)
(-5.55752e+12 4.81518e+12 -3.74053e+12)
(-2.19019e+12 3.49589e+12 -1.2129e+12)
(-3.05008e+12 1.39613e+12 3.78013e+11)
(-3.95566e+12 2.23254e+12 4.72673e+10)
(-6.24963e+12 4.26996e+11 -1.98386e+11)
(-1.98262e+12 5.06181e+12 2.26e+11)
(-3.73151e+12 1.37211e+12 -3.79035e+10)
(-3.40774e+12 2.08919e+12 -2.839e+11)
(-7.31766e+12 -2.23156e+12 -6.68998e+11)
(3.78225e+12 2.59776e+13 -8.51556e+12)
(-5.4194e+12 5.59179e+12 -9.54173e+11)
(-3.03334e+12 1.19258e+12 5.62089e+10)
(-2.51965e+12 3.07363e+12 -1.4508e+12)
(-4.21513e+12 2.55933e+12 2.27261e+12)
(-3.4256e+12 2.79168e+12 -1.07694e+11)
(-5.26055e+12 1.66936e+12 7.44634e+10)
(-3.76946e+12 2.46214e+12 -2.34137e+11)
(-4.6984e+12 6.49234e+11 -6.40713e+11)
(-4.33931e+12 2.14356e+12 -1.39582e+12)
(-8.1007e+12 -4.34796e+12 -1.59142e+12)
(8.65092e+12 2.23606e+13 -1.55474e+13)
(-3.24752e+12 2.08563e+12 -1.1206e+12)
(-3.6735e+12 1.63462e+12 -1.93495e+11)
(-3.03831e+12 2.24273e+12 -1.42495e+12)
(-4.81741e+12 2.15817e+12 9.3275e+11)
(-4.01368e+12 1.67082e+12 -1.29523e+12)
(-5.68105e+12 4.30796e+11 -1.26479e+12)
(-4.48489e+12 6.12522e+11 -1.69385e+12)
(-4.965e+12 -1.24154e+11 -1.98318e+12)
(-4.74769e+12 9.04285e+11 -2.4836e+12)
(-5.393e+12 -1.86948e+11 -2.49166e+12)
(-3.55058e+12 2.08481e+12 -9.55527e+11)
(-3.67362e+12 2.37336e+12 -2.14442e+12)
(-4.64959e+12 2.19507e+12 -1.74407e+12)
(-4.62809e+12 9.10208e+11 -2.73298e+12)
(-5.8642e+12 2.49687e+11 -2.3282e+12)
(-5.62504e+12 2.40307e+11 -2.3324e+12)
(-5.81179e+12 -7.30547e+11 -2.38365e+12)
(-5.34789e+12 -1.73744e+12 -2.40638e+12)
(-5.24033e+12 -1.42893e+12 -2.87825e+12)
(-3.87338e+12 -7.92428e+11 -3.7115e+12)
(-3.37783e+12 -2.4499e+12 -1.14121e+12)
(-3.59061e+12 -5.2632e+11 -1.04125e+12)
(-6.31191e+12 3.03446e+12 4.74901e+12)
(-3.00212e+12 2.23243e+12 1.56614e+12)
(-6.19702e+12 1.6116e+12 9.58797e+11)
(-2.99828e+12 3.26714e+12 1.62049e+12)
(-4.03592e+12 2.21645e+12 3.97405e+11)
(-5.05475e+12 1.63446e+12 -3.07137e+11)
(-5.01162e+12 -1.56614e+12 -7.31067e+11)
(-3.78044e+12 4.3146e+12 -4.70343e+10)
(-4.13253e+12 6.12575e+10 -4.37075e+11)
(-5.62522e+12 3.25131e+11 7.92653e+11)
(-3.854e+12 9.10891e+11 -1.29462e+12)
(-6.46427e+12 4.24893e+12 5.07069e+12)
(-2.27759e+12 2.5841e+12 1.5559e+12)
(-5.52278e+12 5.15846e+11 1.62749e+11)
(-2.71116e+12 3.21875e+12 1.64315e+12)
(-4.14732e+12 9.83674e+11 1.37197e+09)
(-3.95933e+12 3.47138e+12 -3.41157e+11)
(-4.92733e+12 1.39486e+12 1.22198e+12)
(-4.89818e+12 1.09794e+12 2.32923e+11)
(-4.4407e+12 7.39989e+11 -8.74195e+11)
(-6.2622e+12 2.00923e+12 7.95324e+11)
(-3.62997e+12 1.60744e+12 -1.35927e+12)
(-5.73157e+12 2.88009e+12 2.81044e+12)
(-2.51172e+12 1.84134e+12 7.40478e+11)
(-5.15943e+12 9.89477e+10 -9.01815e+11)
(-3.64552e+12 5.83153e+12 1.39552e+12)
(-4.535e+12 -5.98517e+11 -3.79306e+11)
(-4.38954e+12 1.05714e+13 -4.11337e+11)
(-3.73694e+12 9.89925e+11 -1.25315e+12)
(-5.67545e+12 1.48914e+12 -1.99761e+11)
(-4.78348e+12 6.28607e+11 -1.54459e+12)
(-5.95635e+12 1.11606e+12 -5.65058e+11)
(-4.31331e+12 3.60092e+11 -1.47162e+12)
(-5.60858e+12 1.25012e+12 -1.65107e+11)
(-5.14861e+12 2.50157e+12 2.79658e+11)
(-7.34445e+12 -7.88695e+11 -1.51649e+12)
(-5.73262e+12 7.45641e+12 1.64725e+12)
(-4.82119e+12 -2.41142e+12 -1.99156e+11)
)
;

boundaryField
{
    inlet
    {
        type            calculated;
        value           nonuniform 0();
    }
    outlet
    {
        type            calculated;
        value           nonuniform 0();
    }
    bottom
    {
        type            calculated;
        value           uniform (0 0 0);
    }
    top
    {
        type            symmetryPlane;
    }
    side1
    {
        type            symmetryPlane;
    }
    side2
    {
        type            symmetryPlane;
    }
    procBoundary11to3
    {
        type            processor;
        value           nonuniform List<vector> 
50
(
(-2.70416e+12 1.21521e+12 6.0761e+10)
(-3.61601e+12 1.15897e+12 -1.91433e+11)
(-3.66605e+12 1.04658e+12 -2.38618e+11)
(-2.8536e+12 3.32631e+12 9.78125e+11)
(-2.75558e+12 3.80167e+12 -1.23675e+11)
(-1.79856e+12 2.72161e+12 -1.04681e+11)
(-3.08345e+12 2.50376e+12 -1.51327e+12)
(-4.24529e+12 8.9874e+11 -4.38968e+11)
(-5.05069e+12 -4.74082e+11 4.45569e+11)
(-4.61357e+12 1.26644e+12 -3.33566e+11)
(-3.65781e+12 1.56903e+12 1.01326e+12)
(-3.04401e+12 2.62669e+12 1.43615e+12)
(-4.0301e+12 2.56252e+11 -3.77794e+11)
(-4.3093e+12 -1.2518e+11 -3.69633e+11)
(-3.15644e+12 1.22164e+12 4.79606e+11)
(-3.3925e+12 6.80111e+11 -5.33175e+11)
(-4.42666e+12 -3.33323e+11 -4.95901e+11)
(-4.23625e+12 2.90553e+12 -1.75099e+12)
(-8.01912e+11 9.23369e+12 -4.0693e+11)
(-4.45922e+12 1.46738e+12 -1.30172e+12)
(-1.81475e+12 5.54659e+12 -4.89335e+10)
(-3.19433e+12 2.292e+12 -1.9837e+12)
(-5.64214e+12 3.99207e+12 2.44393e+12)
(-5.47054e+12 3.64786e+11 1.87602e+12)
(-4.84226e+12 1.57163e+11 -8.91647e+11)
(-5.32328e+12 -9.13744e+11 -1.15941e+12)
(-5.1124e+12 4.68624e+11 -7.09846e+11)
(-4.21647e+12 3.53641e+12 -3.16132e+11)
(-4.30223e+12 2.60565e+12 -2.49413e+12)
(-2.33316e+12 8.3869e+12 2.22846e+12)
(-2.73529e+12 4.23436e+11 -6.14976e+11)
(-2.70387e+12 1.54033e+12 -5.22605e+10)
(-6.78712e+12 -2.05341e+12 -2.76185e+12)
(4.66901e+12 1.72338e+13 -1.09385e+12)
(-4.25137e+12 4.38683e+12 2.69376e+12)
(-4.04081e+12 5.96465e+11 -3.51745e+11)
(-4.6888e+12 -6.17618e+11 -5.34232e+11)
(-3.20568e+12 5.12643e+12 -2.54724e+11)
(-5.15262e+12 1.68474e+12 -1.33866e+12)
(-6.18845e+12 3.70193e+12 -1.50612e+12)
(-2.34685e+12 8.83177e+11 -8.49087e+10)
(-3.74295e+12 -5.65683e+12 -2.8519e+12)
(-3.45726e+12 -1.38645e+12 7.26252e+11)
(-5.62229e+12 2.06053e+12 1.36443e+12)
(-3.2704e+12 3.43387e+12 1.22933e+12)
(-3.13994e+12 3.29107e+12 9.32752e+11)
(-4.23511e+12 2.65266e+11 1.02801e+11)
(-1.02201e+13 -2.56895e+12 1.33036e+12)
(7.48358e+12 2.69843e+13 2.1474e+12)
(-1.00546e+13 3.85092e+12 -1.74e+12)
)
;
    }
    procBoundary11to10
    {
        type            processor;
        value           nonuniform List<vector> 
20
(
(-2.56761e+12 3.1971e+11 -8.4702e+11)
(-1.81176e+12 2.45904e+12 -2.45368e+11)
(-2.74178e+10 2.98976e+12 -2.14023e+11)
(-6.04902e+11 2.33962e+12 -1.41184e+11)
(-3.03276e+12 1.27126e+12 -2.45414e+11)
(-2.96633e+12 1.62209e+12 -1.68436e+12)
(-2.10563e+12 2.26939e+12 -1.33399e+12)
(-3.60839e+11 4.09428e+12 -5.36508e+11)
(-1.97287e+12 3.75711e+12 -1.29811e+12)
(-2.98392e+12 1.103e+12 -7.89412e+11)
(-2.94966e+12 1.76175e+12 -1.73023e+12)
(-2.17586e+12 2.63723e+12 -1.82988e+12)
(-2.19591e+12 1.12143e+12 -3.75683e+11)
(-2.80904e+12 1.96379e+12 -1.39157e+12)
(-3.12644e+12 1.69124e+12 -1.37357e+11)
(-2.52936e+12 1.86848e+12 -1.90561e+12)
(-2.76493e+12 1.4699e+11 1.23055e+10)
(-3.2303e+12 6.18963e+11 -6.28151e+08)
(-3.52304e+12 1.0381e+12 -8.67517e+11)
(-4.03152e+12 5.01073e+12 1.13146e+12)
)
;
    }
    procBoundary11to12
    {
        type            processor;
        value           nonuniform List<vector> 
20
(
(-4.60231e+12 2.29118e+12 -3.21716e+11)
(-4.80842e+12 2.54801e+12 -1.17932e+12)
(8.80216e+11 1.11807e+13 -1.44663e+12)
(-3.64957e+12 4.00484e+12 -2.95688e+11)
(-5.15862e+12 2.16622e+12 -8.8443e+11)
(-4.06237e+12 5.886e+12 -2.43565e+12)
(-4.77997e+12 2.33288e+12 -2.38271e+12)
(-4.44158e+12 9.22203e+12 -3.32702e+12)
(-3.39867e+12 3.15924e+12 2.36628e+11)
(-2.51486e+12 4.54889e+12 -5.82624e+12)
(-7.00888e+12 6.8392e+12 -3.21885e+12)
(-5.54722e+12 1.17243e+12 -4.52577e+12)
(-6.49166e+12 -1.30903e+11 -2.92096e+11)
(-5.71213e+12 4.67933e+12 -2.56772e+12)
(3.72536e+11 4.99997e+12 -6.74643e+12)
(-5.32497e+12 3.61619e+12 -3.04424e+12)
(-5.38697e+12 3.13848e+12 -8.22335e+11)
(-5.39205e+12 2.37055e+12 9.01263e+10)
(-5.33479e+12 4.18057e+11 -1.92701e+11)
(-5.42451e+12 5.0473e+12 -1.83821e+12)
)
;
    }
    procBoundary11to19
    {
        type            processor;
        value           nonuniform List<vector> 
50
(
(-3.1453e+11 4.93618e+12 -5.80211e+11)
(-1.71697e+12 1.16986e+13 -3.49196e+12)
(1.0676e+12 8.52091e+12 -3.42573e+12)
(2.16305e+12 7.84988e+12 -8.3061e+11)
(3.4863e+11 6.70116e+12 -2.57611e+12)
(-4.96062e+12 1.05876e+13 4.1844e+12)
(-4.60889e+12 5.34429e+12 -1.59916e+12)
(-7.7361e+12 5.90726e+12 2.27615e+12)
(-5.7053e+12 4.94082e+12 -2.14794e+12)
(-6.93213e+12 3.44896e+12 -7.69931e+11)
(-8.06899e+11 5.30077e+12 -3.02439e+12)
(-1.43529e+12 6.43096e+12 -3.35568e+12)
(-1.57169e+12 3.66556e+12 -3.05307e+12)
(-1.93971e+12 4.08729e+12 -3.51213e+12)
(-7.24621e+12 1.6424e+13 1.35534e+13)
(-3.60798e+12 4.80585e+12 -1.18748e+12)
(-6.92991e+12 1.11874e+13 7.29859e+12)
(-5.64313e+12 5.85261e+12 -2.60111e+12)
(-6.78511e+12 4.30197e+12 1.13993e+11)
(-6.75787e+12 7.79835e+12 -3.95916e+12)
(-2.22338e+12 4.34601e+12 -2.79331e+12)
(-4.50709e+12 4.14054e+12 -2.98845e+12)
(-5.38662e+12 4.09357e+12 -2.91453e+12)
(-7.77293e+12 3.72737e+12 -5.6785e+11)
(-5.59742e+12 4.15057e+12 -2.28747e+12)
(-8.52455e+12 6.55141e+12 3.70899e+12)
(-4.64102e+12 2.48235e+12 -1.61256e+12)
(-7.39597e+12 9.62844e+12 6.7181e+12)
(-4.50095e+12 2.51841e+12 -3.27782e+12)
(-7.85929e+12 3.29423e+12 -2.55531e+10)
(-2.45769e+12 3.57064e+12 -5.53365e+12)
(-3.97742e+12 3.31999e+12 -3.18469e+12)
(-6.2165e+12 3.00748e+12 -3.69481e+12)
(-7.47806e+12 5.90701e+12 -2.17868e+12)
(-9.04012e+12 2.83996e+11 -2.44862e+12)
(-9.20452e+12 4.7008e+11 -1.9732e+12)
(-9.17084e+12 6.67404e+11 -1.20659e+12)
(-9.83511e+12 -1.12858e+12 1.11622e+11)
(-8.49814e+12 -5.4901e+12 -1.20645e+12)
(-6.05721e+12 -3.23965e+12 -3.64844e+12)
(-4.94551e+12 3.77153e+12 -3.13661e+11)
(-5.21953e+12 5.1519e+11 -2.77662e+12)
(-7.0776e+12 3.34401e+11 -1.64968e+12)
(-6.45112e+12 -1.24687e+12 -2.84066e+12)
(-6.68236e+12 -8.05108e+10 -2.04488e+12)
(-8.08279e+12 -4.54433e+11 -7.13767e+11)
(-6.7822e+12 3.64461e+12 -8.17255e+11)
(-7.88894e+12 1.25439e+12 1.87527e+11)
(-8.84727e+12 -3.60559e+12 -2.39844e+12)
(-6.49821e+12 5.73873e+12 1.30584e+12)
)
;
    }
}


// ************************************************************************* //
