/*--------------------------------*- C++ -*----------------------------------*\
| =========                 |                                                 |
| \\      /  F ield         | OpenFOAM: The Open Source CFD Toolbox           |
|  \\    /   O peration     | Version:  2.4.0                                 |
|   \\  /    A nd           | Web:      www.OpenFOAM.org                      |
|    \\/     M anipulation  |                                                 |
\*---------------------------------------------------------------------------*/
FoamFile
{
    version     2.0;
    format      ascii;
    class       volVectorField;
    location    "0.07";
    object      gradp;
}
// * * * * * * * * * * * * * * * * * * * * * * * * * * * * * * * * * * * * * //

dimensions      [1 -2 -2 0 0 0 0];

internalField   nonuniform List<vector> 
200
(
(6.32059e+13 -2.75829e+13 -7.33868e+12)
(6.67613e+13 -2.95846e+12 -3.10473e+13)
(3.29958e+13 -3.26228e+13 -1.62212e+13)
(3.10219e+13 5.32054e+12 -3.48177e+13)
(9.47766e+12 -2.69697e+13 -2.21399e+13)
(-6.40901e+12 1.48483e+13 -3.42915e+13)
(-3.75309e+13 -8.9123e+12 -2.16971e+13)
(-6.09762e+13 3.25694e+13 -3.53941e+13)
(-6.43402e+13 1.8819e+13 -2.35442e+13)
(-4.30055e+13 1.66263e+13 -1.20656e+13)
(5.39216e+13 -1.10701e+13 -2.56384e+13)
(4.96191e+13 -9.6826e+12 -1.65393e+13)
(6.24975e+13 -1.8509e+13 -2.56859e+13)
(3.47793e+13 -1.11438e+13 -2.33315e+13)
(3.00204e+13 -4.74696e+12 -2.80752e+13)
(8.1921e+12 -7.8368e+12 -2.86669e+13)
(-1.90194e+13 6.89389e+12 -2.95919e+13)
(-4.57652e+13 8.59606e+12 -2.71823e+13)
(-6.59028e+13 1.92719e+13 -2.35406e+13)
(-7.54246e+13 8.14094e+12 -8.85942e+12)
(6.93467e+13 3.8735e+13 -3.12862e+13)
(5.18836e+13 2.26671e+13 -4.71116e+13)
(3.00735e+13 7.11794e+13 -2.54347e+13)
(5.85459e+13 9.95613e+12 -3.4764e+13)
(1.60916e+13 2.72672e+13 -2.85177e+13)
(1.68727e+13 1.20813e+13 -2.90695e+13)
(-4.66518e+12 1.09629e+13 -2.85643e+13)
(-3.62201e+13 1.56012e+13 -2.70161e+13)
(-6.52505e+13 1.44295e+13 -1.89372e+13)
(-9.78312e+13 5.72659e+12 -7.61906e+12)
(1.06127e+14 1.15592e+12 -1.17837e+14)
(1.14508e+14 2.85413e+13 -5.99837e+13)
(3.70756e+13 4.67225e+13 -9.24865e+13)
(-5.30451e+13 1.91001e+14 -4.16043e+13)
(3.42706e+13 4.9639e+13 -5.14787e+13)
(-2.44165e+13 6.61347e+13 -3.72152e+13)
(-1.19795e+13 4.18052e+13 -3.38311e+13)
(-3.88321e+13 2.90227e+13 -3.16147e+13)
(-8.56521e+13 2.31709e+13 -2.58181e+13)
(-1.15737e+14 1.14764e+13 -1.11299e+13)
(3.38286e+13 -9.31875e+12 -1.16878e+13)
(3.83372e+13 -4.14093e+13 -2.85562e+13)
(2.09305e+13 -5.29912e+12 -2.90087e+13)
(1.2082e+13 -3.93943e+13 -3.91266e+13)
(1.11614e+13 -4.12682e+12 -4.09275e+13)
(-4.99202e+12 -4.03795e+13 -4.67016e+13)
(-4.10593e+13 -1.51146e+12 -4.64398e+13)
(-6.68866e+13 -1.98864e+13 -3.95259e+13)
(1.03109e+13 2.46092e+13 -2.72696e+13)
(7.09458e+13 -4.87266e+11 -9.96715e+12)
(4.61004e+13 -4.93861e+13 -2.75235e+13)
(4.9467e+13 -3.53856e+13 -2.82894e+13)
(4.07625e+13 -3.32505e+13 -3.63882e+13)
(2.71338e+13 -1.10579e+13 -4.176e+13)
(1.29471e+13 -1.49514e+13 -4.55755e+13)
(3.33864e+12 5.1839e+11 -5.01446e+13)
(-1.42685e+13 -4.09363e+12 -4.64479e+13)
(-2.64012e+13 2.20008e+13 -4.10041e+13)
(-7.26967e+12 2.66431e+13 -2.65004e+13)
(2.82554e+13 1.52554e+13 -8.08612e+12)
(9.54637e+13 -1.08783e+14 -4.35703e+13)
(7.06084e+13 -4.68439e+13 -5.22555e+13)
(6.95859e+13 -3.57015e+13 -4.01915e+13)
(4.86803e+13 -1.92803e+13 -4.89756e+13)
(3.43139e+13 -1.01785e+13 -4.81801e+13)
(1.67234e+13 -1.59606e+12 -4.56675e+13)
(1.90555e+12 4.18007e+12 -4.61281e+13)
(-5.41326e+12 8.50932e+12 -3.82874e+13)
(-3.17985e+12 1.07854e+13 -2.75658e+13)
(-1.28512e+13 2.09386e+12 -1.48098e+13)
(9.8858e+13 -8.14193e+13 -9.45842e+13)
(1.95631e+14 -1.04659e+14 -9.67288e+13)
(9.58898e+13 9.07942e+12 -9.83617e+13)
(7.81799e+13 1.18888e+13 -6.11613e+13)
(4.83155e+13 1.13768e+13 -6.68633e+13)
(3.20558e+13 5.8607e+12 -5.60103e+13)
(5.94221e+12 9.39261e+12 -4.93857e+13)
(-1.31905e+13 8.23185e+12 -4.36825e+13)
(-2.01006e+13 4.77468e+12 -2.98046e+13)
(2.49684e+12 -1.3522e+12 -7.43529e+12)
(2.94232e+13 -5.52019e+13 -3.17767e+13)
(1.13344e+13 -4.80197e+13 -3.04385e+13)
(-8.29434e+11 -4.36802e+13 -3.5781e+13)
(-7.11834e+12 -2.69029e+13 -2.8387e+13)
(-1.47622e+13 -3.65551e+13 -2.99736e+13)
(-2.40484e+13 -1.4951e+13 -2.33968e+13)
(-1.45688e+13 -2.36315e+13 -2.45812e+13)
(3.68471e+11 9.05761e+12 -7.12639e+12)
(3.02478e+13 8.92797e+12 3.03765e+12)
(7.61521e+13 9.86153e+12 1.65954e+12)
(2.28377e+13 -6.20821e+13 -3.66103e+13)
(2.12521e+13 -4.76014e+13 -4.21095e+13)
(1.93918e+13 -3.64015e+13 -3.95149e+13)
(5.38004e+12 -2.69021e+13 -3.49415e+13)
(3.1894e+12 -1.63511e+13 -3.59833e+13)
(5.40041e+12 -6.18221e+12 -2.77874e+13)
(1.02304e+13 7.39254e+12 -2.79553e+13)
(1.80669e+13 1.05778e+13 -1.53148e+13)
(3.94346e+13 1.87979e+13 -7.34639e+12)
(3.52521e+13 3.92776e+11 -4.5388e+12)
(3.36102e+13 -6.85621e+13 -6.05126e+13)
(6.26957e+13 -8.68358e+13 -8.1877e+13)
(4.05692e+13 -2.79782e+13 -5.95224e+13)
(3.29823e+13 -2.1086e+13 -5.34037e+13)
(2.66776e+13 -6.79322e+12 -3.84373e+13)
(2.3439e+13 2.69623e+12 -3.66612e+13)
(1.89511e+13 6.26237e+12 -3.08805e+13)
(2.31793e+13 1.13156e+13 -2.92518e+13)
(9.87786e+12 9.14264e+12 -1.59764e+13)
(3.77707e+13 6.76792e+12 2.33145e+12)
(3.15933e+13 -1.27153e+14 -1.30111e+14)
(1.0242e+14 -4.68595e+12 -1.17479e+14)
(1.50891e+14 4.74404e+13 -1.85442e+14)
(4.775e+13 8.0138e+13 -9.20927e+13)
(5.07539e+13 5.13714e+13 -7.33144e+13)
(3.15116e+13 4.07115e+13 -5.38045e+13)
(2.74693e+13 3.04927e+13 -5.08234e+13)
(2.38274e+13 1.75974e+13 -4.34583e+13)
(3.03391e+13 7.11198e+12 -3.5481e+13)
(3.43096e+12 8.44432e+12 -1.38936e+13)
(2.96959e+13 -3.82413e+13 -4.42121e+13)
(2.55234e+13 -4.9726e+13 -4.30517e+13)
(2.74952e+13 -3.78127e+13 -3.41967e+13)
(3.06655e+13 -3.43249e+13 -2.71061e+13)
(2.71303e+13 -3.30941e+13 -1.94084e+13)
(1.22637e+13 -2.47687e+13 -1.41598e+13)
(1.10059e+13 -2.50989e+13 -7.80925e+12)
(2.14937e+13 -1.00814e+13 -6.25822e+12)
(3.84259e+13 -1.93158e+12 8.03255e+10)
(5.59148e+13 -6.61098e+12 3.66727e+12)
(1.48483e+13 -9.53637e+13 -5.07846e+13)
(4.01723e+13 -1.17687e+14 -5.36092e+13)
(6.37002e+13 -7.12368e+13 -5.4626e+13)
(3.8435e+13 -5.10844e+13 -4.07033e+13)
(3.58402e+13 -2.84932e+13 -3.22599e+13)
(2.90281e+13 -2.07047e+13 -2.31056e+13)
(2.56437e+13 -1.41725e+13 -1.47571e+13)
(3.95474e+13 -1.33998e+13 -1.81075e+13)
(2.72137e+13 -3.77935e+12 7.55812e+10)
(6.6288e+13 1.63305e+13 -1.07024e+12)
(-5.77414e+13 -2.58384e+14 -6.17834e+13)
(7.3777e+13 -1.67434e+14 -1.12305e+14)
(1.60701e+14 -2.69185e+14 -1.40891e+14)
(1.16153e+14 -1.10722e+14 -6.7173e+13)
(8.78898e+13 -6.99082e+13 -3.68955e+13)
(4.09052e+13 -4.32234e+13 -2.96227e+13)
(2.56157e+13 -3.24088e+13 -3.14519e+13)
(4.22799e+13 -3.65202e+13 -9.55114e+12)
(9.78864e+13 -3.423e+13 -1.70009e+13)
(3.08125e+13 -1.28738e+13 -6.5122e+12)
(-8.84321e+13 -1.13339e+14 -9.38939e+13)
(1.85702e+13 -4.08212e+14 -4.15101e+14)
(1.77124e+14 -4.74924e+13 -2.96872e+14)
(4.36989e+14 1.43826e+14 -2.6491e+14)
(1.70838e+14 1.10227e+14 -7.54504e+13)
(1.04027e+14 2.64817e+13 -6.11615e+13)
(3.905e+13 -7.46723e+10 -5.65098e+13)
(3.59051e+13 -1.12775e+13 -4.13603e+13)
(7.45065e+13 -8.90804e+12 -1.13186e+13)
(1.60496e+14 -2.32073e+13 -1.48507e+12)
(4.46102e+13 -5.08595e+13 -1.67845e+13)
(4.33835e+13 -6.87733e+13 -1.01221e+13)
(5.01963e+13 -7.8845e+13 -1.12032e+13)
(4.02045e+13 -6.32752e+13 -3.02805e+12)
(2.66659e+13 -5.80103e+13 -8.22229e+12)
(1.30688e+13 -4.38255e+13 -3.17317e+12)
(1.07164e+13 -2.81906e+13 -7.9707e+12)
(2.56151e+13 -3.15015e+13 -3.26365e+12)
(6.20094e+13 2.02488e+12 -6.68276e+12)
(6.41598e+13 3.17361e+12 4.1062e+12)
(-1.56352e+13 -9.01963e+13 -1.60594e+13)
(8.95954e+12 -1.58407e+14 -2.32497e+13)
(6.06905e+13 -2.07113e+14 -2.58134e+13)
(7.69516e+13 -9.10092e+13 -2.41903e+13)
(5.9502e+13 -4.43306e+13 -1.3777e+13)
(6.14094e+13 -3.09227e+13 -1.67959e+13)
(2.62246e+13 -3.04356e+13 -3.6578e+12)
(6.55314e+13 5.30909e+12 -1.66144e+13)
(9.39537e+13 -8.53204e+12 4.46221e+12)
(3.8435e+13 -1.58944e+13 4.24186e+12)
(-2.12542e+14 -1.37537e+14 -1.35549e+13)
(-1.9045e+14 -6.65223e+14 -3.55718e+13)
(1.84991e+14 -4.15572e+14 -9.61258e+13)
(3.65769e+14 -3.79817e+14 -2.7981e+13)
(1.46839e+14 -7.58981e+13 -1.81207e+13)
(4.08588e+13 -5.81932e+13 -9.55945e+12)
(8.318e+13 -6.0542e+13 -1.81352e+13)
(6.94223e+13 -2.58889e+13 8.42939e+12)
(1.96025e+13 -9.08808e+12 -9.65319e+12)
(1.13013e+14 6.10419e+12 -1.60343e+13)
(-9.62804e+14 -5.94104e+14 5.94701e+13)
(-5.4711e+14 -3.37519e+14 -3.34368e+14)
(6.31501e+14 -1.02697e+15 -1.17305e+14)
(7.56299e+14 -1.62679e+14 -1.92375e+14)
(7.02751e+14 -1.40678e+14 -1.75206e+13)
(9.21215e+13 -2.01414e+14 -2.61521e+13)
(9.08332e+13 -1.02519e+14 -2.12411e+13)
(1.68439e+14 -7.48325e+13 -9.96985e+12)
(1.5794e+14 -2.26116e+13 2.01759e+13)
(4.44027e+13 -9.09564e+12 1.61031e+13)
)
;

boundaryField
{
    inlet
    {
        type            zeroGradient;
    }
    outlet
    {
        type            zeroGradient;
    }
    bottom
    {
        type            zeroGradient;
    }
    top
    {
        type            symmetryPlane;
    }
    side1
    {
        type            symmetryPlane;
    }
    side2
    {
        type            symmetryPlane;
    }
    procBoundary23to15
    {
        type            processor;
        value           nonuniform List<vector> 
50
(
(7.50729e+13 2.5151e+13 -3.70535e+13)
(5.96989e+13 -3.05816e+13 7.49244e+12)
(4.59395e+13 2.26699e+13 -4.27633e+13)
(2.34731e+13 -5.05761e+13 4.61525e+12)
(1.09649e+13 1.80409e+13 -4.2352e+13)
(-2.79228e+13 -5.58359e+13 5.85042e+12)
(-5.44617e+13 1.93509e+13 -3.42174e+13)
(-1.01228e+14 -4.09556e+13 5.60259e+12)
(-3.40165e+13 4.44488e+13 -2.71595e+13)
(-4.53406e+12 -6.93462e+12 1.83655e+12)
(5.0973e+13 -2.20968e+13 -1.02617e+13)
(4.14278e+13 2.16624e+13 -1.2619e+11)
(3.67325e+13 -4.38683e+13 -2.94774e+13)
(2.47892e+13 6.96722e+12 -2.16203e+13)
(1.49174e+13 -6.04722e+13 -3.95846e+13)
(-1.89207e+12 -7.86459e+10 -3.15201e+13)
(-5.52547e+13 -5.50922e+13 -3.72484e+13)
(-7.86425e+13 1.25282e+13 -2.63092e+13)
(-4.60679e+13 -1.60922e+13 -2.03185e+13)
(7.64993e+13 1.12582e+13 -3.85815e+12)
(3.09925e+13 -2.60937e+13 -1.85337e+13)
(-1.79134e+12 -4.03573e+13 -3.69116e+13)
(-2.28416e+13 -1.86802e+13 -1.91939e+13)
(-8.87001e+12 -4.61912e+13 -3.81098e+13)
(-2.07145e+13 -2.03672e+13 -1.78787e+13)
(-2.0447e+13 -5.15697e+13 -3.75441e+13)
(-3.77868e+13 -2.00958e+13 -1.32131e+13)
(-4.7052e+13 -3.46931e+13 -2.1443e+13)
(3.78267e+13 4.03052e+12 9.24161e+12)
(7.28311e+13 -6.61227e+12 -7.11476e+11)
(5.65472e+13 -1.72222e+13 -5.34986e+13)
(3.93152e+13 -2.4943e+13 -4.06381e+13)
(3.2898e+13 -3.47e+13 -3.2648e+13)
(2.89976e+13 -3.37704e+13 -1.79707e+13)
(1.67277e+13 -2.98824e+13 -1.88504e+13)
(1.30379e+13 -2.12621e+13 -5.05906e+12)
(-3.73094e+12 -2.34075e+13 -1.19076e+13)
(-6.78733e+12 -8.79302e+12 7.24197e+12)
(2.02728e+13 -6.81278e+12 4.39001e+12)
(4.92029e+13 -2.55682e+12 3.10971e+12)
(6.60215e+13 -3.09708e+13 -8.17306e+12)
(6.49306e+13 -4.1221e+13 -1.13452e+13)
(4.96943e+13 -3.99699e+13 -1.68238e+11)
(3.52821e+13 -3.85696e+13 -6.09638e+12)
(2.06027e+13 -2.91901e+13 1.79567e+12)
(1.77001e+12 -2.96897e+13 -4.88543e+12)
(1.57653e+12 -2.78479e+13 -1.72553e+12)
(5.10054e+12 -2.37276e+13 -3.22685e+12)
(2.46035e+13 -1.77989e+13 1.98942e+12)
(4.8832e+13 -7.25623e+11 -1.87351e+12)
)
;
    }
    procBoundary23to22
    {
        type            processor;
        value           nonuniform List<vector> 
20
(
(8.47573e+13 7.61721e+12 -2.18669e+13)
(5.96133e+13 -1.2753e+13 -1.40952e+13)
(5.13077e+13 -3.4354e+12 -5.52732e+13)
(1.31942e+14 4.96259e+12 -5.77122e+13)
(3.37412e+13 -3.8973e+13 -1.79992e+13)
(5.0892e+13 -6.62031e+13 -1.85757e+13)
(3.74711e+13 -7.32227e+13 -4.10878e+13)
(-6.53668e+13 -3.10577e+13 -7.34371e+13)
(3.67525e+13 -4.39422e+13 -2.9147e+13)
(2.72855e+13 -4.96949e+13 -3.23433e+13)
(1.08492e+13 -9.12136e+13 -3.40004e+13)
(8.31643e+12 -7.9494e+13 -5.89504e+13)
(4.25735e+13 -2.88766e+13 -4.77976e+13)
(1.57525e+13 -7.39685e+13 -4.15864e+13)
(-6.09437e+13 -1.15794e+14 -3.53824e+13)
(-2.84114e+14 -1.85519e+14 -1.04352e+14)
(2.35927e+13 -2.79449e+13 -1.47828e+13)
(4.40802e+12 -2.98307e+13 -1.37236e+13)
(-9.13112e+13 -1.91639e+14 1.28033e+13)
(-1.55605e+14 -2.3977e+14 -6.11266e+13)
)
;
    }
    procBoundary23to31
    {
        type            processor;
        value           nonuniform List<vector> 
50
(
(1.16504e+14 9.19193e+13 -8.28957e+13)
(1.43017e+14 1.02137e+13 -1.30362e+14)
(3.54993e+14 -1.56534e+14 -4.89616e+13)
(6.4379e+13 -2.74654e+13 -1.46709e+14)
(-2.33641e+14 1.26406e+14 -5.24316e+13)
(1.20512e+12 2.78641e+13 -6.67408e+13)
(-7.88891e+13 7.04032e+13 -4.88222e+13)
(-7.34886e+13 5.56434e+13 -4.00104e+13)
(-1.00343e+14 2.29344e+13 -3.04349e+13)
(-1.67126e+14 1.31855e+12 -1.56369e+13)
(-5.17386e+13 4.2864e+13 -1.23764e+14)
(2.51606e+14 -6.02036e+13 -7.30226e+13)
(3.02681e+14 -6.87876e+13 -3.97428e+13)
(5.3275e+13 3.54395e+13 -1.18265e+14)
(2.22578e+13 3.69179e+12 -4.70973e+13)
(1.27551e+13 -1.17912e+13 -6.15569e+13)
(6.64785e+12 -1.51769e+13 -5.31984e+13)
(-1.46491e+13 -4.56642e+12 -4.54282e+13)
(-2.23479e+13 1.35672e+10 -3.76027e+13)
(-1.96961e+13 5.19538e+12 -1.67048e+13)
(1.83226e+14 -1.11031e+13 -8.04625e+13)
(4.11883e+14 1.49398e+14 -2.71597e+14)
(2.10217e+14 1.72006e+14 -9.48798e+13)
(4.08445e+13 1.46269e+14 2.90569e+13)
(-5.21753e+13 1.27953e+14 2.33444e+13)
(-1.83184e+13 6.15271e+13 -2.37731e+13)
(-2.72772e+13 4.20768e+13 -3.67975e+13)
(-2.35822e+13 1.35948e+13 -4.14451e+13)
(-8.42828e+12 1.58467e+13 -2.45281e+13)
(6.65808e+12 2.83617e+12 -1.1328e+13)
(-5.03126e+14 6.89924e+13 -3.53628e+14)
(2.0547e+14 7.89409e+13 -3.20325e+14)
(1.26478e+15 6.34021e+14 -8.12398e+14)
(4.31593e+14 2.07503e+14 -2.18934e+14)
(-1.46798e+14 5.40249e+13 -1.56926e+14)
(-1.79699e+14 1.42027e+13 -1.80951e+14)
(-4.99027e+13 -1.62198e+13 -1.14584e+14)
(2.46132e+13 -5.89096e+12 -6.73198e+13)
(7.40269e+13 -3.05762e+13 -3.55782e+13)
(9.50432e+13 8.23162e+12 -1.74747e+13)
(-4.08039e+14 -2.01081e+14 -3.14033e+14)
(-1.05618e+15 2.80413e+14 8.61136e+12)
(5.3467e+14 7.87124e+13 -7.08299e+14)
(2.13835e+15 5.83415e+14 -2.19546e+14)
(6.93682e+13 -1.18249e+14 -1.74936e+14)
(1.17177e+14 -2.03715e+13 -1.51994e+14)
(3.36344e+14 -7.23312e+12 -8.21627e+13)
(2.29236e+14 3.34448e+13 -3.12925e+13)
(1.51076e+14 4.19158e+13 -1.82179e+13)
(1.76427e+14 -2.52403e+12 -7.21455e+12)
)
;
    }
}


// ************************************************************************* //
