/*--------------------------------*- C++ -*----------------------------------*\
| =========                 |                                                 |
| \\      /  F ield         | OpenFOAM: The Open Source CFD Toolbox           |
|  \\    /   O peration     | Version:  2.4.0                                 |
|   \\  /    A nd           | Web:      www.OpenFOAM.org                      |
|    \\/     M anipulation  |                                                 |
\*---------------------------------------------------------------------------*/
FoamFile
{
    version     2.0;
    format      ascii;
    class       volSymmTensorField;
    location    "0.02";
    object      B;
}
// * * * * * * * * * * * * * * * * * * * * * * * * * * * * * * * * * * * * * //

dimensions      [0 2 -2 0 0 0 0];

internalField   nonuniform List<symmTensor> 
200
(
(3.26361 -0.369687 -0.581732 3.33499 0.123542 3.02227)
(0.950592 -0.231755 -0.539441 0.655811 -0.053027 0.287778)
(1.84034 -0.206874 -0.475526 0.884431 -0.170524 1.16928)
(4.52339 0.00296291 -0.533058 3.5411 0.127614 3.46286)
(4.55172 -0.10549 0.0663128 3.01416 0.132194 2.97379)
(0.522119 0.00974361 0.135386 0.113753 -0.202209 -0.171083)
(1.78001 0.304273 0.624366 2.64291 0.734603 2.80496)
(1.81633 -0.358212 -0.883822 4.1597 -0.623105 4.94084)
(2.52516 -0.276881 -2.17369 7.69548 3.47225 6.44119)
(1.85601 0.41303 -0.983359 3.38861 -0.738596 3.88408)
(1.10335 -0.17956 -0.713438 1.07248 -0.276449 1.03619)
(7.47747 -0.567725 -1.22981 6.02877 -0.46102 6.31231)
(1.8011 -0.615969 -0.0776153 0.389769 0.0307852 0.172119)
(5.53865 -0.117997 -0.285632 4.75465 -0.215539 5.01978)
(5.52843 0.104385 -0.695627 5.18284 0.276857 3.21956)
(2.67763 0.246018 0.741332 2.61346 -0.353885 1.71108)
(0.0432193 -0.236623 -0.461359 1.89045 0.180089 2.67424)
(0.470791 0.195194 0.709434 2.68778 0.234353 2.99042)
(4.04456 -0.427956 -1.67131 7.8679 0.79923 9.55654)
(0.624122 -1.75409 -4.28892 11.3853 4.713 9.64421)
(63.5355 -2.09492 -4.04498 64.6982 0.732618 68.3814)
(1.51055 -0.239382 0.0602946 0.31768 -0.688112 1.33281)
(7.0862 0.361049 0.0197087 5.98771 -0.311798 5.81753)
(5.70678 0.366065 -0.540827 5.50303 -0.195011 4.91469)
(2.50035 0.331779 -0.206966 2.26995 -0.337286 1.52969)
(1.05329 -0.118969 -0.0281491 1.44998 0.0551727 0.710623)
(2.03169 0.219221 0.691811 2.67752 -1.07165 2.36721)
(0.403212 0.141848 -0.913661 3.26703 0.935695 4.73152)
(1.32539 0.555609 0.924497 2.05112 -0.270182 3.06278)
(7.18251 -0.0914314 -4.36016 14.7783 1.82046 18.2282)
(3.68193 -0.108892 -0.646561 3.32738 0.0224722 2.95511)
(1.25846 0.422008 -0.278233 1.65622 0.135968 1.06616)
(1.74484 0.352622 -0.235964 2.03439 -0.115011 1.323)
(2.2219 0.55714 -0.828069 2.02302 -0.272306 1.08181)
(1.23965 0.661466 -0.0195379 1.80632 0.262107 0.364008)
(3.39247 0.738067 -1.60101 4.75948 -1.21702 3.37293)
(2.02132 -0.218769 -0.347559 3.92012 0.317376 1.50524)
(8.25364 0.282347 1.67939 9.03008 -1.65088 8.46551)
(3.14441 0.949506 -2.50891 8.94024 2.13637 9.41958)
(1.50074 0.879901 0.88731 0.881575 -1.04731 2.28256)
(0.0752056 -0.0214744 0.1248 0.0361614 -0.046713 0.267855)
(2.11053 -0.467826 0.567156 1.24442 0.200775 2.39332)
(0.800145 0.00670096 -1.15841 0.560233 -0.364428 -1.05996)
(3.51996 0.0361377 -0.175698 3.20988 0.493569 3.44094)
(17.1097 0.205165 -0.171891 18.0523 -1.65412 5.48077)
(3.9224 -0.0281775 0.0847893 3.47522 -0.142965 2.45845)
(3.68113 -0.426537 0.752649 3.44784 -0.306982 3.33356)
(-0.0699852 -0.121433 0.0366767 0.403148 0.146275 -0.04247)
(0.496301 -0.326626 -0.290932 1.28304 -0.302558 1.99663)
(-0.0880397 -0.51469 -0.791443 1.06531 0.738326 0.711995)
(57.8383 -1.79222 -2.56261 65.852 3.97891 60.8012)
(0.737334 1.34045 -0.323917 -0.755507 1.76705 1.36316)
(9.57789 0.44276 0.142925 7.37142 -0.541536 7.6933)
(28.522 4.95385 -12.4425 28.2217 1.23143 21.1406)
(7.25079 -0.30321 -1.20949 5.32978 -0.570659 4.92452)
(57.312 -0.593893 1.85515 56.5359 0.0536095 56.789)
(4.06556 0.217513 1.38654 5.08553 -0.454079 4.18326)
(0.131421 -0.0684751 0.0956517 0.844992 -0.0764801 0.409843)
(0.891212 -0.268335 0.381615 1.78192 -0.150048 0.284787)
(1.44746 -0.662858 0.032453 2.98072 0.151335 3.13079)
(15.6864 -1.12937 4.10617 16.0633 0.641959 16.5817)
(87.4176 -1.9489 -3.92676 89.1522 0.0677347 89.0624)
(11.4728 1.29697 -2.39424 11.8569 0.227203 11.3801)
(1.65454 0.207502 0.0675636 1.33311 -0.0721697 1.31607)
(6.38673 -0.014705 0.686855 3.58516 1.33054 3.7438)
(1.36881 0.556552 0.539509 2.00182 -0.172044 1.44473)
(1.15214 0.736601 0.594716 1.31943 0.0380525 2.06265)
(2.40584 -0.143334 1.17288 2.89321 -1.04475 1.78225)
(1.31978 -0.310307 0.121198 4.09929 0.148855 2.41049)
(2.74862 0.169325 1.56066 3.6541 -0.798279 1.5785)
(18.0137 -0.850775 -0.682575 13.7605 -2.49023 17.3622)
(4.60329 0.304534 -0.905463 6.29221 -0.688801 5.21331)
(0.256387 -0.0838231 -0.136479 0.718918 0.0816913 0.690292)
(2.50542 0.0627193 0.0654253 1.50911 0.231941 1.15499)
(1.36001 0.527529 0.00236332 2.18285 -0.805241 2.00423)
(2.67968 -0.491808 0.72833 3.05435 0.0763055 1.50929)
(3.00172 0.563733 -0.0622214 3.92808 -1.07338 4.78191)
(5.50674 1.79558 0.702605 7.92823 0.724163 8.42939)
(2.84588 0.0537462 1.56736 1.73366 -1.02852 1.24844)
(5.99611 -1.10354 -1.73869 14.0055 0.769566 8.64595)
(6.8993 -0.433033 0.853836 5.88472 0.0230369 5.91679)
(0.519768 0.0920415 -4.84461 2.17074 -0.92962 5.07729)
(0.518699 -0.181805 0.6977 1.99752 1.75151 2.21133)
(112.693 15.0078 -23.4313 117.672 -6.88979 112.013)
(79.2706 -1.78438 -4.39069 88.3146 4.32959 83.689)
(108.55 -3.69593 5.84013 107.407 0.886238 109.38)
(41.9773 0.912003 1.84039 39.7282 0.18569 39.9342)
(1.60995 0.656401 0.53548 1.37302 -0.406573 0.730792)
(0.7245 -0.0937079 -0.0807058 0.850889 0.0195988 0.575923)
(1.66846 0.256803 1.94572 2.33754 0.126842 2.87395)
(3.22495 -0.700448 -0.00398293 2.80379 0.165159 3.94355)
(0.166691 -0.134378 0.0264308 0.135117 -0.278863 0.40811)
(16.4797 2.81889 -6.24137 16.3015 0.812126 18.5917)
(3.60982 -0.667665 -0.44604 3.47283 -0.568917 3.61146)
(52.2002 -0.806373 1.87371 47.6336 0.967407 53.2579)
(12.0972 0.695391 0.462411 12.5237 0.784899 12.5686)
(1.85723 0.247755 -0.0438345 2.63799 0.155093 1.97797)
(0.191069 0.137287 0.012791 0.486269 -0.14041 0.0683129)
(0.316232 0.0837754 0.334794 0.282916 -0.345624 -0.0521357)
(1.36213 -0.568875 0.0842182 1.6585 0.00315341 0.682654)
(7.3284 -0.18681 -0.434711 7.17309 -0.918378 4.17826)
(1.94847 0.0522514 -1.06022 1.83701 -0.055838 0.289881)
(1.36722 0.288958 -0.119821 1.60856 -0.0797532 2.1538)
(15.5896 -3.18316 -4.56193 10.4519 1.40693 15.2622)
(3.24057 -0.973073 0.129391 3.56001 0.04962 4.2646)
(32.1558 3.06281 4.24202 32.7834 -0.309607 32.8807)
(2.16708 0.550192 0.18944 2.11207 -0.240056 2.33872)
(4.49478 0.0282524 -0.320807 5.91423 0.510964 5.10609)
(0.271331 -0.102216 0.214536 0.548754 -0.332489 0.273603)
(2.51768 -0.662637 1.07121 1.85068 -0.651677 1.90012)
(2.26194 -0.172771 -1.43522 3.22453 -0.127087 2.73019)
(3.05326 -0.66175 -0.804919 3.07718 -0.266035 3.21684)
(6.13526 -0.748633 -0.959915 4.92057 -0.619442 4.91196)
(2.04757 -0.433981 -0.1805 1.01348 -0.377013 1.97436)
(5.32255 1.44748 1.96165 9.27804 1.01784 4.23665)
(1.09602 0.476709 0.609657 1.15655 -0.609665 2.41112)
(14.5365 2.27019 2.83141 13.0462 -0.297415 14.4565)
(1.38559 0.511529 0.0307662 1.47105 -0.234783 1.88383)
(8.5425 -0.482701 -1.19348 11.1945 0.684 10.0763)
(5.4649 0.79328 1.44437 4.94068 -0.574562 5.40841)
(230.576 3.21258 12.2792 229.228 0.368781 228.608)
(0.076566 -0.214953 0.361126 0.495217 -0.0841649 0.452938)
(11.5733 0.860692 -4.98713 11.346 -0.871159 14.2965)
(1.07792 -0.186249 -0.18529 1.85171 0.463842 1.60885)
(50.8936 -0.753136 1.00491 51.7222 -1.11695 55.568)
(3.84479 0.369537 0.0618597 4.39205 0.559112 6.74514)
(2.11405 0.309536 -0.857909 0.951413 -0.144178 1.491)
(3.8093 0.360679 0.568788 2.72117 0.674619 3.01889)
(2.70034 0.326407 0.552461 3.05546 -0.109746 2.85653)
(3.58541 -0.018681 0.613575 3.85773 0.194585 2.10146)
(1.46834 -0.434679 -0.264085 1.36986 0.310818 1.61413)
(3.52038 -0.229249 -0.383916 2.76863 -0.0469057 3.16937)
(0.203592 -0.193827 0.14415 0.296418 -0.0332613 0.481512)
(5.07076 -0.354137 -0.0100531 4.59913 0.136365 7.04485)
(0.390121 0.0483675 -0.0983368 0.67219 0.140855 0.810572)
(1.43253 0.531649 -0.699273 1.66584 -0.029184 0.919472)
(0.338578 0.245026 0.0725078 0.231991 0.0535069 0.375623)
(3.32805 0.615994 0.453522 4.85313 0.447917 3.84952)
(-0.0889966 0.0679869 0.21427 0.34449 0.154093 0.127699)
(0.277062 0.239835 0.371246 0.256137 -0.0212312 -0.111525)
(0.456363 -0.122364 -0.293944 0.290929 -0.111963 0.356338)
(0.549951 -0.0992516 -0.253068 0.636777 0.0458062 0.74336)
(1.67729 -0.0701673 -0.536551 0.801022 -0.557613 1.29195)
(0.312577 -0.0490838 0.139159 0.0843542 -0.0814163 0.457273)
(4.23662 0.552893 0.225057 4.4132 0.0846259 6.32107)
(0.31659 -0.0282597 -0.225618 0.449945 0.284747 0.658509)
(4.83497 1.63162 0.431218 5.01946 0.489049 2.01746)
(1.86011 0.355276 0.184779 2.12442 -0.112697 2.19892)
(1.74971 0.110525 0.145672 3.37311 0.244238 2.55238)
(1.40552 0.0654236 0.206814 1.4798 0.224219 0.974407)
(0.180856 0.103476 0.0395988 0.0843922 -0.147271 0.144321)
(4.29645 -0.763137 -1.58195 3.96567 -0.524978 3.77153)
(1.49938 -0.54018 -0.0253091 0.910302 -0.130227 1.47738)
(2.54033 -0.917186 -0.0725286 1.53288 -2.76631 1.41008)
(2.30866 0.353844 0.357075 1.14797 0.164894 2.48152)
(8.46194 2.41242 2.85178 6.24532 0.806783 8.15668)
(1.68368 0.531138 -0.265157 2.20355 0.258543 2.28388)
(1.86281 1.30608 -0.126837 1.59869 -0.129854 0.713394)
(1.99418 1.41523 1.30176 2.52667 -0.232798 3.24041)
(-0.611877 -0.0742185 -0.233881 1.45039 0.215281 0.214763)
(1.04284 0.418881 -0.499824 0.850693 0.0361235 1.64582)
(3.99566 0.436977 0.164858 3.38455 -0.109687 3.1266)
(0.473307 0.00616751 -0.0386237 0.210152 0.0465234 -0.0300157)
(1.85127 -0.0144373 -0.236915 1.80461 -0.420324 2.3553)
(0.219764 0.19728 -0.323934 0.230881 0.137819 0.25347)
(0.547129 -0.062125 0.117516 0.0529202 -0.374418 0.227085)
(1.37491 0.0889259 0.75684 1.07651 0.434881 1.46969)
(1.36331 0.391266 0.568402 2.03061 -0.162737 1.80366)
(2.67666 0.417766 -0.555877 4.2029 0.419264 1.43198)
(0.46638 0.212297 -0.29748 1.80979 -0.45499 0.481093)
(4.13846 0.659871 0.321324 4.5822 0.0756116 3.8695)
(0.371363 0.148546 -0.0803245 0.382463 -0.0250398 0.210973)
(0.486233 0.055919 -0.396782 0.617402 -0.251068 0.348804)
(0.0748743 -0.00933151 -0.124314 0.401254 -0.0617644 0.178469)
(0.435666 -0.0571726 -0.398178 0.789013 -0.0438467 0.627619)
(0.292391 -0.0588538 0.340378 0.38588 0.0677989 0.85399)
(1.98767 0.503159 0.813139 0.977502 -0.527974 1.75589)
(2.18017 0.334117 0.131533 1.27368 0.110045 1.5637)
(0.839098 0.429531 -0.0219789 0.70436 -0.0515189 0.475499)
(0.859112 -0.0717824 0.0244153 1.2207 0.335275 0.61207)
(0.282267 0.0491911 -0.00390114 0.34529 -0.0158046 0.13384)
(1.1227 0.231018 -0.443423 0.845627 -0.283711 0.78312)
(0.123053 0.0519753 0.00373841 0.107818 0.00344639 0.173177)
(0.379096 0.294704 -0.0432462 0.534735 -0.625325 0.763344)
(-0.148562 -0.11926 0.126554 0.307084 0.40423 0.225468)
(1.0243 -0.991447 -0.982697 2.45437 0.262834 1.56781)
(1.25648 -0.432552 0.996235 2.03938 0.271348 2.99241)
(4.70521 0.862246 0.839374 4.17078 -0.0634169 3.58416)
(6.66554 0.973202 -0.0697863 5.42386 0.155884 5.12705)
(0.722996 0.560817 -1.72477 0.86215 -0.196836 -0.603531)
(2.0702 -0.32832 -1.44427 2.07377 0.121821 1.1841)
(1.09101 -0.049577 0.0849486 0.247788 -1.12214 1.78677)
(2.65031 0.0997594 -1.58527 2.54284 0.0638091 4.28525)
(7.7589 0.325659 0.218852 7.03212 -0.838313 8.2639)
(11.3852 -0.346008 1.69438 13.5646 -1.85048 12.8598)
(0.0330041 0.318793 0.211911 1.11293 0.768221 0.648041)
(4.07835 -0.0584329 0.869492 5.10172 0.927902 3.13781)
(3.17202 0.772415 0.106601 3.38725 -0.0787082 1.77849)
(4.94157 1.51362 -3.68556 2.93243 -0.515404 0.29855)
(5.87244 0.664035 0.230572 2.99608 0.0791945 3.46997)
)
;

boundaryField
{
    inlet
    {
        type            calculated;
        value           nonuniform 0();
    }
    outlet
    {
        type            calculated;
        value           nonuniform 0();
    }
    bottom
    {
        type            calculated;
        value           nonuniform List<symmTensor> 
40
(
(0.00928028 -0.0467748 -0.11803 0.0183112 0.0128811 -0.035139)
(-0.0132305 -0.018466 -0.152917 -0.0164057 0.00107017 0.0329287)
(-0.142138 -0.16193 -0.401656 -0.0522683 -0.0461953 -0.147895)
(0.0469921 -0.010373 -0.101442 0.0132183 -0.0258285 -0.0918498)
(0.0195101 -0.0168696 -0.0822249 -0.00194723 -0.00160144 -0.0293485)
(0.0731452 -0.044254 -0.131557 -0.0397808 -0.0310463 -0.0430882)
(0.0252588 -0.0145126 -0.0873602 -0.0470595 -0.0584438 -0.166678)
(-0.0108724 0.0465821 -0.0782731 0.0330336 -0.0397354 -0.0924102)
(0.0394804 -0.0120929 -0.066159 -0.0163977 -0.0239898 0.0021676)
(0.0504635 -0.0355595 -0.0480913 -0.0310117 0.000339393 -0.03089)
(0.10542 0.0381268 -0.0506978 -0.0105811 -0.0712191 0.0194591)
(0.00165428 0.0473282 -0.0715996 0.0405171 -0.0292151 -0.106271)
(0.0866187 0.000368189 -0.0921868 -0.0354462 0.00932274 0.0217113)
(0.0699854 -0.0111088 -0.0561085 -0.00382383 -0.049388 0.095657)
(0.0520607 0.0537519 -0.117821 0.0221427 -0.04119 -0.0310219)
(0.0267659 0.0306041 -0.0831961 0.0158412 -0.0236386 -0.0590622)
(0.0904705 -0.00757611 0.00183103 -0.0199544 -0.00347246 -0.0471187)
(0.0620273 0.0125864 -0.0970558 0.020357 -0.0104217 0.0150644)
(0.0418535 0.0289274 -0.0524247 0.0217656 -0.0205924 -0.0540574)
(0.000326832 0.0445193 -0.0397445 0.0384655 0.0338597 -0.135584)
(0.0195118 0.000548695 0.0103099 -0.00348469 -0.0221886 0.107405)
(0.0294177 0.0166945 0.0363716 0.0250634 -0.020807 0.00263874)
(0.00862244 -0.00953091 -0.037168 0.0404022 0.0319864 0.0189717)
(-0.0153612 0.0311784 -0.103209 0.0423859 -0.0200251 0.0121018)
(-0.0148027 0.01359 0.0210588 0.0237378 0.0300392 0.0184766)
(-0.0628258 -0.0101712 -0.0344261 0.0165768 0.033035 0.195301)
(-0.0208007 0.0135297 0.0139442 0.0190583 -0.066753 0.0086621)
(-0.0266217 -0.0130211 -0.0701372 0.0863947 0.0718317 -0.21544)
(-0.0888729 -0.0177326 -0.0515049 0.0271313 -0.0117324 0.21068)
(-0.0675618 0.00868294 -0.00596089 0.031058 0.00970345 0.0202296)
(-0.0705639 0.00441213 -0.0659901 0.0185141 0.0673915 0.221415)
(-0.025317 0.0188432 0.0750333 0.0265005 -0.101065 0.031286)
(-0.0661732 -0.00646992 -0.0953396 0.0546424 0.0804549 -0.0473358)
(-0.151953 -0.0196908 -0.119769 0.023964 0.0867224 0.367872)
(-0.0376515 0.0277649 -0.0153279 -0.00138525 -0.0078249 0.0318275)
(-0.0961935 0.0244674 -0.108423 0.0531565 0.0813446 0.191906)
(-0.0683215 0.023334 -0.0888333 0.0182627 -0.0241428 0.161824)
(-0.0817528 -0.0241026 -0.16517 0.0661144 0.0604344 -0.069971)
(-0.170324 -0.00246516 -0.166645 0.0344712 0.117716 0.460934)
(-0.00480591 0.0353664 -0.0512991 -0.0296924 -0.0262933 -0.00568626)
)
;
    }
    top
    {
        type            symmetryPlane;
    }
    side1
    {
        type            symmetryPlane;
    }
    side2
    {
        type            symmetryPlane;
    }
    procBoundary1to0
    {
        type            processor;
        value           nonuniform List<symmTensor> 
20
(
(-0.268476 -0.0543376 -0.41529 0.246215 -0.0243736 -0.175067)
(-2.75591 -0.454192 -1.63519 2.35864 2.70132 1.50753)
(-0.795483 -0.140771 -0.982237 -0.375153 0.521293 1.12461)
(0.0525685 -1.94375 -3.05954 -1.58806 -1.22325 0.133714)
(-0.665317 -0.214171 -0.241895 1.38384 1.10558 -0.0763658)
(-0.310741 -0.23078 -0.101577 0.0263294 -0.00743503 0.0553529)
(10.4345 16.0661 26.0069 -5.05148 -7.18039 -9.03597)
(1.38888 0.159578 0.141809 -1.82568 1.91202 0.464997)
(1.60184 0.118493 0.557334 0.276501 -0.657241 -4.15525)
(0.224763 -0.648383 -0.398655 -0.0443584 -0.110816 -0.305202)
(0.23666 -0.195826 0.1376 -0.0218961 0.103452 0.561959)
(0.159391 0.278856 -0.125001 0.117101 -0.272996 -0.145733)
(0.919637 0.117431 -0.588976 -2.20236 3.96186 0.447827)
(-0.475722 0.202522 0.862735 1.60393 2.71152 -0.091975)
(0.0680437 -0.166456 0.0660945 -0.410686 -0.125087 0.0331732)
(-0.0170439 -0.469322 0.376158 0.136846 -0.131851 -0.230178)
(-2.04136 0.432168 3.05244 -1.73923 0.264112 6.89591)
(-0.32169 0.0477321 -0.0171861 0.150225 -0.205318 -0.0546539)
(-0.291782 0.0158757 0.0427406 0.677154 0.134383 -0.291431)
(0.0112313 -0.0088587 0.0316421 0.124007 0.0308383 -0.0671083)
)
;
    }
    procBoundary1to2
    {
        type            processor;
        value           nonuniform List<symmTensor> 
20
(
(-1.2424 -4.3796 -5.56341 3.92728 3.98233 -0.388478)
(-2.69248 0.336388 -1.54272 -0.919466 0.0402824 1.66787)
(-5.54288 0.590272 -4.25267 4.27635 3.33802 6.2662)
(-7.55196 0.127388 -8.00052 2.40107 3.16896 4.45582)
(-2.52199 1.85688 0.435836 -1.27786 -0.730704 4.1258)
(-3.04675 -1.00702 -0.621973 3.03315 1.74438 -1.93466)
(-2.4125 -1.73301 -0.850774 2.08356 -0.187585 1.82188)
(-0.308521 1.78684 5.20636 -0.802725 -2.64953 -1.42026)
(-1.25682 -0.332183 -0.76147 0.753609 -1.1268 0.980986)
(2.16989 -0.874554 12.412 -0.805199 -0.957728 0.737479)
(-0.921706 -0.496499 0.934364 2.90459 0.262178 -2.10855)
(-0.658799 0.186973 -1.29439 -0.246917 -1.21712 0.39194)
(-1.66735 0.3348 3.6961 2.49778 -1.65289 -11.0089)
(0.200407 -0.104986 0.165316 0.108705 0.0124619 -0.139382)
(-0.0450295 1.74286 2.55049 0.258924 0.0368021 -2.33764)
(0.802452 0.198381 0.0928897 0.759031 -0.223249 -1.13867)
(1.10971 0.445635 -1.23068 2.89818 1.72596 -1.54439)
(0.266404 0.0212059 -0.588685 -0.0193593 -0.506774 -0.541588)
(0.0323068 -0.0906156 -0.199421 0.531942 0.498761 0.3616)
(0.499284 0.0304559 -1.57272 -0.143731 0.162266 -0.464241)
)
;
    }
    procBoundary1to9
    {
        type            processor;
        value           nonuniform List<symmTensor> 
50
(
(-0.198785 -0.138767 -0.467307 0.316611 0.14938 -0.168038)
(0.0047117 -0.112348 -0.305184 0.420504 0.117194 -0.266816)
(0.300637 0.200477 -1.41905 0.349948 0.273306 -0.723903)
(0.296991 0.710705 -0.149612 0.473839 0.154359 -0.630519)
(0.601894 1.29061 -2.98612 0.574119 0.469544 -1.10866)
(0.429693 1.24215 -0.219077 1.01025 1.0948 -1.72278)
(1.1919 1.03074 -3.52132 1.32695 1.61124 -2.26582)
(-0.461355 -0.374519 -0.755979 2.79141 1.88962 -2.1474)
(-0.913026 -0.0449259 2.27057 -0.010841 -0.516456 0.254766)
(-5.69835 0.530825 -5.16786 4.63052 4.70241 3.21163)
(-0.473391 0.737969 -1.3551 0.311835 0.0311011 0.159576)
(0.963258 -0.819037 -0.485645 -0.378987 0.00858317 0.0179275)
(0.497926 -0.228792 0.0603833 -0.191639 -0.0269796 -0.614211)
(1.30975 -0.030292 -1.48195 -0.312291 -0.494422 -0.171866)
(0.291201 0.237833 0.455102 0.213702 -0.228123 -1.16458)
(-0.563671 0.680822 -0.915294 0.0966168 -2.2815 1.64158)
(-1.12964 0.666004 1.23527 2.01188 0.0200773 -0.51016)
(-0.592705 0.10951 0.759255 -0.149665 -0.322131 0.893168)
(-2.59203 2.67254 0.569734 1.20141 1.62914 1.59874)
(0.157985 0.211842 0.266074 -0.54658 -0.545825 -0.347616)
(0.0430924 -0.276882 -0.565023 -0.0544627 -0.107581 0.194955)
(0.15363 -1.4673 -2.74405 -0.352644 -0.60455 -0.403272)
(0.934278 -1.0849 -0.757007 -0.34925 -0.408189 0.306159)
(1.81095 -0.527572 -1.03459 -0.191174 -1.04887 -3.50426)
(0.821215 -1.06733 -0.0317578 -0.788935 -3.39772 3.21114)
(-0.457801 2.00547 3.96873 -0.15444 -0.831619 0.847804)
(-0.270409 0.54523 0.234977 -0.0134259 -0.291514 0.492148)
(2.15767 5.45692 5.77412 -1.70033 -0.952444 -0.162607)
(-0.0518095 0.0942917 0.0562721 -0.136491 -0.0198892 0.188773)
(-1.89083 -0.995784 -1.95772 3.2179 1.80671 -0.23823)
(-0.191898 -1.42913 -1.8303 0.177309 0.199253 0.158152)
(0.17844 -0.452418 -0.166531 -0.268601 -0.140133 -0.321254)
(0.368045 -0.609204 -6.92545 -0.834221 -0.170505 1.15166)
(2.9444 -2.22446 2.25067 -1.59745 -1.49551 -4.21456)
(3.06705 -1.77051 6.11113 1.08939 0.503891 -2.67791)
(-0.0999891 1.3079 0.0269323 -0.363939 0.117803 0.778684)
(-0.561098 3.05628 -0.0710744 -0.466436 0.532762 0.63617)
(-0.226 1.1916 -0.234376 -0.135582 0.295618 0.625531)
(0.684902 0.494979 -0.237777 -0.52835 -0.253811 -0.820279)
(-0.0801689 0.38114 0.344418 -0.0617691 -0.0141348 0.214767)
(0.789506 -0.619233 -1.42469 -1.29656 -2.27243 -0.552765)
(-1.39876 -0.588509 -2.01928 0.106167 0.687658 3.0326)
(7.94018 -3.74944 -13.1501 -7.31975 -7.78313 2.76388)
(-11.5078 3.45237 -11.4826 -0.849752 0.684529 18.5759)
(-0.788784 1.50321 2.27469 -1.76101 -1.60779 1.0124)
(0.723742 -1.39076 1.96671 1.68896 -3.11134 -0.507225)
(-0.639155 -0.142562 -0.373747 0.132502 0.283969 -0.448985)
(1.11128 -0.287652 -0.770187 -0.191099 0.03684 -1.08423)
(2.30405 -0.216832 -0.141174 -0.902882 0.0853834 -0.608685)
(3.64876 -0.302643 -3.0602 -1.09876 1.14827 -2.38208)
)
;
    }
}


// ************************************************************************* //
