/*--------------------------------*- C++ -*----------------------------------*\
| =========                 |                                                 |
| \\      /  F ield         | OpenFOAM: The Open Source CFD Toolbox           |
|  \\    /   O peration     | Version:  2.4.0                                 |
|   \\  /    A nd           | Web:      www.OpenFOAM.org                      |
|    \\/     M anipulation  |                                                 |
\*---------------------------------------------------------------------------*/
FoamFile
{
    version     2.0;
    format      ascii;
    class       surfaceScalarField;
    location    "0.02";
    object      phia;
}
// * * * * * * * * * * * * * * * * * * * * * * * * * * * * * * * * * * * * * //

dimensions      [0 3 -1 0 0 0 0];

internalField   nonuniform List<scalar> 
490
(
6.91283e-06
7.73982e-07
3.23637e-07
6.91254e-06
7.75168e-07
3.23621e-07
6.9122e-06
7.76351e-07
3.23604e-07
6.91182e-06
7.7753e-07
3.23584e-07
6.91138e-06
7.78704e-07
3.23561e-07
6.91087e-06
7.7987e-07
3.23535e-07
6.91027e-06
7.81027e-07
3.23505e-07
6.90955e-06
7.8217e-07
3.23468e-07
6.90868e-06
7.83295e-07
3.23425e-07
7.84393e-07
3.23372e-07
6.90308e-06
7.85614e-07
3.22996e-07
6.90208e-06
7.86228e-07
3.22933e-07
6.90094e-06
7.8683e-07
3.22861e-07
6.89962e-06
7.87414e-07
3.22778e-07
6.89809e-06
7.87979e-07
3.22681e-07
6.89627e-06
7.8852e-07
3.22567e-07
6.8941e-06
7.8903e-07
3.22432e-07
6.89145e-06
7.89503e-07
3.22268e-07
6.88817e-06
7.89931e-07
3.22066e-07
7.90307e-07
3.21811e-07
6.48241e-06
7.89849e-07
2.99417e-07
6.43721e-06
7.90201e-07
2.96991e-07
6.38484e-06
7.90533e-07
2.94198e-07
6.32381e-06
7.9084e-07
2.90964e-07
6.25221e-06
7.91119e-07
2.87197e-07
6.16762e-06
7.91365e-07
2.82782e-07
6.06691e-06
7.91573e-07
2.77574e-07
5.94597e-06
7.91739e-07
2.71381e-07
5.7991e-06
7.91858e-07
2.63942e-07
7.91935e-07
2.54851e-07
5.79741e-06
2.61552e-07
5.70506e-06
2.56576e-07
5.60237e-06
2.51045e-07
5.48809e-06
2.4489e-07
5.3609e-06
2.38041e-07
5.21941e-06
2.30423e-07
5.06212e-06
2.21962e-07
4.88717e-06
2.12582e-07
4.6914e-06
2.0217e-07
1.90458e-07
6.91183e-06
7.72495e-07
3.23592e-07
6.91147e-06
7.73662e-07
3.23573e-07
6.91107e-06
7.74819e-07
3.23553e-07
6.91061e-06
7.75963e-07
3.23529e-07
6.91008e-06
7.77089e-07
3.23502e-07
6.90946e-06
7.78192e-07
3.23471e-07
6.90874e-06
7.79265e-07
3.23434e-07
6.90788e-06
7.80297e-07
3.23391e-07
6.90684e-06
7.81276e-07
3.2334e-07
7.82182e-07
3.23277e-07
6.89733e-06
7.84256e-07
3.22762e-07
6.89571e-06
7.8481e-07
3.22677e-07
6.89384e-06
7.85335e-07
3.2258e-07
6.89165e-06
7.85826e-07
3.22468e-07
6.88906e-06
7.86274e-07
3.22338e-07
6.88595e-06
7.86669e-07
3.22184e-07
6.88216e-06
7.86996e-07
3.22002e-07
6.87744e-06
7.87237e-07
3.21781e-07
6.87141e-06
7.87372e-07
3.21509e-07
7.87373e-07
3.21163e-07
6.44977e-06
7.88416e-07
2.98084e-07
6.40322e-06
7.88674e-07
2.95621e-07
6.34961e-06
7.88899e-07
2.92792e-07
6.28753e-06
7.89084e-07
2.89528e-07
6.21524e-06
7.89222e-07
2.85741e-07
6.13056e-06
7.89305e-07
2.81325e-07
6.03067e-06
7.89324e-07
2.76148e-07
5.91172e-06
7.89267e-07
2.70041e-07
5.76764e-06
7.89123e-07
2.62763e-07
7.88882e-07
2.5387e-07
5.76342e-06
2.60154e-07
5.6714e-06
2.55236e-07
5.56903e-06
2.49764e-07
5.45511e-06
2.4367e-07
5.3284e-06
2.36882e-07
5.18768e-06
2.2933e-07
5.03181e-06
2.20954e-07
4.8593e-06
2.11703e-07
4.66661e-06
2.01491e-07
1.89999e-07
6.91091e-06
7.71012e-07
3.23549e-07
6.91049e-06
7.72147e-07
3.23528e-07
6.91001e-06
7.73265e-07
3.23504e-07
6.90947e-06
7.74363e-07
3.23476e-07
6.90884e-06
7.75433e-07
3.23445e-07
6.90812e-06
7.76466e-07
3.23409e-07
6.90727e-06
7.77451e-07
3.23367e-07
6.90626e-06
7.78371e-07
3.23317e-07
6.90503e-06
7.79204e-07
3.23257e-07
7.79919e-07
3.23184e-07
6.89115e-06
7.82852e-07
3.22532e-07
6.88887e-06
7.83326e-07
3.22428e-07
6.88622e-06
7.83759e-07
3.22308e-07
6.8831e-06
7.84142e-07
3.2217e-07
6.87938e-06
7.84461e-07
3.22008e-07
6.8749e-06
7.847e-07
3.21818e-07
6.86941e-06
7.84838e-07
3.21592e-07
6.86256e-06
7.84846e-07
3.2132e-07
6.85372e-06
7.84687e-07
3.20987e-07
7.84313e-07
3.20563e-07
6.42872e-06
7.86928e-07
2.97254e-07
6.3814e-06
7.87087e-07
2.94787e-07
6.32689e-06
7.87199e-07
2.91954e-07
6.26377e-06
7.87256e-07
2.88682e-07
6.19031e-06
7.87247e-07
2.84884e-07
6.10442e-06
7.87161e-07
2.80456e-07
6.0035e-06
7.86984e-07
2.75273e-07
5.88402e-06
7.86697e-07
2.69186e-07
5.7397e-06
7.86283e-07
2.6198e-07
7.85715e-07
2.53181e-07
5.74105e-06
2.59301e-07
5.64981e-06
2.54466e-07
5.54811e-06
2.49079e-07
5.43465e-06
2.43065e-07
5.30815e-06
2.3635e-07
5.16747e-06
2.28863e-07
5.01172e-06
2.20548e-07
4.83988e-06
2.11378e-07
4.64825e-06
2.01301e-07
1.89964e-07
6.91002e-06
7.69535e-07
3.22808e-07
6.90954e-06
7.70631e-07
3.22807e-07
6.90899e-06
7.71706e-07
3.22802e-07
6.90837e-06
7.72752e-07
3.22794e-07
6.90766e-06
7.7376e-07
3.22781e-07
6.90683e-06
7.74719e-07
3.22764e-07
6.90585e-06
7.75611e-07
3.2274e-07
6.90469e-06
7.76415e-07
3.2271e-07
6.90327e-06
7.77097e-07
3.22669e-07
7.77614e-07
3.22614e-07
6.88485e-06
7.81433e-07
3.21588e-07
6.8819e-06
7.81821e-07
3.21489e-07
6.87845e-06
7.82155e-07
3.21372e-07
6.87437e-06
7.82423e-07
3.21233e-07
6.86948e-06
7.82606e-07
3.21067e-07
6.86356e-06
7.82683e-07
3.20867e-07
6.85628e-06
7.82623e-07
3.20627e-07
6.84718e-06
7.8239e-07
3.20336e-07
6.83539e-06
7.8193e-07
3.19978e-07
7.81167e-07
3.19517e-07
6.41316e-06
7.85418e-07
2.95993e-07
6.3655e-06
7.85477e-07
2.93572e-07
6.3105e-06
7.85476e-07
2.90785e-07
6.24666e-06
7.85404e-07
2.87558e-07
6.1722e-06
7.85247e-07
2.838e-07
6.08503e-06
7.84988e-07
2.79406e-07
5.98267e-06
7.84608e-07
2.74256e-07
5.86188e-06
7.84085e-07
2.68216e-07
5.71628e-06
7.83392e-07
2.61099e-07
7.82485e-07
2.52413e-07
5.72545e-06
2.58175e-07
5.63529e-06
2.53465e-07
5.53455e-06
2.48207e-07
5.42183e-06
2.42323e-07
5.29573e-06
2.35732e-07
5.15508e-06
2.28356e-07
4.99914e-06
2.20143e-07
4.82735e-06
2.1108e-07
4.63598e-06
2.01155e-07
1.89989e-07
6.90915e-06
7.6806e-07
6.90861e-06
7.69116e-07
6.90801e-06
7.70145e-07
6.90731e-06
7.71137e-07
6.90651e-06
7.72082e-07
6.90557e-06
7.72964e-07
6.90447e-06
7.73762e-07
6.90316e-06
7.74446e-07
6.90156e-06
7.74977e-07
7.7529e-07
6.87852e-06
7.80008e-07
6.87492e-06
7.80309e-07
6.87069e-06
7.80544e-07
6.86565e-06
7.80695e-07
6.85958e-06
7.8074e-07
6.85219e-06
7.80652e-07
6.84308e-06
7.80392e-07
6.83165e-06
7.79912e-07
6.81681e-06
7.79146e-07
7.77985e-07
6.40089e-06
7.839e-07
6.35316e-06
7.83862e-07
6.29796e-06
7.83751e-07
6.23374e-06
7.83551e-07
6.15861e-06
7.83246e-07
6.0704e-06
7.82813e-07
5.96667e-06
7.82228e-07
5.84448e-06
7.81463e-07
5.69735e-06
7.80485e-07
7.79227e-07
5.71485e-06
5.62585e-06
5.52623e-06
5.41447e-06
5.28901e-06
5.14854e-06
4.99238e-06
4.82036e-06
4.62884e-06
)
;

boundaryField
{
    inlet
    {
        type            calculated;
        value           nonuniform 0();
    }
    outlet
    {
        type            calculated;
        value           nonuniform 0();
    }
    bottom
    {
        type            calculated;
        value           uniform 0;
    }
    top
    {
        type            symmetryPlane;
        value           uniform 0;
    }
    side1
    {
        type            symmetryPlane;
        value           uniform 0;
    }
    side2
    {
        type            symmetryPlane;
        value           nonuniform 0();
    }
    procBoundary1to0
    {
        type            processor;
        value           nonuniform List<scalar> 
20
(
-6.9131e-06
-6.90394e-06
-6.51747e-06
-5.87006e-06
-6.91217e-06
-6.89868e-06
-6.48548e-06
-5.8349e-06
-6.91131e-06
-6.893e-06
-6.4646e-06
-5.81189e-06
-6.91047e-06
-6.8872e-06
-6.44932e-06
-5.79627e-06
-6.90966e-06
-6.88138e-06
-6.43754e-06
-5.78608e-06
)
;
    }
    procBoundary1to2
    {
        type            processor;
        value           nonuniform List<scalar> 
20
(
6.90761e-06
6.88398e-06
5.61984e-06
4.47432e-06
6.90555e-06
6.86349e-06
5.59255e-06
4.4524e-06
6.9035e-06
6.842e-06
5.56408e-06
4.43416e-06
6.90149e-06
6.81958e-06
5.53823e-06
4.42095e-06
6.89952e-06
6.7967e-06
5.51634e-06
4.41245e-06
)
;
    }
    procBoundary1to9
    {
        type            processor;
        value           nonuniform List<scalar> 
50
(
7.91681e-07
7.91856e-07
7.9201e-07
7.92143e-07
7.92252e-07
7.92336e-07
7.92394e-07
7.92425e-07
7.92431e-07
7.92418e-07
7.90201e-07
7.90287e-07
7.90344e-07
7.90369e-07
7.90359e-07
7.9031e-07
7.90221e-07
7.90089e-07
7.89914e-07
7.89699e-07
7.88683e-07
7.88681e-07
7.8864e-07
7.88556e-07
7.88425e-07
7.88241e-07
7.88e-07
7.87698e-07
7.87333e-07
7.86903e-07
7.87152e-07
7.87063e-07
7.86926e-07
7.86735e-07
7.86482e-07
7.86161e-07
7.85765e-07
7.85286e-07
7.84723e-07
7.84064e-07
7.85622e-07
7.85448e-07
7.85216e-07
7.84918e-07
7.84545e-07
7.84085e-07
7.8353e-07
7.82869e-07
7.82098e-07
7.812e-07
)
;
    }
}


// ************************************************************************* //
