/*--------------------------------*- C++ -*----------------------------------*\
| =========                 |                                                 |
| \\      /  F ield         | OpenFOAM: The Open Source CFD Toolbox           |
|  \\    /   O peration     | Version:  2.4.0                                 |
|   \\  /    A nd           | Web:      www.OpenFOAM.org                      |
|    \\/     M anipulation  |                                                 |
\*---------------------------------------------------------------------------*/
FoamFile
{
    version     2.0;
    format      ascii;
    class       volVectorField;
    location    "0.02";
    object      Uc;
}
// * * * * * * * * * * * * * * * * * * * * * * * * * * * * * * * * * * * * * //

dimensions      [0 1 -1 0 0 0 0];

internalField   nonuniform List<vector> 
200
(
(9.14536e-47 2.13353e-47 1.64776e-47)
(1.7945e-44 4.20996e-45 3.23378e-45)
(3.49057e-42 8.23521e-43 6.29127e-43)
(6.72484e-40 1.59554e-40 1.21227e-40)
(1.28192e-37 3.05868e-38 2.31127e-38)
(2.41498e-35 5.79479e-36 4.35491e-36)
(4.48991e-33 1.08345e-33 8.09798e-34)
(8.22449e-31 1.99582e-31 1.48361e-31)
(1.48135e-28 3.61494e-29 2.67264e-29)
(2.61713e-26 6.42218e-27 4.72257e-27)
(6.40246e-48 2.63017e-48 6.1774e-49)
(1.21548e-45 5.00213e-46 1.16863e-46)
(2.28418e-43 9.4165e-44 2.18806e-44)
(4.24488e-41 1.75289e-41 4.0505e-42)
(7.79215e-39 3.22296e-39 7.40494e-40)
(1.41102e-36 5.84531e-37 1.33508e-37)
(2.51663e-34 1.04409e-34 2.37016e-35)
(4.4129e-32 1.83331e-32 4.13535e-33)
(7.591e-30 3.15756e-30 7.07517e-31)
(1.27762e-27 5.32013e-28 1.18378e-28)
(5.63096e-47 4.01538e-47 1.34719e-48)
(1.11431e-44 7.94658e-45 2.66484e-46)
(2.18593e-42 1.55898e-42 5.22552e-44)
(4.24709e-40 3.02917e-40 1.0149e-41)
(8.16448e-38 5.82354e-38 1.95031e-39)
(1.55106e-35 1.1064e-35 3.70386e-37)
(2.90787e-33 2.07436e-33 6.94165e-35)
(5.37084e-31 3.83155e-31 1.28173e-32)
(9.75327e-29 6.95831e-29 2.32691e-30)
(1.73711e-26 1.23937e-26 4.14321e-28)
(1.80491e-48 1.28632e-48 4.31365e-50)
(3.42755e-46 2.44277e-46 8.19106e-48)
(6.44133e-44 4.5907e-44 1.53923e-45)
(1.1967e-41 8.52888e-42 2.85948e-43)
(2.19528e-39 1.56459e-39 5.24534e-41)
(3.97089e-37 2.83011e-37 9.48765e-39)
(7.07077e-35 5.03947e-35 1.6894e-36)
(1.23704e-32 8.81664e-33 2.95561e-34)
(2.12139e-30 1.51197e-30 5.06867e-32)
(3.55592e-28 2.53441e-28 8.49652e-30)
(1.10357e-48 2.60439e-49 1.99097e-49)
(2.08231e-46 4.93728e-47 3.75722e-47)
(3.88811e-44 9.2625e-45 7.01642e-45)
(7.17684e-42 1.71783e-42 1.29529e-42)
(1.30801e-39 3.14575e-40 2.36103e-40)
(2.35055e-37 5.68013e-38 4.24341e-38)
(4.15814e-35 1.00965e-35 7.50761e-36)
(7.22708e-33 1.76328e-33 1.30503e-33)
(1.23127e-30 3.01856e-31 2.22365e-31)
(2.0505e-28 5.05105e-29 3.70361e-29)
(9.94338e-50 4.03319e-50 1.61963e-50)
(1.84604e-47 7.48226e-48 3.05366e-48)
(3.3922e-45 1.37359e-45 5.70475e-46)
(6.16399e-43 2.49299e-43 1.05516e-43)
(1.10645e-40 4.46848e-41 1.93048e-41)
(1.95962e-38 7.90033e-39 3.48998e-39)
(3.41971e-36 1.37583e-36 6.22669e-37)
(5.87059e-34 2.35618e-34 1.09482e-34)
(9.89503e-32 3.96035e-32 1.89377e-32)
(1.63374e-29 6.5183e-30 3.2159e-30)
(6.98505e-49 4.97757e-49 1.69671e-50)
(1.32653e-46 9.45357e-47 3.22049e-48)
(2.49303e-44 1.77678e-44 6.0493e-46)
(4.63178e-42 3.30129e-42 1.12334e-43)
(8.49693e-40 6.05657e-40 2.0598e-41)
(1.53696e-37 1.09561e-37 3.72422e-39)
(2.73676e-35 1.951e-35 6.62879e-37)
(4.78781e-33 3.4134e-33 1.15925e-34)
(8.21008e-31 5.85366e-31 1.98723e-32)
(1.37604e-28 9.81173e-29 3.32978e-30)
(2.12199e-50 1.51172e-50 5.11066e-52)
(3.88884e-48 2.77048e-48 9.36495e-50)
(7.04432e-46 5.01855e-46 1.69622e-47)
(1.25984e-43 8.97552e-44 3.03337e-45)
(2.22172e-41 1.58284e-41 5.349e-43)
(3.8574e-39 2.74818e-39 9.28676e-41)
(6.58177e-37 4.68916e-37 1.58457e-38)
(1.1012e-34 7.84548e-35 2.65122e-36)
(1.80151e-32 1.2835e-32 4.33759e-34)
(2.87097e-30 2.04548e-30 6.91348e-32)
(6.40268e-51 1.5218e-51 1.15643e-51)
(1.16679e-48 2.78506e-49 2.10764e-49)
(2.10162e-46 5.03793e-47 3.79671e-47)
(3.7374e-44 8.9976e-45 6.7526e-45)
(6.55359e-42 1.58452e-42 1.18421e-42)
(1.13143e-39 2.74731e-40 2.04467e-40)
(1.91968e-37 4.6813e-38 3.46954e-38)
(3.19397e-35 7.82195e-36 5.77323e-36)
(5.19658e-33 1.27801e-33 9.39401e-34)
(8.2372e-31 2.03426e-31 1.48921e-31)
(7.0788e-52 2.83725e-52 1.43085e-52)
(1.28124e-49 5.12681e-50 2.63232e-50)
(2.29375e-47 9.16135e-48 4.79314e-48)
(4.05786e-45 1.6174e-45 8.63067e-46)
(7.08622e-43 2.818e-43 1.53516e-43)
(1.21999e-40 4.83927e-41 2.69416e-41)
(2.06769e-38 8.17877e-39 4.65843e-39)
(3.44386e-36 1.358e-36 7.92283e-37)
(5.6247e-34 2.21042e-34 1.32275e-34)
(8.98316e-32 3.51735e-32 2.16245e-32)
(4.12559e-51 2.93814e-51 1.01565e-52)
(7.55985e-49 5.38429e-49 1.86006e-50)
(1.36924e-46 9.75266e-47 3.36716e-48)
(2.44851e-44 1.7441e-44 6.01828e-46)
(4.31734e-42 3.07548e-42 1.0607e-43)
(7.49477e-40 5.33927e-40 1.84062e-41)
(1.27861e-37 9.10934e-38 3.13907e-39)
(2.13886e-35 1.52391e-35 5.24974e-37)
(3.49836e-33 2.4927e-33 8.58524e-35)
(5.57381e-31 3.97185e-31 1.3678e-32)
(1.23492e-52 8.79459e-53 2.99509e-54)
(2.18873e-50 1.55874e-50 5.30786e-52)
(3.83015e-48 2.72774e-48 9.28779e-50)
(6.61026e-46 4.70771e-46 1.60287e-47)
(1.12364e-43 8.00242e-44 2.72461e-45)
(1.87834e-41 1.33773e-41 4.55479e-43)
(3.08213e-39 2.19506e-39 7.47455e-41)
(4.95258e-37 3.52717e-37 1.20125e-38)
(7.7679e-35 5.53223e-35 1.88456e-36)
(1.18335e-32 8.42784e-33 2.87189e-34)
(2.45634e-53 5.8666e-54 4.4411e-54)
(4.33193e-51 1.03868e-51 7.83293e-52)
(7.54305e-49 1.81574e-49 1.36405e-49)
(1.29538e-46 3.13043e-47 2.34273e-47)
(2.19111e-44 5.31582e-45 3.96309e-45)
(3.64497e-42 8.8774e-43 6.59333e-43)
(5.95233e-40 1.45529e-40 1.07681e-40)
(9.5199e-38 2.33636e-38 1.72237e-38)
(1.48639e-35 3.6615e-36 2.68949e-36)
(2.25448e-33 5.57389e-34 4.07963e-34)
(3.1872e-54 1.26637e-54 7.22166e-55)
(5.61685e-52 2.22707e-52 1.29218e-52)
(9.78388e-50 3.87055e-50 2.28641e-50)
(1.6829e-47 6.64151e-48 3.99692e-48)
(2.85544e-45 1.12395e-45 6.89563e-46)
(4.77334e-43 1.87357e-43 1.17264e-43)
(7.85008e-41 3.07185e-41 1.96276e-41)
(1.26776e-38 4.94471e-39 3.22779e-39)
(2.00565e-36 7.79535e-37 5.20324e-37)
(3.09704e-34 1.19931e-34 8.19515e-35)
(1.60343e-53 1.14127e-53 3.99598e-55)
(2.84142e-51 2.02256e-51 7.07767e-53)
(4.97155e-49 3.53902e-49 1.2378e-50)
(8.5787e-47 6.10715e-47 2.13505e-48)
(1.45799e-44 1.038e-44 3.62746e-46)
(2.4368e-42 1.73494e-42 6.06134e-44)
(3.99768e-40 2.84639e-40 9.94276e-42)
(6.42233e-38 4.573e-38 1.59735e-39)
(1.00707e-35 7.17119e-36 2.50521e-37)
(1.53371e-33 1.09221e-33 3.81679e-35)
(4.79469e-55 3.41343e-55 1.17051e-56)
(8.2348e-53 5.86259e-53 2.01024e-54)
(1.39493e-50 9.93099e-51 3.40523e-52)
(2.32791e-48 1.65734e-48 5.68306e-50)
(3.82248e-46 2.72138e-46 9.33269e-48)
(6.16672e-44 4.39034e-44 1.50589e-45)
(9.75731e-42 6.94657e-42 2.38332e-43)
(1.51063e-39 1.07546e-39 3.69123e-41)
(2.28025e-37 1.62336e-37 5.57457e-39)
(3.33403e-35 2.37359e-35 8.15622e-37)
(7.10964e-56 1.70361e-56 1.28001e-56)
(1.21563e-53 2.9235e-54 2.18911e-54)
(2.05008e-51 4.94819e-52 3.69266e-52)
(3.40621e-49 8.25113e-50 6.13683e-50)
(5.56876e-47 1.3538e-47 1.00355e-47)
(8.94561e-45 2.18245e-45 1.6125e-45)
(1.40954e-42 3.45081e-43 2.54145e-43)
(2.1735e-40 5.33927e-41 3.91998e-41)
(3.26827e-38 8.05527e-39 5.89616e-39)
(4.76134e-36 1.17732e-36 8.5923e-37)
(1.0503e-56 4.14565e-57 2.538e-57)
(1.8024e-54 7.0977e-55 4.41731e-55)
(3.05499e-52 1.20005e-52 7.59667e-53)
(5.1097e-50 2.00194e-50 1.28973e-50)
(8.42523e-48 3.2918e-48 2.15947e-48)
(1.36798e-45 5.3291e-46 3.5618e-46)
(2.18426e-43 8.48249e-44 5.77919e-44)
(3.42358e-41 1.32515e-41 9.20782e-42)
(5.25326e-39 2.02629e-39 1.4368e-39)
(7.85338e-37 3.0184e-37 2.18609e-37)
(4.68626e-56 3.33366e-56 1.17525e-57)
(8.04663e-54 5.72447e-54 2.01753e-55)
(1.36271e-51 9.69505e-52 3.41623e-53)
(2.27356e-49 1.61762e-49 5.69938e-51)
(3.73222e-47 2.65557e-47 9.35658e-49)
(6.0194e-45 4.28313e-45 1.50936e-46)
(9.52132e-43 6.77519e-43 2.38839e-44)
(1.47362e-40 1.04863e-40 3.69874e-42)
(2.22359e-38 1.58238e-38 5.586e-40)
(3.2499e-36 2.31286e-36 8.17395e-38)
(1.4103e-57 1.00368e-57 3.44614e-59)
(2.35195e-55 1.67386e-55 5.74825e-57)
(3.8644e-53 2.75028e-53 9.44715e-55)
(6.24864e-51 4.44716e-51 1.52809e-52)
(9.93151e-49 7.06825e-49 2.42975e-50)
(1.54952e-46 1.10278e-46 3.79293e-48)
(2.3695e-44 1.68633e-44 5.80396e-46)
(3.54374e-42 2.52196e-42 8.68742e-44)
(5.16366e-40 3.67472e-40 1.26718e-41)
(7.26953e-38 5.17335e-38 1.78627e-39)
)
;

boundaryField
{
    inlet
    {
        type            calculated;
        value           nonuniform 0();
    }
    outlet
    {
        type            calculated;
        value           nonuniform 0();
    }
    bottom
    {
        type            calculated;
        value           uniform (0 0 0);
    }
    top
    {
        type            symmetryPlane;
    }
    side1
    {
        type            symmetryPlane;
    }
    side2
    {
        type            symmetryPlane;
    }
    procBoundary1to0
    {
        type            processor;
        value           nonuniform List<vector> 
20
(
(4.62358e-49 1.07252e-49 8.32918e-50)
(3.30133e-50 1.36019e-50 3.16301e-51)
(2.82261e-49 2.0125e-49 6.75437e-51)
(9.14883e-51 6.51912e-51 2.18679e-52)
(5.63696e-51 1.32303e-51 1.01686e-51)
(5.17074e-52 2.1014e-52 8.3588e-53)
(3.5395e-51 2.52182e-51 8.60207e-53)
(1.09341e-52 7.78801e-53 2.63389e-54)
(3.32145e-53 7.85559e-54 5.99872e-54)
(3.71316e-54 1.49171e-54 7.43869e-55)
(2.12577e-53 1.5136e-53 5.23618e-55)
(6.45544e-55 4.5963e-55 1.56592e-56)
(1.29135e-55 3.07059e-56 2.33473e-56)
(1.68637e-56 6.71687e-57 3.78986e-57)
(8.38218e-56 5.96475e-56 2.08988e-57)
(2.53492e-57 1.80424e-57 6.18896e-59)
(3.77742e-58 9.01533e-59 6.79909e-59)
(5.59707e-59 2.21457e-59 1.3422e-59)
(2.47807e-58 1.76239e-58 6.21443e-60)
(7.52478e-60 5.35397e-60 1.83813e-61)
)
;
    }
    procBoundary1to2
    {
        type            processor;
        value           nonuniform List<vector> 
20
(
(4.52173e-24 1.11571e-24 8.1607e-25)
(2.09722e-25 8.74059e-26 1.93054e-26)
(3.02514e-24 2.15844e-24 7.21359e-26)
(5.80587e-26 4.13821e-26 1.38735e-27)
(3.32657e-26 8.2336e-27 6.00912e-27)
(2.6391e-27 1.04872e-27 5.35522e-28)
(2.24637e-26 1.60194e-26 5.43481e-28)
(4.46375e-28 3.18056e-28 1.0751e-29)
(1.27407e-28 3.15953e-29 2.30358e-29)
(1.40453e-29 5.47706e-30 3.46011e-30)
(8.66388e-29 6.17471e-29 2.1264e-30)
(1.76455e-30 1.25684e-30 4.28448e-32)
(3.34786e-31 8.30709e-32 6.0586e-32)
(4.69862e-32 1.81257e-32 1.26737e-32)
(2.28631e-31 1.6284e-31 5.69391e-33)
(4.78824e-33 3.40918e-33 1.17248e-34)
(6.81541e-34 1.69053e-34 1.23027e-34)
(1.15915e-34 4.4392e-35 3.28248e-35)
(4.66547e-34 3.32068e-34 1.17554e-35)
(1.0084e-35 7.17674e-36 2.48222e-37)
)
;
    }
    procBoundary1to9
    {
        type            processor;
        value           nonuniform List<vector> 
50
(
(2.68286e-50 1.91031e-50 6.4208e-52)
(4.91605e-48 3.50037e-48 1.17658e-49)
(8.90446e-46 6.3401e-46 2.13124e-47)
(1.59258e-43 1.13391e-43 3.81196e-45)
(2.80899e-41 1.99994e-41 6.72398e-43)
(4.87884e-39 3.47352e-39 1.16796e-40)
(8.33006e-37 5.93044e-37 1.99435e-38)
(1.3952e-34 9.93251e-35 3.34071e-36)
(2.28641e-32 1.62765e-32 5.47541e-34)
(3.65379e-30 2.60096e-30 8.75142e-32)
(3.0346e-52 2.16022e-52 7.29978e-54)
(5.37087e-50 3.82327e-50 1.29201e-51)
(9.38561e-48 6.68105e-48 2.25791e-49)
(1.61766e-45 1.15149e-45 3.89191e-47)
(2.74659e-43 1.95503e-43 6.6086e-45)
(4.58763e-41 3.26539e-41 1.10397e-42)
(7.52651e-39 5.35703e-39 1.81146e-40)
(1.21061e-36 8.61623e-37 2.91424e-38)
(1.90461e-34 1.35549e-34 4.58593e-36)
(2.92112e-32 2.07885e-32 7.03556e-34)
(1.72643e-54 1.22867e-54 4.17291e-56)
(2.95921e-52 2.10601e-52 7.15306e-54)
(5.00231e-50 3.55997e-50 1.20927e-51)
(8.33041e-48 5.92834e-48 2.01406e-49)
(1.36508e-45 9.71434e-46 3.3009e-47)
(2.19842e-43 1.5644e-43 5.31707e-45)
(3.47484e-41 2.4726e-41 8.40641e-43)
(5.38224e-39 3.82966e-39 1.30251e-40)
(8.15265e-37 5.80059e-37 1.97376e-38)
(1.20343e-34 8.56196e-35 2.91499e-36)
(6.60342e-57 4.69838e-57 1.60346e-58)
(1.09902e-54 7.81951e-55 2.66895e-56)
(1.80179e-52 1.28196e-52 4.3763e-54)
(2.90667e-50 2.06802e-50 7.06127e-52)
(4.60875e-48 3.27891e-48 1.11991e-49)
(7.17433e-46 5.104e-46 1.74389e-47)
(1.09525e-43 7.79148e-44 2.66336e-45)
(1.63784e-41 1.16507e-41 3.98482e-43)
(2.39506e-39 1.7036e-39 5.83083e-41)
(3.41187e-37 2.4267e-37 8.31288e-39)
(1.92306e-59 1.36793e-59 4.66468e-61)
(3.11492e-57 2.21571e-57 7.55827e-59)
(4.96457e-55 3.53135e-55 1.20511e-56)
(7.77677e-53 5.53157e-53 1.8886e-54)
(1.19593e-50 8.50628e-51 2.90586e-52)
(1.80363e-48 1.28282e-48 4.38524e-50)
(2.66538e-46 1.89562e-46 6.48532e-48)
(3.85668e-44 2.74268e-44 9.39255e-46)
(5.45716e-42 3.88054e-42 1.33052e-43)
(7.51939e-40 5.34655e-40 1.83584e-41)
)
;
    }
}


// ************************************************************************* //
