/*--------------------------------*- C++ -*----------------------------------*\
| =========                 |                                                 |
| \\      /  F ield         | OpenFOAM: The Open Source CFD Toolbox           |
|  \\    /   O peration     | Version:  2.4.0                                 |
|   \\  /    A nd           | Web:      www.OpenFOAM.org                      |
|    \\/     M anipulation  |                                                 |
\*---------------------------------------------------------------------------*/
FoamFile
{
    version     2.0;
    format      ascii;
    class       volVectorField;
    location    "0.06";
    object      gradp;
}
// * * * * * * * * * * * * * * * * * * * * * * * * * * * * * * * * * * * * * //

dimensions      [1 -2 -2 0 0 0 0];

internalField   nonuniform List<vector> 
200
(
(9.69838e+12 -1.24373e+13 -3.1959e+12)
(7.62868e+12 -1.41541e+13 -6.35099e+12)
(7.08856e+12 -1.51287e+13 -7.19673e+12)
(2.29275e+13 -3.39347e+13 -3.99809e+12)
(2.59155e+13 -5.48178e+13 -3.69805e+12)
(9.71038e+12 -7.20575e+13 9.09064e+12)
(6.99744e+12 -9.20603e+13 5.60104e+12)
(1.45793e+13 -1.18408e+14 2.99667e+13)
(4.76177e+13 -1.38027e+14 1.66054e+13)
(5.43954e+13 -1.49393e+14 -2.62906e+12)
(-6.57169e+11 -2.75105e+13 -8.37467e+12)
(-9.52734e+12 -3.52875e+13 -1.09891e+13)
(-1.68298e+13 -4.03288e+13 -1.12294e+13)
(-1.90505e+13 -4.93021e+13 -1.53707e+13)
(-6.56823e+12 -6.35724e+13 -2.1314e+13)
(-1.50092e+13 -8.0603e+13 -2.85474e+13)
(-2.49621e+13 -8.51204e+13 -4.56113e+13)
(5.88207e+10 -9.38185e+13 -2.15095e+13)
(2.69691e+13 -9.30836e+13 -3.25642e+13)
(2.76323e+13 -1.21541e+14 -2.78496e+13)
(-3.12189e+13 -3.07912e+13 -1.06637e+13)
(-1.8008e+13 -3.98757e+13 -1.0991e+13)
(-2.09406e+13 -4.18148e+13 -1.68874e+13)
(-2.35597e+13 -4.68301e+13 -2.11311e+13)
(-3.66864e+13 -5.63545e+13 -3.60416e+13)
(-3.33857e+13 -8.35863e+13 -8.54919e+13)
(-1.94336e+13 -9.00202e+13 -4.07522e+13)
(-1.34701e+12 -6.87681e+13 -7.77515e+13)
(-7.82723e+12 -8.32397e+13 -5.41747e+13)
(-2.86829e+13 -1.15904e+14 -3.35256e+13)
(-4.45057e+13 -1.25763e+13 -1.03804e+13)
(-3.15746e+13 -8.89951e+12 -1.63267e+13)
(-3.07386e+13 -1.07086e+13 -1.3889e+13)
(-4.81298e+13 -1.56171e+13 -1.37093e+13)
(-8.00807e+13 -3.42705e+13 -3.00414e+13)
(-8.23406e+13 -4.82799e+13 -1.85905e+13)
(4.67422e+12 -7.24575e+13 -5.33199e+13)
(1.36199e+13 -1.02859e+14 -5.92929e+13)
(-6.73028e+13 -1.33463e+14 -5.1949e+13)
(-9.24082e+13 -1.58179e+14 -4.33073e+13)
(-2.3173e+12 -2.24988e+13 -6.60972e+12)
(-5.17397e+12 -3.22425e+13 -9.05971e+12)
(1.46178e+13 -3.86072e+13 -1.03332e+13)
(3.41233e+13 -5.57586e+13 -1.29706e+13)
(6.77994e+13 -1.01294e+14 -1.61085e+13)
(3.94674e+13 -1.31022e+14 -1.36315e+13)
(7.3801e+13 -2.09128e+14 -1.11235e+13)
(4.97933e+13 -1.76319e+14 -2.13627e+13)
(-5.66889e+13 -2.11405e+14 -4.00308e+13)
(-5.03865e+13 -1.76543e+14 -3.58308e+13)
(-2.29286e+13 -3.94589e+13 -7.26709e+12)
(-1.86626e+13 -4.27114e+13 -9.55778e+12)
(-3.08508e+13 -5.58339e+13 -1.05715e+13)
(-5.13209e+13 -7.67149e+13 -1.1812e+13)
(-4.87337e+13 -1.15322e+14 -1.46637e+13)
(-9.27608e+13 -2.31935e+14 -2.33524e+13)
(-2.44072e+12 -1.59286e+14 -2.1536e+13)
(4.18096e+13 -2.66168e+14 -3.72993e+13)
(6.68075e+12 -2.06332e+14 -2.97708e+13)
(6.9227e+13 -1.70975e+14 -5.13833e+13)
(-4.19508e+13 -3.40004e+13 -2.1227e+12)
(-3.7924e+13 -4.84157e+13 -4.73829e+12)
(-5.33891e+13 -4.60701e+13 -8.62564e+12)
(-8.48531e+13 -4.41718e+13 -1.39363e+13)
(-2.42641e+14 -7.03184e+13 -1.80756e+13)
(-4.84597e+13 -6.76553e+13 -1.75825e+13)
(5.33547e+12 -1.02354e+14 -4.36096e+13)
(-4.42989e+13 -1.29222e+14 -2.63725e+13)
(1.33696e+14 -1.14255e+14 -3.78282e+13)
(7.73444e+13 -1.40636e+14 -2.92915e+13)
(-5.27974e+13 -5.07513e+13 -2.19521e+12)
(-4.2802e+13 -3.26749e+13 -4.34236e+12)
(-2.23629e+13 -1.7483e+13 -9.82133e+12)
(-9.98175e+13 -2.4479e+13 -8.13209e+12)
(-9.57006e+13 -1.64404e+13 -1.85191e+12)
(-1.56832e+14 2.35211e+13 6.53132e+12)
(-1.25573e+14 -1.19421e+14 1.47522e+13)
(1.80068e+13 -6.90407e+13 -3.13783e+13)
(-1.61491e+13 -1.44002e+14 -3.6924e+13)
(3.38225e+13 -1.56692e+14 -2.36028e+13)
(-7.83128e+12 -2.01585e+13 -4.13882e+12)
(-4.28657e+12 -2.23188e+13 -4.2362e+12)
(-5.42627e+12 -3.02817e+13 -5.62185e+12)
(4.44665e+12 -3.95804e+13 -1.22155e+13)
(2.38005e+13 -5.4993e+13 -2.055e+13)
(2.56623e+13 -8.58801e+13 -3.88833e+13)
(-1.77421e+13 -1.04004e+14 -4.3624e+13)
(-7.79241e+13 -1.47419e+14 -7.88297e+13)
(1.31953e+12 -1.42395e+14 -6.88315e+13)
(8.26338e+13 -1.98459e+14 -5.37913e+13)
(-1.56824e+13 -2.03312e+13 1.54012e+12)
(-2.01015e+13 -2.83732e+13 1.86095e+12)
(-2.40432e+13 -3.75966e+13 1.5109e+12)
(-3.21453e+13 -5.08472e+13 4.98338e+12)
(-4.34977e+13 -6.67198e+13 8.78573e+12)
(-3.70008e+13 -8.69245e+13 6.62878e+12)
(-6.95923e+13 -1.37098e+14 1.83397e+13)
(-2.62924e+13 -1.01834e+14 -1.42899e+13)
(-1.80994e+13 -8.95593e+13 -2.3293e+13)
(4.42657e+13 -1.11078e+14 -2.92072e+13)
(-3.33781e+13 -2.26762e+13 1.07766e+13)
(-3.88174e+13 -3.1531e+13 1.02334e+13)
(-5.03742e+13 -4.06145e+13 1.39591e+13)
(-5.37996e+13 -4.09423e+13 1.52031e+13)
(-4.83542e+13 -3.58557e+13 2.48016e+13)
(-1.15095e+14 -3.57723e+13 7.26321e+13)
(-4.75616e+13 -3.1959e+13 2.07251e+13)
(1.71537e+13 -5.92944e+13 5.11865e+13)
(-1.71683e+13 -9.46848e+13 1.87055e+13)
(2.95893e+12 -7.14553e+13 -3.3994e+12)
(-5.30425e+13 -2.6154e+13 1.2367e+13)
(-5.59782e+13 -3.06138e+13 2.00242e+13)
(-4.28658e+13 -2.31287e+13 1.5239e+13)
(-2.26277e+13 -1.15033e+13 1.38021e+13)
(-3.31577e+13 -1.31981e+13 3.00215e+13)
(-2.92073e+13 -1.36675e+13 2.76998e+13)
(-1.16636e+14 -1.35986e+12 6.41281e+13)
(-1.51744e+14 -8.61841e+13 4.70819e+13)
(-4.24212e+13 -9.42903e+13 2.91919e+13)
(-3.86257e+13 -1.1909e+14 2.61397e+13)
(-9.02293e+12 -1.64254e+13 -1.25078e+12)
(-9.91965e+12 -2.00381e+13 -2.08985e+12)
(-1.09159e+13 -2.35021e+13 -3.15473e+12)
(-1.36469e+13 -2.78736e+13 -3.93578e+12)
(-1.75375e+13 -3.42866e+13 -9.23577e+12)
(-3.43693e+13 -4.52937e+13 -1.82108e+13)
(-5.40275e+13 -6.614e+13 -2.58321e+13)
(-3.08707e+13 -8.6088e+13 -2.33229e+13)
(2.3434e+13 -1.33198e+14 -1.2727e+13)
(-5.43445e+13 -9.56855e+13 -3.57562e+13)
(-1.53991e+13 -1.55942e+13 3.36391e+11)
(-1.87561e+13 -1.956e+13 8.44524e+11)
(-2.0859e+13 -2.45044e+13 1.53162e+12)
(-2.80414e+13 -3.28452e+13 2.11874e+12)
(-4.34684e+13 -4.27594e+13 3.44709e+12)
(-6.21879e+13 -5.35104e+13 6.13893e+12)
(-6.93805e+13 -5.63271e+13 4.55439e+12)
(-9.1415e+13 -5.81419e+13 1.66225e+13)
(-4.10548e+13 -6.62725e+13 8.13689e+11)
(2.97018e+13 -9.03484e+13 1.08588e+13)
(-2.23376e+13 -1.66773e+13 2.24986e+12)
(-2.77402e+13 -1.93545e+13 4.40234e+12)
(-3.74863e+13 -2.41051e+13 6.56907e+12)
(-5.01569e+13 -3.00619e+13 1.09586e+13)
(-5.88679e+13 -3.63412e+13 1.24799e+13)
(-6.15045e+13 -3.39415e+13 1.31744e+13)
(-6.32905e+13 -2.90926e+13 3.44608e+13)
(-5.07616e+13 -3.10267e+13 1.49805e+13)
(-4.0979e+13 -3.02796e+13 1.64891e+13)
(-2.48805e+13 -5.20813e+13 9.14766e+12)
(-2.83828e+13 -1.59138e+13 4.03442e+12)
(-3.36117e+13 -2.39532e+13 8.19997e+12)
(-4.22737e+13 -2.82703e+13 1.21864e+13)
(-5.25137e+13 -2.59394e+13 1.01774e+13)
(-5.12278e+13 -1.86185e+13 4.59766e+12)
(-4.76907e+13 -4.69937e+12 2.74244e+12)
(-6.35507e+13 -9.89487e+12 -8.02108e+12)
(-9.37891e+13 -2.93984e+13 2.59132e+13)
(-8.31639e+13 -6.73445e+13 3.09139e+13)
(-4.7364e+13 -8.73174e+13 2.10218e+13)
(-1.01105e+13 -1.48089e+13 -5.25788e+11)
(-1.03792e+13 -1.8328e+13 -5.62369e+11)
(-1.13333e+13 -2.11485e+13 -6.69402e+11)
(-1.50127e+13 -2.59639e+13 -6.92793e+11)
(-2.18796e+13 -3.11181e+13 -1.0962e+12)
(-2.74459e+13 -3.50976e+13 -2.04969e+12)
(-3.41008e+13 -3.50641e+13 1.06737e+12)
(-3.59878e+13 -4.15314e+13 4.1774e+12)
(-3.84671e+13 -4.22267e+13 -5.31716e+11)
(-3.93532e+13 -4.45212e+13 -1.51667e+13)
(-1.45989e+13 -1.47302e+13 -9.61559e+10)
(-1.62768e+13 -1.79857e+13 4.14941e+11)
(-1.99657e+13 -2.20386e+13 6.78628e+11)
(-2.60158e+13 -2.70162e+13 6.94117e+11)
(-3.06331e+13 -3.19747e+13 1.31165e+12)
(-3.34575e+13 -3.67081e+13 4.70516e+12)
(-3.60449e+13 -4.06296e+13 1.02899e+13)
(-3.82626e+13 -4.05488e+13 1.51225e+13)
(-3.65431e+13 -4.28136e+13 2.69e+13)
(-2.99964e+13 -3.92319e+13 1.65324e+13)
(-2.11803e+13 -1.67593e+13 1.41801e+10)
(-2.49959e+13 -1.97623e+13 4.21563e+11)
(-2.93943e+13 -2.35668e+13 8.71768e+11)
(-3.4885e+13 -2.80485e+13 2.95032e+12)
(-4.12634e+13 -3.40148e+13 5.64424e+12)
(-4.47557e+13 -4.12067e+13 8.45173e+12)
(-4.17822e+13 -5.20797e+13 1.08783e+13)
(-4.03556e+13 -4.44293e+13 1.51731e+13)
(-3.58333e+13 -4.65246e+13 1.41301e+13)
(-2.81115e+13 -5.51946e+13 1.67811e+13)
(-2.83659e+13 -1.50189e+13 -1.47423e+11)
(-2.98918e+13 -1.79441e+13 1.601e+11)
(-3.65381e+13 -2.08094e+13 1.01506e+12)
(-4.69118e+13 -2.4127e+13 1.95248e+12)
(-5.69495e+13 -3.30477e+13 2.76565e+12)
(-6.95873e+13 -3.67377e+13 1.64446e+11)
(-4.24901e+13 -1.70947e+13 -4.07705e+12)
(-2.71524e+13 -2.57757e+13 6.7459e+12)
(-5.80737e+13 -6.03582e+13 1.67469e+13)
(-5.99607e+13 -7.01254e+13 1.45866e+13)
)
;

boundaryField
{
    inlet
    {
        type            zeroGradient;
    }
    outlet
    {
        type            zeroGradient;
    }
    bottom
    {
        type            zeroGradient;
    }
    top
    {
        type            symmetryPlane;
    }
    side1
    {
        type            symmetryPlane;
    }
    side2
    {
        type            symmetryPlane;
    }
    procBoundary14to6
    {
        type            processor;
        value           nonuniform List<vector> 
50
(
(6.29538e+12 -6.61615e+12 -2.08627e+12)
(-4.14458e+12 -6.48469e+12 3.16099e+11)
(2.27314e+13 -6.55262e+12 3.44464e+12)
(6.03277e+13 -1.14188e+13 -1.73076e+12)
(6.96775e+13 -3.64052e+13 7.73372e+12)
(5.94759e+13 -4.68904e+13 8.30538e+12)
(6.77391e+13 -7.75596e+13 2.75559e+13)
(9.19923e+13 -9.45614e+13 1.46846e+13)
(8.89384e+13 -1.12281e+14 1.32973e+13)
(7.92842e+13 -1.04842e+14 -1.08809e+13)
(8.14759e+12 -1.53365e+13 -2.44138e+12)
(1.35543e+13 -1.98483e+13 -4.45485e+12)
(1.61814e+13 -3.39105e+13 -1.1009e+12)
(7.40527e+13 -3.70153e+13 -8.2834e+12)
(1.01793e+14 -4.48215e+13 -1.45541e+13)
(1.22907e+14 -5.34801e+13 -1.47133e+13)
(8.81525e+13 -7.25776e+13 -1.40711e+13)
(4.63648e+13 -5.1519e+13 -1.91674e+13)
(7.12877e+12 -8.14373e+13 -2.70409e+13)
(-2.54004e+12 -1.20113e+14 -2.07169e+13)
(-6.67511e+12 -1.84875e+13 -2.25572e+12)
(1.4495e+11 -2.20349e+13 -5.76677e+12)
(1.048e+13 -2.60719e+13 -7.92979e+12)
(1.72774e+13 -3.71959e+13 -1.24447e+13)
(4.91019e+13 -4.14948e+13 -3.30939e+13)
(6.10215e+13 -5.01215e+13 -4.69514e+13)
(5.3486e+13 -6.50083e+13 -7.10276e+13)
(5.0489e+13 -9.79772e+13 -7.06841e+13)
(8.39798e+13 -1.50162e+14 -7.21726e+13)
(-1.53722e+13 -1.07802e+14 -7.9743e+13)
(-4.17272e+12 -1.43606e+13 -3.00706e+12)
(-4.60268e+12 -1.49248e+13 -1.64973e+12)
(-5.18803e+12 -1.61927e+13 -4.17661e+12)
(-6.47252e+12 -2.09721e+13 -6.39156e+12)
(-8.62825e+12 -2.64627e+13 -1.14747e+13)
(1.51887e+12 -3.51211e+13 -2.56002e+13)
(1.22081e+13 -5.03577e+13 -3.85332e+13)
(4.2701e+13 -7.39992e+13 -4.95574e+13)
(-2.18599e+13 -7.9434e+13 -6.17915e+13)
(-8.43693e+13 -6.40563e+13 -8.53522e+13)
(-2.6801e+12 -1.25425e+13 -1.10645e+12)
(-3.59763e+12 -1.59972e+13 -6.539e+11)
(-4.69388e+12 -1.96449e+13 -7.92371e+11)
(-6.07664e+12 -2.1738e+13 -4.99478e+11)
(-1.23657e+13 -2.68424e+13 -6.68659e+11)
(-2.55654e+13 -2.72951e+13 -1.66743e+12)
(-2.31772e+13 -3.38872e+13 -9.1325e+12)
(-2.39375e+13 -4.01962e+13 -1.27253e+13)
(-3.05635e+13 -5.45846e+13 -2.9957e+13)
(-8.90191e+13 -6.09719e+13 -1.54452e+13)
)
;
    }
    procBoundary14to13
    {
        type            processor;
        value           nonuniform List<vector> 
20
(
(8.23153e+12 -1.06778e+13 -2.59608e+12)
(2.94407e+12 -1.48288e+13 -4.02932e+12)
(-2.92093e+13 -1.79514e+13 -7.63725e+12)
(-4.30671e+13 -2.57541e+13 -1.37355e+13)
(2.3541e+12 -1.67044e+13 -3.58169e+12)
(-1.843e+13 -2.28947e+13 -4.86238e+12)
(-5.83688e+13 -3.34813e+13 -4.06354e+12)
(-5.26311e+13 -3.65832e+13 -1.67461e+12)
(-7.738e+12 -1.78151e+13 -2.14069e+12)
(-1.46049e+13 -1.55998e+13 -4.92035e+11)
(-1.98301e+13 -1.2851e+13 4.10433e+12)
(-3.97869e+13 -1.42721e+13 1.23946e+13)
(-5.62562e+12 -1.44249e+13 -1.37759e+12)
(-1.00007e+13 -1.29027e+13 5.05923e+11)
(-1.54736e+13 -1.28626e+13 5.90523e+11)
(-2.27387e+13 -1.23797e+13 4.88544e+11)
(-8.42348e+12 -1.23686e+13 -2.22501e+11)
(-1.15966e+13 -1.24508e+13 1.64897e+11)
(-1.6441e+13 -1.28788e+13 5.99012e+10)
(-2.66774e+13 -1.20629e+13 1.54814e+11)
)
;
    }
    procBoundary14to15
    {
        type            processor;
        value           nonuniform List<vector> 
20
(
(3.98595e+13 -1.63853e+14 -1.61389e+13)
(4.80013e+13 -1.34623e+14 -1.95659e+13)
(-3.80865e+13 -1.4326e+14 -2.10412e+13)
(-3.88564e+13 -1.48293e+14 -1.25019e+13)
(-4.98803e+13 -1.75522e+14 -3.12063e+13)
(5.92452e+13 -1.42466e+14 -2.45729e+13)
(6.394e+13 -1.31958e+14 -2.79401e+13)
(-1.90068e+13 -2.57319e+14 -2.0117e+13)
(-1.33274e+13 -1.12576e+14 -7.00684e+13)
(9.04099e+13 -1.29397e+14 -3.56446e+13)
(-2.29263e+13 -1.36131e+14 -1.32398e+13)
(3.12704e+13 -9.50301e+13 3.82107e+12)
(-9.37883e+13 -7.61625e+13 -5.08479e+13)
(2.38947e+12 -5.15405e+13 -2.23932e+13)
(-2.95707e+13 -6.88125e+13 6.7796e+12)
(-4.23367e+13 -9.32932e+13 2.42467e+13)
(-7.74155e+13 -1.27153e+13 4.15304e+12)
(-2.0383e+13 -3.71927e+13 8.24434e+12)
(-1.97063e+13 -6.15067e+13 1.31204e+13)
(-5.27813e+13 -6.87534e+13 1.28105e+13)
)
;
    }
    procBoundary14to22
    {
        type            processor;
        value           nonuniform List<vector> 
50
(
(2.49024e+12 9.39604e+11 -3.4523e+13)
(-1.42725e+13 3.97756e+13 -2.58506e+13)
(-3.43758e+13 5.64545e+13 -2.11214e+13)
(-7.06834e+13 6.91034e+13 -2.66698e+13)
(-1.02012e+14 9.45022e+13 -2.48978e+13)
(-1.0976e+14 1.02535e+13 -4.06162e+13)
(-1.28591e+14 -8.53584e+13 -7.01043e+13)
(-1.23358e+14 -1.05313e+14 -5.66152e+13)
(-1.18467e+14 -1.73407e+14 -6.07615e+13)
(-5.83433e+13 -1.57186e+14 -3.25967e+13)
(-3.41342e+13 -2.31623e+13 -1.06087e+13)
(2.86126e+13 3.3245e+12 -1.83097e+13)
(-3.69973e+13 -1.07467e+13 -1.63882e+13)
(-8.27677e+13 -1.16179e+13 -1.13652e+13)
(-1.46641e+14 5.30072e+12 -4.90539e+12)
(-2.54421e+14 -5.7256e+13 4.05029e+12)
(-1.79788e+14 -8.92129e+13 8.26414e+11)
(-9.34607e+13 -1.64827e+14 -1.59507e+13)
(-4.16076e+13 -1.64996e+14 -1.33452e+13)
(-1.4929e+14 -2.15115e+14 -4.86112e+12)
(-6.60614e+13 -1.46661e+13 3.25501e+13)
(-3.27667e+13 -1.05434e+13 1.56845e+13)
(-1.21533e+13 -5.76512e+12 7.21705e+12)
(-3.39385e+13 -2.4511e+13 1.42904e+13)
(-5.26826e+13 -4.7237e+13 2.34403e+13)
(-9.1418e+13 -6.41065e+13 5.49943e+13)
(-1.92595e+14 -1.27349e+14 8.91789e+13)
(-1.68707e+14 -1.11148e+14 7.59629e+13)
(-8.298e+13 -1.15531e+14 6.66163e+13)
(1.47925e+12 -1.28582e+14 3.996e+13)
(-4.54845e+13 -1.76011e+13 9.20927e+12)
(-5.24532e+13 -2.61588e+13 1.23209e+13)
(-4.14586e+13 -2.91311e+13 8.01861e+12)
(-3.08534e+13 -2.95705e+13 3.06878e+12)
(-1.63879e+13 -2.80804e+13 7.38954e+10)
(-4.40573e+13 -3.57486e+13 -1.24446e+12)
(-1.12689e+14 -5.78041e+13 2.46265e+13)
(-1.65661e+14 -1.16417e+14 5.27357e+13)
(-1.56817e+14 -1.32352e+14 3.76967e+13)
(-7.67779e+13 -1.22846e+14 3.97505e+13)
(-3.29426e+13 -6.63779e+12 5.73452e+11)
(-3.65768e+13 -1.21684e+13 4.17726e+12)
(-4.176e+13 -1.48752e+13 5.53482e+12)
(-5.93616e+13 -1.81307e+13 4.08307e+12)
(-6.6485e+13 -1.23183e+13 -3.37401e+12)
(-1.28496e+13 -1.34887e+12 -1.15723e+13)
(-1.98582e+13 2.2288e+13 6.37839e+12)
(-1.26883e+14 -1.56638e+13 1.74372e+13)
(-1.24533e+14 -5.51296e+13 1.84966e+13)
(-4.49019e+13 -6.4989e+13 2.75261e+13)
)
;
    }
}


// ************************************************************************* //
