/*--------------------------------*- C++ -*----------------------------------*\
| =========                 |                                                 |
| \\      /  F ield         | OpenFOAM: The Open Source CFD Toolbox           |
|  \\    /   O peration     | Version:  2.4.0                                 |
|   \\  /    A nd           | Web:      www.OpenFOAM.org                      |
|    \\/     M anipulation  |                                                 |
\*---------------------------------------------------------------------------*/
FoamFile
{
    version     2.0;
    format      ascii;
    class       volVectorField;
    location    "0.01";
    object      A_Source;
}
// * * * * * * * * * * * * * * * * * * * * * * * * * * * * * * * * * * * * * //

dimensions      [1 -2 -2 0 0 0 0];

internalField   nonuniform List<vector> 
54
(
(-3.88209e-76 -4.90897e-76 7.57273e-76)
(-2.37562e-74 -3.01113e-74 4.63408e-74)
(-1.31132e-76 -1.66176e-76 2.55797e-76)
(-9.94592e-79 -1.25927e-78 1.94013e-78)
(-3.95358e-71 -5.01706e-71 7.71219e-71)
(-1.72729e-73 -2.19186e-73 3.3694e-73)
(-7.61059e-76 -9.65717e-76 1.48458e-75)
(-3.38753e-78 -4.29824e-78 6.608e-78)
(-1.55456e-80 -1.9722e-80 3.03245e-80)
(-5.54982e-74 -7.04409e-74 1.08259e-73)
(-4.2158e-76 -5.3504e-76 8.2237e-76)
(-2.61266e-78 -3.31564e-78 5.09648e-78)
(-1.47766e-80 -1.87518e-80 2.88245e-80)
(-7.97632e-83 -1.01215e-82 1.55593e-82)
(-8.96993e-70 -1.13623e-69 1.74975e-69)
(-4.95126e-72 -6.27026e-72 9.65835e-72)
(-2.74218e-74 -3.47181e-74 5.34912e-74)
(-1.51828e-76 -1.92178e-76 2.96169e-76)
(-9.45081e-79 -1.19577e-78 1.84355e-78)
(-5.15457e-72 -6.53522e-72 1.00549e-71)
(-2.8736e-74 -3.64253e-74 5.60549e-74)
(-1.5992e-76 -2.02667e-76 3.11952e-76)
(-8.8871e-79 -1.12602e-78 1.73359e-78)
(-5.15578e-81 -6.53036e-81 1.00573e-80)
(-4.16173e-74 -5.2806e-74 8.11821e-74)
(-2.77439e-76 -3.51999e-76 5.41196e-76)
(-1.65518e-78 -2.09981e-78 3.22874e-78)
(-9.32992e-81 -1.1835e-80 1.81997e-80)
(-5.12777e-83 -6.50366e-83 1.00027e-82)
(-1.6049e-76 -2.03733e-76 3.13065e-76)
(-1.14459e-78 -1.45273e-78 2.23273e-78)
(-7.66136e-81 -9.72274e-81 1.49449e-80)
(-4.83242e-83 -6.13206e-83 9.42651e-83)
(-2.91283e-85 -3.69587e-85 5.682e-85)
(-4.4765e-72 -5.66918e-72 8.66196e-72)
(-2.50629e-74 -3.17326e-74 4.84886e-74)
(-1.40839e-76 -1.78273e-76 2.72435e-76)
(-7.92417e-79 -1.00278e-78 1.53259e-78)
(-4.49905e-81 -5.69185e-81 8.7008e-81)
(-2.65005e-74 -3.35915e-74 5.12696e-74)
(-1.50115e-76 -1.90244e-76 2.90373e-76)
(-8.4797e-79 -1.07442e-78 1.63999e-78)
(-4.78066e-81 -6.05601e-81 9.24442e-81)
(-2.70454e-83 -3.42523e-83 5.2292e-83)
(-1.46758e-76 -1.86168e-76 2.83973e-76)
(-8.92285e-79 -1.13173e-78 1.72683e-78)
(-5.34439e-81 -6.77758e-81 1.03438e-80)
(-3.14575e-83 -3.98876e-83 6.08842e-83)
(-1.82512e-85 -2.31387e-85 3.53218e-85)
(-7.0635e-79 -8.96576e-79 1.36642e-78)
(-4.39495e-81 -5.5776e-81 8.50334e-81)
(-2.7354e-83 -3.47095e-83 5.29348e-83)
(-1.68635e-85 -2.13952e-85 3.26389e-85)
(-1.02495e-87 -1.30021e-87 1.98392e-87)
)
;

boundaryField
{
    inlet
    {
        type            zeroGradient;
    }
    outlet
    {
        type            zeroGradient;
    }
    bottom
    {
        type            zeroGradient;
    }
    top
    {
        type            symmetryPlane;
    }
    side1
    {
        type            symmetryPlane;
    }
    side2
    {
        type            symmetryPlane;
    }
    procBoundary103to23
    {
        type            processor;
        value           uniform (-1.79307e-72 -2.26586e-72 3.49772e-72);
    }
    procBoundary103to38
    {
        type            processor;
        value           uniform (-5.42228e-68 -6.88007e-68 1.05772e-67);
    }
    procBoundary103to39
    {
        type            processor;
        value           nonuniform List<vector> 
26
(
(-1.41548e-73 -1.79161e-73 2.76116e-73)
(-2.82327e-71 -3.57887e-71 5.5073e-71)
(-1.50366e-73 -1.90566e-73 2.93317e-73)
(-8.02387e-76 -1.01666e-75 1.5652e-75)
(-5.0944e-69 -6.46491e-69 9.93756e-69)
(-2.77573e-71 -3.52184e-71 5.41457e-71)
(-1.50429e-73 -1.90829e-73 2.93438e-73)
(-8.12081e-76 -1.02999e-75 1.58411e-75)
(-4.37217e-78 -5.54428e-78 8.52872e-78)
(-2.38166e-71 -3.02416e-71 4.64586e-71)
(-1.32865e-73 -1.6868e-73 2.59177e-73)
(-7.3616e-76 -9.34443e-76 1.43602e-75)
(-4.05427e-78 -5.14541e-78 7.90859e-78)
(-2.22119e-80 -2.8185e-80 4.33283e-80)
(-1.66719e-66 -2.11198e-66 3.25215e-66)
(-8.98544e-69 -1.13798e-68 1.75277e-68)
(-4.89569e-71 -6.1986e-71 9.54995e-71)
(-4.89569e-71 -6.1986e-71 9.54995e-71)
(-2.68499e-73 -3.39862e-73 5.23757e-73)
(-2.68499e-73 -3.39862e-73 5.23757e-73)
(-2.68499e-73 -3.39862e-73 5.23757e-73)
(-9.81223e-69 -1.24408e-68 1.91405e-68)
(-9.81223e-69 -1.24408e-68 1.91405e-68)
(-5.32367e-71 -6.74847e-71 1.03848e-70)
(-5.32367e-71 -6.74847e-71 1.03848e-70)
(-5.32367e-71 -6.74847e-71 1.03848e-70)
)
;
    }
    procBoundary103to87
    {
        type            processor;
        value           nonuniform List<vector> 10((-1.8003e-66 -2.27725e-66 3.51181e-66) (-9.64301e-69 -1.21945e-68 1.88105e-68) (-5.17439e-71 -6.54181e-71 1.00936e-70) (-2.77938e-73 -3.51296e-73 5.42169e-73) (-1.49327e-75 -1.88691e-75 2.91291e-75) (-9.10257e-69 -1.1511e-68 1.76139e-68) (-4.9684e-71 -6.28133e-71 9.61234e-71) (-2.69828e-73 -3.41043e-73 5.21946e-73) (-1.45919e-75 -1.84384e-75 2.82216e-75) (-7.86242e-78 -9.93238e-78 1.52041e-77));
    }
    procBoundary103to102
    {
        type            processor;
        value           nonuniform List<vector> 9((-3.78664e-71 -4.808e-71 7.38654e-71) (-1.7601e-66 -2.22935e-66 3.43339e-66) (-9.33206e-69 -1.18312e-68 1.82039e-68) (-4.73139e-71 -6.00305e-71 9.22944e-71) (-2.22318e-73 -2.82244e-73 4.33671e-73) (-8.50463e-69 -1.07693e-68 1.64577e-68) (-4.5426e-71 -5.75795e-71 8.78912e-71) (-2.35806e-73 -2.99131e-73 4.56155e-73) (-1.14862e-75 -1.458e-75 2.22152e-75));
    }
    procBoundary103to104
    {
        type            processor;
        value           nonuniform List<vector> 
12
(
(-2.02504e-79 -2.56019e-79 3.95021e-79)
(-4.33513e-82 -5.48477e-82 8.45647e-82)
(-5.40412e-84 -6.85638e-84 1.05417e-83)
(-3.20507e-86 -4.06778e-86 6.25208e-86)
(-2.95667e-82 -3.74013e-82 5.76752e-82)
(-1.45299e-84 -1.83979e-84 2.83432e-84)
(-1.7607e-86 -2.23359e-86 3.43456e-86)
(-1.1488e-88 -1.45793e-88 2.24095e-88)
(-1.07726e-84 -1.36287e-84 2.08401e-84)
(-6.55889e-87 -8.30618e-87 1.26844e-86)
(-5.23504e-89 -6.63826e-89 1.01414e-88)
(-3.28054e-91 -4.16233e-91 6.35845e-91)
)
;
    }
    procBoundary103to119
    {
        type            processor;
        value           nonuniform List<vector> 
15
(
(-1.91026e-77 -2.42673e-77 3.72631e-77)
(-1.12773e-79 -1.43231e-79 2.19984e-79)
(-6.83326e-82 -8.67732e-82 1.33295e-81)
(-4.0927e-84 -5.19653e-84 7.98356e-84)
(-2.39511e-86 -3.04081e-86 4.67211e-86)
(-5.06787e-80 -6.43828e-80 9.8858e-80)
(-3.26825e-82 -4.15121e-82 6.37532e-82)
(-2.14981e-84 -2.73012e-84 4.19361e-84)
(-1.40474e-86 -1.78366e-86 2.7402e-86)
(-8.98974e-89 -1.14134e-88 1.75361e-88)
(-1.51635e-82 -1.92619e-82 2.9368e-82)
(-9.73634e-85 -1.23658e-84 1.88588e-84)
(-6.32414e-87 -8.03076e-87 1.22518e-86)
(-4.12347e-89 -5.23542e-89 7.98995e-89)
(-2.67422e-91 -3.39492e-91 5.18262e-91)
)
;
    }
}


// ************************************************************************* //
