/*--------------------------------*- C++ -*----------------------------------*\
| =========                 |                                                 |
| \\      /  F ield         | OpenFOAM: The Open Source CFD Toolbox           |
|  \\    /   O peration     | Version:  2.4.0                                 |
|   \\  /    A nd           | Web:      www.OpenFOAM.org                      |
|    \\/     M anipulation  |                                                 |
\*---------------------------------------------------------------------------*/
FoamFile
{
    version     2.0;
    format      ascii;
    class       surfaceScalarField;
    location    "0.01";
    object      phib;
}
// * * * * * * * * * * * * * * * * * * * * * * * * * * * * * * * * * * * * * //

dimensions      [0 3 -1 0 0 0 0];

internalField   nonuniform List<scalar> 
115
(
20135.5
7538.05
-4960.5
9790.68
6312.5
-9754.17
13261
14598.9
13949.4
12694.4
-19103.9
11792
8610.43
-14109.6
7869.08
4579.11
-13220.9
9210.01
6562.42
-12040.7
8782.87
8475.51
6446.8
7212.12
-16523.8
7283.99
-13758.6
5764.41
-11612.6
5798.65
-9685.46
4036.45
4238.8
-9034.6
11004.2
3964.72
-6061.05
9073.2
3065.87
-6077.27
17853.1
2668.46
-15279.8
36551.9
7483.39
12133.3
3839.55
-30833.3
12371.8
5656.53
-29931.7
9768.73
4618.43
-32913.7
20547.8
6599.86
-24177
31840.8
10573.4
12636.7
5075.3
-40636.4
8686.64
3268.31
-40856.1
11730.9
2836.59
-40796
18467.6
8582.54
-27507
17977.3
9050.05
12551.6
6534.09
-45274.1
2978.35
-40943.9
2504.49
-38373.1
3445.43
-37981.7
5206.58
5862.45
-15247.2
11496.2
-11650.1
8111.76
-12948.9
11614.1
-10738.3
17813.8
11573
-37418.5
10592.9
-32435.5
7747.23
-35139.2
20917.6
-27090.8
20338.9
16107.5
-64786
10026.7
-66917.5
12715.3
-61812.1
24394.8
-53338.2
20915.2
16696.1
-67814.9
-67568.7
-68825.4
-69316.3
)
;

boundaryField
{
    inlet
    {
        type            fixedValue;
        value           nonuniform 0();
    }
    outlet
    {
        type            calculated;
        value           nonuniform 0();
    }
    bottom
    {
        type            fixedValue;
        value           nonuniform 0();
    }
    top
    {
        type            symmetryPlane;
        value           nonuniform List<scalar> 
20
(
-9.45174e-16
-1.6346e-15
-1.48954e-15
-1.32504e-15
-5.68563e-16
-1.65331e-15
-2.46786e-15
-2.43751e-15
-1.11015e-15
-3.22695e-15
-8.23541e-15
-4.23448e-15
-4.59203e-15
-3.61754e-15
-4.67155e-15
-5.76681e-15
-2.19101e-15
-3.57393e-15
-4.13837e-15
-5.18292e-15
)
;
    }
    side1
    {
        type            symmetryPlane;
        value           nonuniform 0();
    }
    side2
    {
        type            symmetryPlane;
        value           nonuniform 0();
    }
    procBoundary103to23
    {
        type            processor;
        value           uniform -16859.4;
    }
    procBoundary103to38
    {
        type            processor;
        value           uniform 23053.4;
    }
    procBoundary103to39
    {
        type            processor;
        value           nonuniform List<scalar> 
26
(
-6297.83
-5698.31
-7584.13
-10460.8
-8375.14
-6857.76
-6870.44
-5177.48
-4542.22
-8227.94
-7851.32
-6542.02
-3432.82
-2194.65
-10415.8
-7069.89
-13117.8
-7911.01
1139.53
-15482.1
-11499.9
-15976.6
-9892.24
7673.61
-10584.6
-6215.56
)
;
    }
    procBoundary103to87
    {
        type            processor;
        value           nonuniform List<scalar> 10(-5308.84 -8042.68 -12594.2 -23332.9 -13344.4 -12674.2 -8642.99 -7646.67 -12541 -8805.5);
    }
    procBoundary103to102
    {
        type            processor;
        value           nonuniform List<scalar> 9(19472.1 9790.5 33701.5 49663.7 51450.3 20390.1 43978.7 68620.8 75273.2);
    }
    procBoundary103to104
    {
        type            processor;
        value           nonuniform List<scalar> 
12
(
-5656.77
-5801.97
-7207.94
-10636.4
-10370.2
-17061.3
-26743.8
-39427.2
-9666.22
-26549.8
-47392.6
-65868.8
)
;
    }
    procBoundary103to119
    {
        type            processor;
        value           nonuniform List<scalar> 
15
(
9787.84
7190.75
7807.5
6252.09
5353.62
6815.98
10660.6
18250
16415.8
12373.5
5546.73
14973.7
29097.1
26612.7
19111.3
)
;
    }
}


// ************************************************************************* //
