/*--------------------------------*- C++ -*----------------------------------*\
| =========                 |                                                 |
| \\      /  F ield         | OpenFOAM: The Open Source CFD Toolbox           |
|  \\    /   O peration     | Version:  2.4.0                                 |
|   \\  /    A nd           | Web:      www.OpenFOAM.org                      |
|    \\/     M anipulation  |                                                 |
\*---------------------------------------------------------------------------*/
FoamFile
{
    version     2.0;
    format      ascii;
    class       volVectorField;
    location    "0.17";
    object      Ur;
}
// * * * * * * * * * * * * * * * * * * * * * * * * * * * * * * * * * * * * * //

dimensions      [0 1 -1 0 0 0 0];

internalField   nonuniform List<vector> 
200
(
(-1.11733e+16 -7.5441e+15 -8.65241e+15)
(-1.48316e+15 7.23841e+15 -1.01156e+16)
(1.63141e+16 -2.20031e+16 -1.71668e+16)
(2.37084e+16 -4.12307e+16 -2.05685e+16)
(1.31959e+16 -5.31913e+16 -1.88663e+16)
(1.77794e+16 -5.61135e+16 -1.13654e+16)
(1.93359e+16 -4.50823e+16 -1.57466e+16)
(3.53498e+16 -3.9632e+16 -7.52622e+15)
(3.75012e+16 -3.94861e+16 -2.13866e+16)
(5.81327e+16 -2.80325e+16 -1.07165e+16)
(-1.6485e+16 -8.79458e+15 -5.69805e+15)
(-1.01946e+16 -2.2724e+16 -9.23024e+15)
(-3.57598e+15 -2.92374e+16 -1.02862e+16)
(1.18865e+15 -3.8646e+16 -1.62653e+16)
(7.15032e+15 -4.66306e+16 -1.6667e+16)
(1.85915e+16 -5.30028e+16 -1.83382e+16)
(2.72401e+16 -4.9333e+16 -2.83201e+15)
(3.50322e+16 -4.73697e+16 -2.31633e+16)
(5.17785e+16 -5.16709e+16 -7.04657e+15)
(5.73985e+16 -4.79155e+16 -2.93708e+16)
(-2.2889e+16 -1.522e+16 -5.98184e+15)
(-1.97548e+16 -2.24596e+16 -5.73229e+15)
(-1.70981e+16 -3.28615e+16 -1.14403e+16)
(-1.0897e+15 -4.65371e+16 -1.56543e+16)
(4.55888e+15 -5.7582e+16 -1.71464e+16)
(2.15379e+16 -6.9459e+16 -1.12302e+16)
(2.68344e+16 -6.54614e+16 -1.37221e+16)
(4.78017e+16 -5.68514e+16 -2.10298e+16)
(6.58766e+16 -7.56084e+16 -2.90012e+16)
(1.10388e+17 -4.10387e+16 -4.55707e+16)
(-3.22295e+16 -1.23767e+16 -2.89736e+15)
(-3.27089e+16 -2.06242e+16 -7.00482e+15)
(-3.0829e+16 -3.69625e+16 -2.7276e+15)
(-3.24737e+16 -5.81751e+16 -1.12413e+16)
(-1.85576e+16 -6.86775e+16 -1.90471e+16)
(-1.00692e+16 -8.2643e+16 -6.36723e+15)
(-2.0327e+15 -7.85484e+16 -1.19234e+16)
(2.06548e+15 -9.98682e+16 -9.92436e+15)
(3.7793e+16 -8.32621e+16 -2.57899e+16)
(-8.15495e+14 -8.13956e+16 -4.232e+16)
(-1.75382e+16 -5.49608e+15 -1.19149e+16)
(-8.14964e+15 -1.58137e+16 -2.23313e+16)
(-6.9136e+15 -1.64938e+16 -2.36763e+16)
(-4.04662e+15 -2.63664e+16 -2.57131e+16)
(-4.35965e+15 -3.79152e+16 -2.36152e+16)
(-7.29306e+15 -4.35735e+16 -2.79889e+16)
(-4.93063e+14 -3.86231e+16 -1.85769e+16)
(-7.92715e+15 -4.99068e+16 -2.08826e+16)
(7.60807e+15 -4.09052e+16 -1.66018e+16)
(-1.67261e+15 -6.00434e+16 -2.7281e+16)
(-2.03234e+16 -8.41951e+15 -1.22337e+16)
(-1.95929e+16 -1.41659e+16 -1.38227e+16)
(-1.82948e+16 -1.90525e+16 -1.98923e+16)
(-1.17976e+16 -3.18327e+16 -1.93547e+16)
(-9.56389e+15 -4.23177e+16 -2.85627e+16)
(-2.40101e+15 -4.78316e+16 -2.90804e+16)
(1.22253e+16 -5.79527e+16 -2.98075e+16)
(1.31352e+16 -4.43586e+16 -1.40519e+16)
(2.77008e+16 -6.68869e+16 -3.27633e+16)
(4.00369e+16 -5.41783e+16 -1.66963e+16)
(-2.55826e+16 -8.16223e+15 -1.01472e+16)
(-2.58209e+16 -1.28646e+16 -1.21653e+16)
(-2.20579e+16 -2.34983e+16 -1.20634e+16)
(-1.53803e+16 -4.17143e+16 -2.26844e+16)
(-5.19661e+15 -4.91933e+16 -2.41548e+16)
(-5.43312e+15 -6.15279e+16 -2.62811e+16)
(2.92198e+16 -7.16521e+16 -1.74827e+16)
(2.34747e+16 -6.42532e+16 -4.25268e+16)
(6.29074e+16 -6.8729e+16 -4.99676e+16)
(6.09876e+16 -9.09722e+16 -4.57365e+16)
(-3.11907e+16 -7.66522e+15 -9.90636e+15)
(-3.32747e+16 -1.59773e+16 -8.5223e+15)
(-3.07049e+16 -2.5485e+16 -1.45034e+16)
(-2.54491e+16 -5.02275e+16 -7.27245e+15)
(-2.52714e+16 -5.68852e+16 -1.0761e+16)
(-1.64372e+16 -6.57781e+16 -2.43788e+16)
(-1.79518e+16 -8.18749e+16 -1.15634e+16)
(-7.80819e+15 -8.15605e+16 -3.02186e+16)
(-6.76526e+15 -1.00757e+17 -1.72777e+16)
(2.22415e+16 -8.20041e+16 -4.71449e+16)
(-1.55194e+16 4.33661e+15 -2.37203e+16)
(-1.32163e+16 1.00293e+15 -1.78448e+16)
(-1.30494e+16 -3.89712e+15 -2.1761e+16)
(-1.23646e+16 -1.62397e+16 -1.92471e+16)
(-1.50057e+16 -2.65418e+16 -1.98889e+16)
(-9.14199e+15 -2.62947e+16 -1.14767e+16)
(-2.0018e+16 -4.44631e+16 -1.54161e+16)
(-5.50531e+15 -2.98576e+16 -6.206e+15)
(-2.52058e+16 -6.08528e+16 -1.9381e+16)
(-7.00044e+15 -2.83179e+16 -1.26301e+16)
(-2.3653e+16 6.03347e+14 -1.37297e+16)
(-2.24836e+16 -2.35793e+15 -1.84457e+16)
(-2.37817e+16 -1.24281e+16 -1.71245e+16)
(-2.21121e+16 -1.98299e+16 -2.68854e+16)
(-2.69178e+16 -3.25495e+16 -2.9081e+16)
(-2.76428e+16 -3.45643e+16 -2.69224e+16)
(-2.63569e+16 -4.12367e+16 -2.95906e+16)
(-3.37677e+16 -4.82641e+16 -2.36177e+16)
(-2.28789e+16 -3.87849e+16 -2.54501e+16)
(-3.43032e+16 -6.10709e+16 -3.08654e+16)
(-3.0209e+16 -2.71427e+15 -1.23921e+16)
(-3.00006e+16 -8.77575e+15 -1.07316e+16)
(-2.79224e+16 -1.3093e+16 -2.00421e+16)
(-2.9915e+16 -2.2965e+16 -2.18775e+16)
(-3.08947e+16 -2.71105e+16 -2.36622e+16)
(-3.71449e+16 -3.76819e+16 -3.48792e+16)
(-3.78967e+16 -4.18698e+16 -2.47276e+16)
(-3.82045e+16 -5.51305e+16 -4.32761e+16)
(-3.98178e+16 -7.21284e+16 -4.18937e+16)
(-2.37811e+16 -6.07883e+16 -4.87134e+16)
(-3.63393e+16 -4.60237e+15 -5.97273e+15)
(-3.88021e+16 -2.99322e+15 -8.82858e+15)
(-4.21247e+16 -1.79426e+16 -6.32163e+15)
(-4.12628e+16 -2.05892e+16 -1.64672e+16)
(-4.35298e+16 -2.82508e+16 -2.35953e+16)
(-4.24552e+16 -3.19605e+16 -1.02279e+16)
(-4.81937e+16 -4.77905e+16 -3.36169e+16)
(-4.259e+16 -5.85019e+16 -1.50312e+16)
(-4.50807e+16 -7.53044e+16 -4.84931e+16)
(-4.35521e+16 -9.75804e+16 -2.02342e+16)
(2.21488e+15 6.10715e+15 -5.21737e+15)
(-6.12198e+15 3.178e+15 -1.6363e+16)
(-4.66739e+15 -9.78909e+15 -9.60162e+15)
(-1.26488e+16 -1.64126e+16 -1.65453e+16)
(9.23464e+14 -1.49468e+16 -2.16957e+15)
(-1.82476e+16 -3.56343e+16 -1.33508e+16)
(-4.44846e+15 -2.41522e+16 1.59401e+15)
(-2.71723e+16 -5.02051e+16 -1.2241e+16)
(-1.28256e+16 -3.03598e+16 9.88483e+14)
(-4.11009e+16 -5.65826e+16 -1.32094e+16)
(-1.79762e+16 1.41798e+16 -1.39318e+16)
(-1.52928e+16 1.87424e+15 -4.71966e+15)
(-2.17838e+16 -3.65294e+15 -1.39054e+16)
(-2.55459e+16 -1.93711e+16 -1.04289e+16)
(-3.07665e+16 -2.36029e+16 -1.61538e+16)
(-3.32906e+16 -2.88982e+16 -1.67947e+16)
(-4.01507e+16 -3.37356e+16 -1.37408e+16)
(-3.76786e+16 -3.19297e+16 -1.17898e+16)
(-4.70681e+16 -4.85913e+16 -1.33571e+16)
(-3.39462e+16 -3.41237e+16 -7.94412e+15)
(-3.16823e+16 -4.19029e+14 -6.8135e+15)
(-3.34401e+16 1.70816e+15 -1.10547e+16)
(-3.85778e+16 -3.94046e+15 -1.11083e+16)
(-3.85741e+16 -8.63568e+15 -1.69524e+16)
(-5.24343e+16 -2.51735e+16 -1.46177e+16)
(-5.31747e+16 -2.91504e+16 -1.11776e+16)
(-6.1654e+16 -4.09273e+16 -3.30055e+16)
(-5.87479e+16 -5.28434e+16 -3.76155e+15)
(-6.66976e+16 -5.99498e+16 -4.88274e+16)
(-4.8387e+16 -7.93208e+16 -1.90837e+16)
(-4.02494e+16 1.10413e+16 -5.14496e+15)
(-4.23023e+16 2.58414e+15 1.03039e+15)
(-4.14298e+16 -3.89567e+15 -7.98365e+15)
(-4.60292e+16 -9.57418e+15 -1.29173e+16)
(-4.89281e+16 -1.56372e+16 -5.7471e+15)
(-6.55131e+16 -2.71103e+16 -2.03136e+16)
(-6.63397e+16 -3.36982e+16 -2.48252e+15)
(-1.0041e+17 -4.69375e+16 -4.31216e+16)
(-7.81853e+16 -9.20959e+16 1.12704e+16)
(-1.21811e+17 -9.67702e+16 -7.89102e+16)
(3.97067e+15 9.76924e+15 -1.65298e+16)
(1.0414e+16 -1.6739e+15 2.56613e+15)
(-4.21032e+15 -2.4626e+15 -1.45971e+16)
(-2.22888e+15 -1.44449e+16 -6.16074e+14)
(-1.43771e+16 -1.7908e+16 -9.77282e+15)
(2.90349e+14 -1.79672e+16 8.26539e+15)
(-1.79437e+16 -3.36254e+16 -7.89052e+15)
(-4.21507e+15 -3.25241e+16 9.75601e+15)
(-2.41433e+16 -5.15862e+16 -5.56958e+15)
(-1.1101e+16 -4.13093e+16 9.50089e+15)
(-4.22702e+15 1.4528e+15 6.40797e+15)
(-1.47805e+16 9.66254e+15 -8.77351e+15)
(-1.13098e+16 -4.83384e+15 -1.09901e+14)
(-2.16354e+16 -6.99461e+14 -1.16111e+16)
(-2.31816e+16 -1.96823e+16 -3.45298e+15)
(-3.60487e+16 -1.66825e+16 -7.86213e+15)
(-3.015e+16 -2.09455e+16 3.02205e+15)
(-4.38012e+16 -3.41359e+16 -9.25751e+15)
(-3.58601e+16 -3.33013e+16 1.60873e+15)
(-5.33496e+16 -4.61612e+16 -1.1853e+16)
(-2.60069e+16 1.60897e+16 -4.95865e+15)
(-2.51646e+16 3.85319e+15 -1.61506e+14)
(-3.07912e+16 5.30198e+15 -6.25295e+14)
(-3.16656e+16 -3.75408e+15 -4.27274e+15)
(-3.84613e+16 -8.04071e+15 -4.50341e+15)
(-4.28564e+16 -1.64435e+16 -1.33212e+16)
(-5.4619e+16 -2.13991e+16 -1.46143e+16)
(-4.95974e+16 -2.74058e+16 -1.42704e+16)
(-6.09875e+16 -3.53217e+16 -6.15666e+15)
(-7.09022e+16 -3.08062e+16 -2.584e+16)
(-3.05878e+16 1.06974e+16 -6.70759e+14)
(-3.31848e+16 1.09447e+16 -9.18763e+14)
(-3.82318e+16 6.85546e+15 -5.32573e+15)
(-4.66281e+16 5.89417e+15 -4.50155e+15)
(-4.94821e+16 2.59559e+15 1.51489e+15)
(-6.06191e+16 -4.07123e+15 1.9375e+15)
(-6.93792e+16 -1.29489e+16 -8.41747e+15)
(-6.78003e+16 -2.86045e+16 2.68902e+15)
(-8.57365e+16 -2.87298e+16 -3.35899e+16)
(-7.8515e+16 -5.32665e+16 -3.54522e+15)
)
;

boundaryField
{
    inlet
    {
        type            calculated;
        value           nonuniform 0();
    }
    outlet
    {
        type            calculated;
        value           nonuniform 0();
    }
    bottom
    {
        type            calculated;
        value           uniform (0 0 0);
    }
    top
    {
        type            symmetryPlane;
    }
    side1
    {
        type            symmetryPlane;
    }
    side2
    {
        type            symmetryPlane;
    }
    procBoundary12to4
    {
        type            processor;
        value           nonuniform List<vector> 
50
(
(-1.41437e+16 9.99484e+15 -2.89161e+15)
(5.35136e+15 -9.38767e+15 -1.35324e+16)
(1.24116e+16 5.70433e+15 -9.62926e+15)
(2.60733e+16 -8.4016e+16 -3.66391e+16)
(5.45315e+16 -9.08949e+16 -3.73221e+16)
(4.26913e+16 -8.73003e+16 -2.57329e+16)
(4.12172e+16 -4.90442e+16 -1.00895e+16)
(3.68774e+16 -4.31801e+16 -1.94847e+16)
(4.46894e+16 -3.82243e+16 -1.12908e+16)
(4.13156e+16 -3.4739e+16 -1.93542e+16)
(-1.07982e+16 2.95471e+15 -1.67644e+16)
(-5.07644e+15 8.5958e+15 -1.66055e+16)
(5.65572e+15 -1.75333e+15 -1.91172e+16)
(1.72895e+16 -1.57533e+16 -2.62387e+16)
(9.54765e+15 -3.65895e+16 -2.61649e+16)
(9.92638e+15 -3.43669e+16 -2.58349e+16)
(3.89687e+15 -4.22421e+16 -2.3999e+16)
(1.20392e+16 -2.9647e+16 -1.35134e+16)
(1.42569e+15 -5.40855e+16 -2.44798e+16)
(1.33977e+16 -3.07614e+16 -2.10561e+16)
(-2.75887e+15 1.07844e+16 -1.17063e+16)
(-5.34145e+15 5.92582e+15 -1.92609e+16)
(8.96595e+14 2.15466e+15 -1.48532e+16)
(-1.69723e+15 -1.18955e+16 -1.9529e+16)
(8.45347e+15 -1.2195e+16 -9.4893e+15)
(4.11478e+14 -3.58554e+16 -2.05278e+16)
(1.44201e+16 -2.0854e+16 -1.0967e+16)
(5.23291e+14 -5.87231e+16 -2.68798e+16)
(1.41738e+16 -3.53891e+16 -2.27685e+16)
(-1.23504e+15 -6.98648e+16 -3.1691e+16)
(1.0018e+16 2.41538e+15 -1.96937e+16)
(2.41709e+16 4.6786e+15 -2.49059e+15)
(5.53934e+15 -1.98747e+16 -1.8551e+16)
(2.45969e+16 -4.14395e+15 -2.31364e+15)
(2.61744e+15 -3.7573e+16 -1.81205e+16)
(2.04097e+16 -1.80858e+16 -4.02294e+15)
(-3.14717e+15 -4.86559e+16 -1.64782e+16)
(1.0345e+16 -2.84994e+16 -7.05713e+15)
(-6.365e+15 -5.68974e+16 -1.71757e+16)
(-6.85667e+15 -3.81637e+16 -1.08331e+16)
(4.22555e+16 -1.03332e+15 9.68339e+15)
(1.85628e+16 -8.20264e+15 -1.69049e+16)
(3.26553e+16 -3.2746e+15 6.18179e+15)
(1.1495e+16 -1.87362e+16 -1.26435e+16)
(2.83969e+16 -1.20575e+16 7.40667e+15)
(9.37979e+15 -3.66829e+16 -7.6063e+15)
(2.48518e+16 -3.01602e+16 5.40929e+15)
(1.05738e+16 -4.86002e+16 -5.89848e+15)
(2.19462e+16 -4.51643e+16 3.75139e+15)
(1.66009e+16 -6.62777e+16 -5.14491e+15)
)
;
    }
    procBoundary12to11
    {
        type            processor;
        value           nonuniform List<vector> 
20
(
(-1.71553e+16 -1.33693e+15 -5.26493e+15)
(-2.07155e+16 -7.99251e+15 -2.65859e+15)
(-2.74691e+16 -4.45073e+15 -5.40668e+15)
(-2.96707e+16 -5.84649e+15 -3.69835e+15)
(-2.46511e+16 -9.13711e+15 -4.6141e+15)
(-2.20072e+16 -1.0482e+15 -1.08027e+16)
(-2.53048e+16 -5.59455e+15 -9.58797e+15)
(-3.31895e+16 -2.85595e+15 -6.8373e+15)
(-1.31834e+16 9.54742e+15 -1.55037e+16)
(-2.78874e+16 3.7603e+14 -1.28412e+16)
(-2.96507e+16 -8.30206e+14 -1.03232e+16)
(-3.52324e+16 -8.46865e+14 -7.96753e+15)
(-6.23944e+14 1.68364e+16 -1.78379e+16)
(-1.15747e+16 1.03582e+16 7.87311e+14)
(-3.86382e+16 -9.61211e+15 1.85919e+15)
(-3.00394e+16 2.28003e+15 -2.91401e+15)
(2.17514e+16 -2.35107e+15 1.14818e+16)
(-1.10914e+16 1.86978e+16 -1.12252e+16)
(-1.82596e+16 1.17908e+16 3.45348e+15)
(-3.31725e+16 1.34036e+16 -1.87662e+15)
)
;
    }
    procBoundary12to13
    {
        type            processor;
        value           nonuniform List<vector> 
20
(
(5.78328e+16 -1.71055e+16 -2.67476e+16)
(8.98977e+16 -2.74699e+16 -2.37755e+16)
(6.02735e+16 -3.28607e+16 -8.14333e+16)
(7.02967e+16 1.41197e+16 -9.94657e+16)
(1.77912e+16 -3.17765e+16 -3.04957e+16)
(4.94354e+16 -5.06466e+16 -4.63335e+16)
(7.84525e+16 -5.41357e+16 -5.81999e+16)
(-9.61291e+15 -9.93089e+16 -3.8158e+16)
(-3.55179e+16 -6.52914e+16 -3.09108e+16)
(-1.58376e+16 -3.78812e+16 -3.11472e+16)
(-1.42217e+16 -9.31769e+16 -4.9166e+16)
(-3.1143e+16 -1.09562e+17 -6.64073e+16)
(-2.37176e+16 -2.34284e+16 -6.23556e+14)
(-3.87261e+16 -5.534e+16 -1.7478e+16)
(-6.5405e+16 -7.62646e+16 -7.16475e+16)
(-6.4772e+16 -6.2775e+16 1.00963e+16)
(-3.46987e+16 -6.25628e+16 -4.68866e+15)
(-4.26545e+16 -3.34228e+16 -1.8009e+15)
(-6.77261e+16 -5.84436e+16 -1.93063e+16)
(-1.07609e+17 -4.71234e+16 -5.28453e+16)
)
;
    }
    procBoundary12to20
    {
        type            processor;
        value           nonuniform List<vector> 
50
(
(-4.08005e+16 -3.17956e+15 -6.59231e+15)
(-4.59042e+16 -1.46889e+16 1.30047e+15)
(-5.27639e+16 -2.7691e+16 -8.27285e+15)
(-5.68686e+16 -5.01457e+16 -2.94357e+15)
(-6.85281e+16 -7.4879e+16 -7.67882e+15)
(-7.21814e+16 -8.48367e+16 -1.35972e+16)
(-8.75921e+16 -1.03084e+17 8.34832e+15)
(-4.71397e+16 -1.05448e+17 -1.78553e+16)
(-6.65646e+16 -1.03641e+17 -4.22616e+16)
(4.6012e+15 -4.16563e+16 -9.35135e+16)
(-4.25033e+16 -6.5471e+15 -6.16947e+15)
(-4.16075e+16 -8.28776e+15 -1.02144e+16)
(-4.4694e+16 -2.62861e+16 -1.75698e+15)
(-5.10586e+16 -4.00371e+16 -1.15798e+16)
(-5.09422e+16 -4.70189e+16 -1.27033e+16)
(-5.14709e+16 -6.81974e+16 -2.39746e+15)
(-5.24831e+16 -7.25837e+16 -1.07748e+16)
(-4.26583e+16 -9.27154e+16 1.76936e+16)
(-3.28223e+16 -9.45817e+16 -2.1194e+16)
(-5.5048e+16 -1.1493e+17 -1.12206e+16)
(-4.2785e+16 7.27373e+14 -6.39905e+15)
(-4.62082e+16 -9.27542e+15 -3.61016e+15)
(-4.75522e+16 -1.68136e+16 -9.97601e+15)
(-5.04744e+16 -2.07794e+16 -1.10378e+16)
(-5.02553e+16 -2.46253e+16 -6.73979e+15)
(-6.13656e+16 -3.19972e+16 -1.89141e+16)
(-5.19808e+16 -3.91692e+16 8.57047e+15)
(-7.56498e+16 -5.34582e+16 -2.61895e+16)
(-5.92039e+16 -7.94969e+16 3.99099e+16)
(-7.9495e+16 -8.10461e+16 -5.96508e+16)
(-3.95444e+16 5.17974e+15 -4.65319e+15)
(-3.97307e+16 2.32388e+15 -4.31736e+15)
(-4.66815e+16 -3.01958e+13 -3.0234e+15)
(-4.8805e+16 -2.73325e+15 -3.85823e+15)
(-6.15028e+16 -7.12328e+15 -9.95364e+15)
(-6.55351e+16 -9.44249e+15 2.6071e+15)
(-1.00769e+17 -1.70145e+16 -2.36834e+16)
(-8.81366e+16 -3.62614e+16 4.38374e+16)
(-1.46888e+17 -5.51507e+16 -5.64827e+16)
(-1.21516e+17 -8.31728e+16 3.36365e+16)
(-3.339e+16 1.20527e+16 -1.90723e+15)
(-3.4237e+16 2.02607e+16 2.6442e+15)
(-3.80629e+16 2.24447e+16 7.49022e+15)
(-4.65821e+16 1.80032e+16 -4.89637e+15)
(-4.64008e+16 2.09501e+16 -5.30764e+15)
(-6.40315e+16 1.04357e+16 5.69681e+15)
(-7.17788e+16 -1.29238e+15 3.35167e+15)
(-8.83074e+16 -5.09149e+15 -2.31684e+16)
(-8.97248e+16 -2.73779e+16 4.92205e+15)
(-1.21957e+17 -2.69643e+16 -3.99798e+16)
)
;
    }
}


// ************************************************************************* //
