/*--------------------------------*- C++ -*----------------------------------*\
| =========                 |                                                 |
| \\      /  F ield         | OpenFOAM: The Open Source CFD Toolbox           |
|  \\    /   O peration     | Version:  2.4.0                                 |
|   \\  /    A nd           | Web:      www.OpenFOAM.org                      |
|    \\/     M anipulation  |                                                 |
\*---------------------------------------------------------------------------*/
FoamFile
{
    version     2.0;
    format      ascii;
    class       labelField;
    location    "0.16/lagrangian/defaultCloud";
    object      tag;
}
// * * * * * * * * * * * * * * * * * * * * * * * * * * * * * * * * * * * * * //


91
(
9
4
6
12
15
18
19
13
2
27
31
25
22
20
10
3
23
5
42
17
14
1
41
29
33
26
36
51
21
53
38
8
30
56
48
32
34
44
43
37
7
46
24
16
52
66
63
62
40
35
45
73
91
79
65
64
54
67
69
71
77
39
68
74
61
87
80
84
50
70
58
89
88
76
47
75
86
72
94
85
97
78
82
93
90
95
59
99
98
100
96
)


// ************************************************************************* //
