/*--------------------------------*- C++ -*----------------------------------*\
| =========                 |                                                 |
| \\      /  F ield         | OpenFOAM: The Open Source CFD Toolbox           |
|  \\    /   O peration     | Version:  2.4.0                                 |
|   \\  /    A nd           | Web:      www.OpenFOAM.org                      |
|    \\/     M anipulation  |                                                 |
\*---------------------------------------------------------------------------*/
FoamFile
{
    version     2.0;
    format      ascii;
    class       surfaceScalarField;
    location    "0.03";
    object      phia;
}
// * * * * * * * * * * * * * * * * * * * * * * * * * * * * * * * * * * * * * //

dimensions      [0 3 -1 0 0 0 0];

internalField   nonuniform List<scalar> 
490
(
-4.27779e-05
-5.01467e-06
-3.12391e-06
-4.28186e-05
-4.98114e-06
-3.12644e-06
-4.28186e-05
-4.98102e-06
-3.12644e-06
-4.28187e-05
-4.98102e-06
-3.12644e-06
-4.28187e-05
-4.98103e-06
-3.12645e-06
-4.28188e-05
-4.98103e-06
-3.12645e-06
-4.28188e-05
-4.98104e-06
-3.12645e-06
-4.28189e-05
-4.98104e-06
-3.12646e-06
-4.28189e-05
-4.98104e-06
-3.12646e-06
-4.98104e-06
-3.12646e-06
-4.05485e-05
-5.04737e-06
-2.98564e-06
-4.28106e-05
-4.98146e-06
-3.12595e-06
-4.28189e-05
-4.98108e-06
-3.12646e-06
-4.28189e-05
-4.98107e-06
-3.12646e-06
-4.2819e-05
-4.98106e-06
-3.12646e-06
-4.2819e-05
-4.98106e-06
-3.12647e-06
-4.2819e-05
-4.98105e-06
-3.12647e-06
-4.2819e-05
-4.98105e-06
-3.12647e-06
-4.2819e-05
-4.98106e-06
-3.12647e-06
-4.98105e-06
-3.12647e-06
-4.05252e-05
-5.01768e-06
-2.98433e-06
-4.28022e-05
-4.95955e-06
-3.12544e-06
-4.28196e-05
-4.96026e-06
-3.12651e-06
-4.28194e-05
-4.96153e-06
-3.1265e-06
-4.28193e-05
-4.9628e-06
-3.12649e-06
-4.28192e-05
-4.96408e-06
-3.12648e-06
-4.28191e-05
-4.96536e-06
-3.12647e-06
-4.28191e-05
-4.96665e-06
-3.12647e-06
-4.28191e-05
-4.96795e-06
-3.12647e-06
-4.96665e-06
-3.12647e-06
-4.05104e-05
-2.98358e-06
-4.27928e-05
-3.12489e-06
-4.28205e-05
-3.12659e-06
-4.28201e-05
-3.12656e-06
-4.28198e-05
-3.12653e-06
-4.28195e-05
-3.12651e-06
-4.28192e-05
-3.12649e-06
-4.28191e-05
-3.12648e-06
-4.28191e-05
-3.12648e-06
-3.12647e-06
-4.28186e-05
-4.98111e-06
-3.12679e-06
-4.28186e-05
-4.98102e-06
-3.12671e-06
-4.28187e-05
-4.98102e-06
-3.12664e-06
-4.28187e-05
-4.98103e-06
-3.12659e-06
-4.28188e-05
-4.98103e-06
-3.12655e-06
-4.28188e-05
-4.98104e-06
-3.12651e-06
-4.28189e-05
-4.98104e-06
-3.12649e-06
-4.28189e-05
-4.98104e-06
-3.12647e-06
-4.28189e-05
-4.98105e-06
-3.12646e-06
-4.98104e-06
-3.12646e-06
-4.28126e-05
-4.98137e-06
-3.12599e-06
-4.28189e-05
-4.98108e-06
-3.12656e-06
-4.28189e-05
-4.98107e-06
-3.12654e-06
-4.2819e-05
-4.98106e-06
-3.12652e-06
-4.2819e-05
-4.98106e-06
-3.1265e-06
-4.2819e-05
-4.98105e-06
-3.12649e-06
-4.2819e-05
-4.98105e-06
-3.12648e-06
-4.28191e-05
-4.98106e-06
-3.12647e-06
-4.28191e-05
-4.98106e-06
-3.12647e-06
-4.98106e-06
-3.12647e-06
-4.28063e-05
-4.95942e-06
-3.12535e-06
-4.28196e-05
-4.96027e-06
-3.1266e-06
-4.28194e-05
-4.96153e-06
-3.12657e-06
-4.28193e-05
-4.9628e-06
-3.12654e-06
-4.28192e-05
-4.96408e-06
-3.12651e-06
-4.28191e-05
-4.96536e-06
-3.12649e-06
-4.28191e-05
-4.96666e-06
-3.12648e-06
-4.28191e-05
-4.96796e-06
-3.12647e-06
-4.28191e-05
-4.96927e-06
-3.12647e-06
-4.96796e-06
-3.12647e-06
-4.27994e-05
-3.12468e-06
-4.28205e-05
-3.12668e-06
-4.28201e-05
-3.12663e-06
-4.28198e-05
-3.12659e-06
-4.28195e-05
-3.12655e-06
-4.28192e-05
-3.12651e-06
-4.28191e-05
-3.12649e-06
-4.28191e-05
-3.12648e-06
-4.28191e-05
-3.12648e-06
-3.12647e-06
-4.28189e-05
-4.98094e-06
-6.40735e-06
-4.28189e-05
-4.98092e-06
-6.32324e-06
-4.28188e-05
-4.98095e-06
-6.21744e-06
-4.28188e-05
-4.98097e-06
-6.08032e-06
-4.28188e-05
-4.98099e-06
-5.89563e-06
-4.28188e-05
-4.981e-06
-5.63374e-06
-4.28189e-05
-4.98102e-06
-5.2344e-06
-4.28189e-05
-4.98103e-06
-4.55321e-06
-4.28189e-05
-4.98104e-06
-3.12928e-06
-4.98104e-06
-3.12822e-06
-4.28163e-05
-4.98131e-06
-5.20978e-06
-4.28195e-05
-4.98113e-06
-5.08205e-06
-4.28194e-05
-4.98111e-06
-4.93264e-06
-4.28192e-05
-4.98109e-06
-4.75757e-06
-4.28191e-05
-4.98107e-06
-4.54967e-06
-4.2819e-05
-4.98105e-06
-4.29915e-06
-4.2819e-05
-4.98105e-06
-3.9927e-06
-4.2819e-05
-4.98105e-06
-3.61188e-06
-4.2819e-05
-4.98106e-06
-3.12735e-06
-4.98105e-06
-3.12698e-06
-4.28137e-05
-4.95807e-06
-4.31542e-06
-4.28204e-05
-4.95908e-06
-4.21637e-06
-4.28201e-05
-4.96032e-06
-4.10496e-06
-4.28197e-05
-4.96157e-06
-3.98205e-06
-4.28194e-05
-4.96282e-06
-3.84568e-06
-4.28192e-05
-4.96408e-06
-3.69373e-06
-4.28191e-05
-4.96535e-06
-3.5242e-06
-4.28191e-05
-4.96665e-06
-3.33578e-06
-4.28191e-05
-4.96796e-06
-3.1269e-06
-4.96665e-06
-3.12665e-06
-4.28106e-05
-3.81378e-06
-4.28215e-05
-3.74985e-06
-4.28209e-05
-3.67829e-06
-4.28204e-05
-3.60167e-06
-4.28198e-05
-3.51935e-06
-4.28194e-05
-3.4307e-06
-4.28192e-05
-3.33538e-06
-4.28191e-05
-3.23379e-06
-4.28191e-05
-3.12673e-06
-3.12647e-06
-4.6409e-05
-2.98022e-06
-1.01172e-05
-4.63035e-05
-3.05922e-06
-9.99874e-06
-4.61686e-05
-3.15432e-06
-9.84741e-06
-4.599e-05
-3.27069e-06
-9.64746e-06
-4.57423e-05
-3.41706e-06
-9.37128e-06
-4.53758e-05
-3.60814e-06
-8.96524e-06
-4.4777e-05
-3.87141e-06
-8.30847e-06
-4.36108e-05
-4.26761e-06
-7.04656e-06
-4.28214e-05
-4.97966e-06
-3.13689e-06
-4.98016e-06
-3.13143e-06
-4.50583e-05
-3.7606e-06
-8.24245e-06
-4.49053e-05
-3.84537e-06
-8.02246e-06
-4.4725e-05
-3.94256e-06
-7.75739e-06
-4.45123e-05
-4.05361e-06
-7.43401e-06
-4.42578e-05
-4.18193e-06
-7.02926e-06
-4.39488e-05
-4.33199e-06
-6.50571e-06
-4.35678e-05
-4.5095e-06
-5.79782e-06
-4.30884e-05
-4.72185e-06
-4.77703e-06
-4.28195e-05
-4.98056e-06
-3.12735e-06
-4.98068e-06
-3.12525e-06
-4.40818e-05
-4.2598e-06
-6.52147e-06
-4.39678e-05
-4.32184e-06
-6.30392e-06
-4.38373e-05
-4.3908e-06
-6.05124e-06
-4.3693e-05
-4.46595e-06
-5.75928e-06
-4.35327e-05
-4.54827e-06
-5.41675e-06
-4.33541e-05
-4.6388e-06
-5.00802e-06
-4.31554e-05
-4.73843e-06
-4.51149e-06
-4.29353e-05
-4.84754e-06
-3.89818e-06
-4.28187e-05
-4.96639e-06
-3.12491e-06
-4.96504e-06
-3.1234e-06
-4.35434e-05
-5.32247e-06
-4.34738e-05
-5.15024e-06
-4.33909e-05
-4.95411e-06
-4.3302e-05
-4.73583e-06
-4.32065e-05
-4.49065e-06
-4.3104e-05
-4.21272e-06
-4.29944e-05
-3.89557e-06
-4.28787e-05
-3.53376e-06
-4.28178e-05
-3.12378e-06
-3.12226e-06
-4.69534e-05
-2.44013e-06
-4.69058e-05
-2.48911e-06
-4.68422e-05
-2.55112e-06
-4.67532e-05
-2.63182e-06
-4.66189e-05
-2.74142e-06
-4.63924e-05
-2.89929e-06
-4.59231e-05
-3.14768e-06
-4.42146e-05
-3.60656e-06
-4.28282e-05
-4.97588e-06
-4.97782e-06
-4.61674e-05
-3.00531e-06
-4.6049e-05
-3.0855e-06
-4.58988e-05
-3.18319e-06
-4.57035e-05
-3.3035e-06
-4.54388e-05
-3.45586e-06
-4.50605e-05
-3.6557e-06
-4.44782e-05
-3.92991e-06
-4.34717e-05
-4.33011e-06
-4.28207e-05
-4.97926e-06
-4.97971e-06
-4.52297e-05
-3.56002e-06
-4.50841e-05
-3.64622e-06
-4.49084e-05
-3.74736e-06
-4.46965e-05
-3.86527e-06
-4.4436e-05
-4.00496e-06
-4.41084e-05
-4.17345e-06
-4.36876e-05
-4.38038e-06
-4.31355e-05
-4.6383e-06
-4.28174e-05
-4.96442e-06
-4.96294e-06
-4.44553e-05
-4.43273e-05
-4.41763e-05
-4.40041e-05
-4.38055e-05
-4.35743e-05
-4.33039e-05
-4.29892e-05
-4.28142e-05
)
;

boundaryField
{
    inlet
    {
        type            calculated;
        value           nonuniform 0();
    }
    outlet
    {
        type            calculated;
        value           nonuniform 0();
    }
    bottom
    {
        type            calculated;
        value           uniform 0;
    }
    top
    {
        type            symmetryPlane;
        value           uniform 0;
    }
    side1
    {
        type            symmetryPlane;
        value           nonuniform 0();
    }
    side2
    {
        type            symmetryPlane;
        value           uniform 0;
    }
    procBoundary25to17
    {
        type            processor;
        value           nonuniform List<scalar> 
50
(
4.81558e-06
4.80112e-06
4.78729e-06
4.77115e-06
4.75208e-06
4.72919e-06
4.70122e-06
4.66626e-06
4.62134e-06
4.66626e-06
4.80106e-06
4.78723e-06
4.7711e-06
4.75202e-06
4.72913e-06
4.70115e-06
4.66618e-06
4.62122e-06
4.56129e-06
4.62122e-06
4.1438e-06
4.18204e-06
4.22468e-06
4.27245e-06
4.32621e-06
4.38698e-06
4.45581e-06
4.53372e-06
4.62109e-06
4.66608e-06
2.25099e-06
2.2823e-06
2.32172e-06
2.37282e-06
2.44167e-06
2.53934e-06
2.68831e-06
2.94247e-06
3.51749e-06
3.56103e-06
2.07714e-06
2.09084e-06
2.10873e-06
2.13309e-06
2.16818e-06
2.22301e-06
2.32027e-06
2.53868e-06
3.48618e-06
3.5034e-06
)
;
    }
    procBoundary25to24
    {
        type            processor;
        value           nonuniform List<scalar> 
20
(
4.04908e-05
3.82633e-05
3.82488e-05
3.82438e-05
4.2787e-05
4.05595e-05
4.0534e-05
4.05202e-05
4.28025e-05
4.06066e-05
4.05641e-05
4.05468e-05
4.64807e-05
4.20787e-05
4.13124e-05
4.09711e-05
4.69853e-05
4.33007e-05
4.20894e-05
4.15194e-05
)
;
    }
    procBoundary25to26
    {
        type            processor;
        value           nonuniform List<scalar> 
20
(
-4.28188e-05
-4.28191e-05
-4.28194e-05
-4.28195e-05
-4.28189e-05
-4.2819e-05
-4.28191e-05
-4.28191e-05
-4.28188e-05
-4.2819e-05
-4.2819e-05
-4.2819e-05
-4.28203e-05
-4.1004e-05
-3.92675e-05
-3.76569e-05
-4.28242e-05
-3.79527e-05
-3.47364e-05
-3.25129e-05
)
;
    }
}


// ************************************************************************* //
