/*--------------------------------*- C++ -*----------------------------------*\
| =========                 |                                                 |
| \\      /  F ield         | OpenFOAM: The Open Source CFD Toolbox           |
|  \\    /   O peration     | Version:  2.4.0                                 |
|   \\  /    A nd           | Web:      www.OpenFOAM.org                      |
|    \\/     M anipulation  |                                                 |
\*---------------------------------------------------------------------------*/
FoamFile
{
    version     2.0;
    format      ascii;
    class       volVectorField;
    location    "0.03";
    object      U;
}
// * * * * * * * * * * * * * * * * * * * * * * * * * * * * * * * * * * * * * //

dimensions      [0 1 -1 0 0 0 0];

internalField   nonuniform List<vector> 
200
(
(8.08558 -2.96519 -0.429537)
(7.04731 -5.40578 3.18965)
(7.27549 -2.8327 -3.02418)
(6.89464 -5.98273 2.65474)
(8.00118 -3.89509 -8.87238)
(9.28569 -4.36194 1.22223)
(6.03711 -9.11474 -3.36318)
(3.07875 -6.87475 -0.302036)
(-1.49324 -15.3785 -3.52763)
(5.63294 -1.70403 1.25362)
(4.53019 -5.61755 2.41366)
(2.99846 -2.00851 -2.5772)
(3.51951 -4.20671 0.657374)
(2.90103 -1.61974 -8.19971)
(4.39681 -4.09864 -0.267698)
(5.6798 -3.1712 -8.18757)
(5.70157 -5.01111 1.72132)
(1.68823 -2.72702 -1.00807)
(0.517109 -3.67532 0.0488034)
(-2.14003 -2.74314 -2.39863)
(-1.38514 0.148679 -3.74685)
(-1.34359 -2.45105 0.478134)
(-2.48782 -0.437245 -4.44578)
(-1.3756 -2.06598 -0.257301)
(-2.83255 -1.57146 -3.70171)
(-1.57046 -1.64501 -0.469806)
(-2.8373 -2.48742 -3.39668)
(-2.11617 -2.00067 -0.588172)
(-2.86897 -3.20702 -3.44425)
(-2.93074 -0.881476 -1.12369)
(-5.55729 -1.78636 1.0694)
(-6.66734 0.904216 -4.39939)
(-5.8836 -0.734867 0.0984772)
(-6.31258 0.466233 -3.44098)
(-5.66106 -0.0864091 -0.320454)
(-5.80887 -0.130248 -2.82802)
(-5.23134 0.468843 -0.562983)
(-5.54758 -0.832333 -2.54292)
(-5.32375 0.636674 -0.712881)
(-5.45599 -1.31019 -2.47302)
(7.5157 -3.5189 3.87588)
(9.64792 -0.184074 -2.06648)
(6.33778 -4.49743 3.58029)
(7.85032 -0.594121 -9.22152)
(7.80817 -4.62544 2.79752)
(8.54268 -1.7329 -13.5666)
(4.9491 -14.0952 20.1111)
(9.8292 -8.30749 -3.60099)
(9.88129 -4.45744 3.72311)
(7.05279 -1.5843 0.322497)
(8.42329 -0.263469 -0.650469)
(7.5462 -2.85114 1.4269)
(6.99533 0.00684093 -4.96819)
(7.23501 -2.5387 -1.67239)
(6.29478 0.193925 -14.2088)
(7.56258 -3.60302 -1.36562)
(6.53928 -1.77448 -12.578)
(6.74835 -7.00809 2.17648)
(6.35095 -4.06276 -2.49086)
(6.87745 -4.85492 4.42521)
(6.46399 -2.93166 2.60096)
(6.11448 1.37291 -1.10062)
(5.60994 -2.81115 1.37517)
(4.42758 0.319163 -4.99017)
(5.20201 -2.11612 -1.03243)
(4.2937 -0.581561 -8.13499)
(5.11449 -3.74034 0.0822564)
(4.14318 -2.35371 -4.48733)
(3.49773 -3.5406 0.83979)
(2.03098 -2.43148 -3.83344)
(2.67256 1.1555 -0.70473)
(2.98529 -1.86814 1.82102)
(1.35318 1.14516 -2.20164)
(1.87385 -0.548227 -0.192624)
(0.838527 0.618003 -3.56245)
(1.15869 -0.706675 -0.628285)
(0.142375 -0.146281 -3.97976)
(-0.0344214 -0.419762 -0.389292)
(-1.20295 -0.677573 -5.13957)
(-1.85654 0.354133 -0.15302)
(9.27104 -1.79627 1.00362)
(7.04498 -4.76737 6.46304)
(8.66077 -1.91894 -3.28884)
(6.41995 -0.896312 -4.81098)
(6.38905 0.469894 -11.3953)
(6.07633 -1.82561 -2.84137)
(5.8461 0.662233 -15.3442)
(10.0884 -4.02375 0.0667126)
(7.19773 -3.37602 -1.42573)
(12.525 -6.18279 21.5031)
(7.67543 -2.44208 0.507977)
(8.44475 -0.867103 -1.68927)
(6.93116 -1.76408 -1.37987)
(6.36885 -0.0231402 -7.47554)
(6.3671 -0.809753 -4.44475)
(5.29944 0.0671303 -13.4185)
(6.44325 -2.47667 -4.11359)
(5.71984 -1.35203 -12.6943)
(8.11671 -4.66946 1.26164)
(5.99197 -2.75635 -1.83831)
(8.57507 0.728572 -0.941785)
(8.29448 -1.61858 0.765711)
(7.70003 0.231518 -1.79874)
(5.79463 -1.08253 -1.89675)
(5.46872 -0.375456 -7.21974)
(6.09018 -1.63651 -3.1161)
(5.33983 -1.03122 -9.76491)
(6.24445 -3.38578 -1.44559)
(5.35786 -2.24087 -5.80501)
(5.65891 -3.36042 1.43082)
(7.74929 -1.01333 0.489524)
(7.42358 0.789975 -0.249819)
(7.55673 -1.44886 0.786382)
(5.35106 0.193665 -0.694495)
(4.30633 -0.578904 -0.952264)
(4.05329 0.122968 -4.07726)
(4.41335 -1.13194 -1.22959)
(3.73669 -0.0464134 -3.7134)
(3.2243 -1.13047 0.229532)
(1.92807 -0.0268888 -4.2319)
(8.71034 -2.43096 -1.38577)
(6.07743 1.00605 -6.23236)
(8.49056 -13.3588 13.0254)
(7.33386 -5.02315 -0.642558)
(5.35342 -0.0421755 -7.4502)
(4.36307 0.888519 -5.97836)
(3.70993 -0.384234 -5.46278)
(2.45696 -2.87194 -9.21978)
(5.1296 -3.21566 8.5035)
(2.85034 -2.23553 -2.19954)
(8.89031 12.2919 -10.8108)
(7.79029 -3.53001 -1.06514)
(6.66517 -1.92702 -2.50332)
(4.97266 -0.812578 -4.39812)
(4.79931 -0.526378 -7.21354)
(4.52793 -0.872142 -5.21097)
(3.63106 -1.40364 -9.59613)
(3.7407 -2.14935 -3.83598)
(2.67003 -1.90714 -8.83457)
(3.98023 -1.55681 6.17531)
(7.57815 -0.782416 -0.155269)
(9.52237 5.10434 -4.63235)
(10.216 -5.85201 18.3126)
(7.30392 -3.59476 1.42323)
(4.94861 -1.05439 -4.97524)
(5.19221 -0.942718 -6.53811)
(4.76787 -1.53257 -3.90186)
(4.11837 -2.02174 -8.64728)
(3.99375 -2.51481 -2.47677)
(2.86314 -1.00963 -6.83353)
(7.13434 0.797887 -1.13732)
(7.79067 -1.38839 0.226597)
(7.87156 0.998318 1.65881)
(6.0624 -1.27853 14.0687)
(5.18819 -0.836292 -1.51891)
(4.89725 -0.535531 -3.67208)
(4.8216 -0.44384 -5.94613)
(4.39874 -0.817644 -2.66861)
(3.55177 0.00384084 -6.04332)
(2.89086 0.767737 1.88452)
(3.59443 -0.278482 -1.29088)
(2.56455 -1.41328 -0.58676)
(2.83741 -0.81939 -3.973)
(3.00489 -3.34222 -1.94909)
(-0.0334732 1.26928 4.7881)
(-0.407695 3.07756 -3.34116)
(-1.12096 6.4047 7.01371)
(-1.22202 6.31667 2.86079)
(-1.18401 2.75721 -5.80031)
(0.574812 8.54554 20.7586)
(2.45823 0.66945 -2.10998)
(2.2338 -0.35135 -1.62267)
(1.9569 -4.12616 3.29939)
(3.22594 -0.619342 -1.25617)
(2.69099 0.116692 -2.48709)
(1.83545 0.614479 -3.02953)
(0.93249 2.31387 -1.75759)
(-0.139026 2.69392 -6.53668)
(0.024608 5.52846 6.43471)
(0.0937465 5.55447 -6.00784)
(3.64315 0.198613 -1.59475)
(3.36322 -1.26709 1.86005)
(2.58716 0.408659 -4.8265)
(4.40509 -14.1712 19.1515)
(5.62229 -0.952688 2.47993)
(3.3459 0.343966 -2.3621)
(2.15607 -0.0257442 -4.44551)
(0.540959 1.28297 1.08804)
(-0.404706 1.60767 -5.30198)
(-0.0649595 5.17393 3.88114)
(4.34638 2.3388 -2.49501)
(4.55271 -0.177856 -0.955601)
(4.56259 -2.01504 4.6995)
(4.69353 1.34037 -0.658221)
(3.37361 0.769739 -2.60369)
(3.03683 0.486135 -3.20613)
(1.93787 0.44365 -0.309278)
(1.01364 0.301016 -3.23243)
(0.931108 1.01882 3.94279)
(1.46275 -0.125546 -4.79772)
)
;

boundaryField
{
    inlet
    {
        type            calculated;
        value           nonuniform 0();
    }
    outlet
    {
        type            calculated;
        value           nonuniform 0();
    }
    bottom
    {
        type            calculated;
        value           uniform (0 0 0);
    }
    top
    {
        type            symmetryPlane;
    }
    side1
    {
        type            symmetryPlane;
    }
    side2
    {
        type            symmetryPlane;
    }
    procBoundary25to17
    {
        type            processor;
        value           nonuniform List<vector> 
50
(
(8.73971 -3.09978 2.50601)
(10.888 -1.25035 -0.7845)
(7.85831 -5.31937 5.62989)
(9.96322 -5.09899 -4.1427)
(10.9587 -1.9366 1.01726)
(2.05784 -21.982 -5.49962)
(5.41834 -6.7487 0.0442972)
(-3.62047 -31.417 -7.79472)
(7.38681 1.53406 -0.4948)
(7.62206 4.5359 0.859259)
(8.46853 6.29764 -2.11999)
(4.69762 -5.58522 10.393)
(8.93748 -2.60046 -2.35265)
(8.39725 -3.81907 0.978599)
(7.22105 -2.58506 -6.74596)
(7.34396 -9.09641 14.1014)
(8.047 -5.29441 0.864655)
(13.1461 -3.62627 5.02872)
(11.0416 -0.428134 -0.501929)
(13.8394 1.2879 10.2861)
(3.87212 -7.24635 16.615)
(8.11703 -3.046 -0.663089)
(8.34841 -1.59035 -2.70001)
(7.99851 -1.346 -4.15296)
(8.07159 -2.82799 -0.995354)
(7.82804 -1.17856 -6.69485)
(10.3247 -3.70155 -0.0934456)
(8.78828 -3.39369 -1.63054)
(13.9034 0.596063 12.4329)
(7.97974 -1.222 1.75524)
(5.03061 -0.0877618 -3.6492)
(6.88185 -4.86555 -0.829188)
(7.36004 -3.50862 -2.75922)
(8.31914 -2.32787 -4.39186)
(8.49987 -3.36838 -3.0106)
(7.06556 -0.966855 -7.04035)
(4.17957 -0.419701 -4.75574)
(6.83152 -1.04239 3.2417)
(3.92189 -4.25653 -3.18524)
(9.25012 3.52821 42.1987)
(3.64845 0.809764 -2.10723)
(4.17393 -0.151221 -2.11152)
(3.84675 -2.43745 -1.40403)
(3.70167 -3.34596 -0.728017)
(1.85716 -2.0864 -2.70496)
(0.637149 4.34857 11.8516)
(-0.547088 1.84305 -2.58594)
(-2.18403 5.22392 9.55496)
(-0.442824 6.84233 11.087)
(1.31144 0.0607368 -5.25839)
)
;
    }
    procBoundary25to24
    {
        type            processor;
        value           nonuniform List<vector> 
20
(
(7.34998 -5.16647 1.77089)
(4.26559 -2.18306 -1.37217)
(0.831491 -3.76254 2.20588)
(-6.23103 1.40356 -5.00867)
(7.72894 0.611082 -0.91227)
(7.60423 -3.32162 2.04553)
(6.64037 -0.138543 0.759978)
(4.53746 -2.22177 3.90665)
(6.89033 -2.7896 0.936652)
(7.7301 1.33812 -2.03852)
(7.57727 -1.71955 0.904679)
(7.08169 0.239466 0.432259)
(6.65383 1.64759 -2.85428)
(7.18 0.5889 -2.03809)
(6.78654 4.05851 -3.87972)
(6.10624 -0.171801 -0.414606)
(3.53972 -0.383568 0.274518)
(9.23672 -1.69093 -1.39061)
(4.15594 0.970903 -1.24663)
(4.78869 -0.68029 -1.40844)
)
;
    }
    procBoundary25to26
    {
        type            processor;
        value           nonuniform List<vector> 
20
(
(1.70485 1.86 0.446868)
(-1.16697 -1.32886 0.273732)
(-3.38205 -2.86722 -3.60733)
(-5.33002 1.22887 -0.97881)
(9.78306 -6.82305 19.1563)
(4.19076 -3.29862 -0.792349)
(1.49333 -2.92571 2.73331)
(-2.45562 -1.42594 -6.45817)
(4.74519 -2.291 -0.695308)
(8.90361 -6.88402 18.0766)
(3.22232 -1.09384 -4.88893)
(1.51173 1.64349 2.70464)
(6.93768 -0.605594 38.9228)
(3.2997 0.966922 -4.98751)
(2.90845 3.02266 2.91897)
(3.58473 0.370837 -7.26493)
(2.96449 6.53415 -6.65546)
(2.71569 9.3627 5.79713)
(0.361594 3.01557 -6.62742)
(1.96529 3.9474 9.83827)
)
;
    }
}


// ************************************************************************* //
