/*--------------------------------*- C++ -*----------------------------------*\
| =========                 |                                                 |
| \\      /  F ield         | OpenFOAM: The Open Source CFD Toolbox           |
|  \\    /   O peration     | Version:  2.4.0                                 |
|   \\  /    A nd           | Web:      www.OpenFOAM.org                      |
|    \\/     M anipulation  |                                                 |
\*---------------------------------------------------------------------------*/
FoamFile
{
    version     2.0;
    format      ascii;
    class       volScalarField;
    location    "0.15";
    object      nut;
}
// * * * * * * * * * * * * * * * * * * * * * * * * * * * * * * * * * * * * * //

dimensions      [0 2 -1 0 0 0 0];

internalField   nonuniform List<scalar> 
200
(
9.576e+09
1.23168e+10
7.07864e+09
8.69522e+09
4.15868e+10
1.43048e+10
1.19072e+10
1.32921e+10
1.07512e+10
1.1449e+10
1.62895e+10
1.15223e+10
1.53884e+10
8.65089e+09
8.68907e+09
3.80991e+10
1.01769e+10
2.05247e+10
1.45483e+10
8.737e+09
2.4042e+09
1.70969e+10
9.53338e+09
6.17344e+09
9.98824e+09
7.91034e+09
3.84362e+10
1.72333e+10
1.78659e+10
1.44551e+10
2.18011e+10
3.6046e+09
7.58184e+09
3.59503e+09
1.23983e+10
6.83071e+09
7.60698e+09
1.70271e+10
1.34853e+10
8.03045e+09
5.14931e+09
4.77456e+09
1.43952e+10
1.69524e+10
7.84932e+09
2.90637e+10
9.252e+09
1.57441e+10
5.8202e+09
7.88475e+09
6.15212e+09
1.11987e+10
1.45411e+10
8.0174e+09
1.97775e+10
6.39598e+09
3.70302e+10
1.3394e+10
1.83556e+10
9.9837e+09
9.30834e+09
9.43872e+09
5.98038e+09
1.03176e+10
8.43958e+09
7.57693e+09
1.99446e+10
2.9503e+10
2.71314e+10
1.3355e+10
1.1303e+10
9.66999e+09
4.95805e+09
7.59831e+09
6.58723e+09
5.52062e+09
7.91611e+09
1.2393e+10
1.15451e+10
1.31857e+10
7.6576e+09
9.56051e+09
5.91332e+09
1.46173e+09
1.23064e+10
1.9989e+09
1.00412e+10
6.32172e+09
6.15777e+09
4.4653e+09
6.69187e+09
1.16592e+10
3.46209e+09
3.53559e+10
3.58421e+09
1.58626e+10
4.46783e+09
1.14343e+10
1.05776e+10
7.67202e+09
8.95701e+09
8.62967e+09
4.30297e+10
7.59882e+09
2.18361e+10
9.00144e+09
4.98298e+09
1.6935e+10
9.01305e+09
2.05922e+10
9.29652e+09
1.26723e+10
1.50786e+10
1.18713e+10
1.15792e+10
6.13064e+09
7.62492e+09
8.44431e+09
2.25311e+10
4.36524e+10
3.09419e+09
1.69463e+10
1.36601e+09
3.52075e+10
2.03463e+09
2.00665e+10
6.13113e+09
8.92403e+09
5.49208e+09
8.69905e+09
1.48893e+10
2.59718e+09
9.86599e+10
2.82985e+09
2.82956e+10
5.27883e+09
1.92765e+10
5.12752e+09
1.53026e+10
7.19449e+09
5.51885e+09
8.88598e+10
1.14632e+10
6.11697e+10
1.22514e+10
5.62076e+09
1.19077e+10
1.01543e+10
1.5085e+10
3.23913e+10
2.56592e+10
2.96129e+10
3.95666e+10
2.48842e+10
1.63041e+10
1.2719e+10
7.97601e+09
2.17562e+10
5.28293e+10
6.35391e+10
1.08203e+10
1.44877e+09
4.64829e+10
1.26425e+09
3.49167e+10
4.95621e+09
9.62412e+09
1.04665e+10
9.60053e+09
7.77265e+09
5.69473e+09
7.55071e+10
9.43264e+09
3.10799e+10
6.84494e+09
3.11362e+10
1.36331e+10
6.9639e+09
1.17968e+10
1.49441e+10
5.26753e+10
2.45406e+10
4.06108e+10
1.73038e+10
1.41723e+10
1.78742e+10
8.9723e+09
7.87872e+09
5.53511e+09
7.8072e+09
2.53272e+10
4.00208e+10
3.74457e+10
4.29273e+10
1.50397e+10
1.52913e+10
1.36179e+10
9.33463e+09
1.49563e+10
1.80106e+10
)
;

boundaryField
{
    inlet
    {
        type            calculated;
        value           nonuniform 0();
    }
    outlet
    {
        type            calculated;
        value           nonuniform 0();
    }
    bottom
    {
        type            calculated;
        value           nonuniform List<scalar> 
40
(
1.39159e-14
2.18868e-14
5.67088e-15
3.65623e-14
1.71062e-14
1.37877e-14
1.82793e-14
2.62784e-15
9.68564e-15
1.64411e-14
1.07017e-14
7.68631e-15
1.31708e-14
1.0961e-14
6.92765e-15
2.79836e-15
3.50172e-14
6.88174e-15
1.11966e-14
9.63774e-15
4.61196e-14
3.00264e-14
4.53002e-15
9.46878e-15
4.75311e-15
4.25002e-14
2.7069e-14
6.19179e-15
4.42333e-14
4.6944e-15
6.79439e-14
1.43448e-14
3.282e-15
4.22797e-14
8.64755e-15
1.66132e-14
3.09902e-14
3.21666e-15
2.35221e-14
8.99621e-15
)
;
    }
    top
    {
        type            symmetryPlane;
    }
    side1
    {
        type            symmetryPlane;
    }
    side2
    {
        type            symmetryPlane;
    }
    procBoundary26to18
    {
        type            processor;
        value           nonuniform List<scalar> 
50
(
1.02033e+10
7.39652e+09
9.24451e+09
3.38247e+10
1.23273e+10
1.89755e+10
1.33844e+10
1.20471e+10
8.9801e+09
7.76224e+09
4.43752e+09
6.05046e+09
4.10149e+09
7.31101e+09
2.39223e+10
1.32289e+10
9.24431e+09
5.63653e+09
6.60206e+09
5.62529e+09
4.74449e+09
5.49508e+09
3.50245e+09
5.73912e+09
2.66988e+09
7.38945e+09
3.54472e+09
4.99912e+09
3.17007e+09
4.01314e+09
4.23231e+09
2.35095e+09
1.54222e+10
4.01452e+09
6.3869e+09
3.18353e+09
5.46339e+09
3.31699e+09
4.50754e+09
2.78032e+09
8.71231e+09
6.89886e+09
2.66248e+09
1.04882e+10
4.46824e+09
5.61303e+09
6.87093e+09
6.59622e+09
6.66168e+09
5.67436e+09
)
;
    }
    procBoundary26to25
    {
        type            processor;
        value           nonuniform List<scalar> 
20
(
1.38899e+10
1.13087e+10
1.69588e+10
4.26446e+10
2.87245e+09
6.7836e+09
8.66426e+09
1.80153e+10
6.61885e+09
5.48792e+09
6.29702e+09
1.31112e+10
6.86133e+09
3.66161e+09
1.32141e+10
1.49722e+10
7.20199e+09
1.23401e+10
3.46609e+09
2.62618e+10
)
;
    }
    procBoundary26to27
    {
        type            processor;
        value           nonuniform List<scalar> 
20
(
6.01601e+09
1.216e+10
4.53058e+09
8.46059e+09
6.93482e+09
6.25907e+09
7.80043e+09
2.32567e+10
4.95442e+09
9.65483e+09
1.55727e+10
4.19298e+10
2.59442e+09
7.53122e+09
1.09833e+10
6.71332e+10
6.43128e+09
5.47272e+09
1.75634e+10
1.50351e+10
)
;
    }
}


// ************************************************************************* //
