/*--------------------------------*- C++ -*----------------------------------*\
| =========                 |                                                 |
| \\      /  F ield         | OpenFOAM: The Open Source CFD Toolbox           |
|  \\    /   O peration     | Version:  2.4.0                                 |
|   \\  /    A nd           | Web:      www.OpenFOAM.org                      |
|    \\/     M anipulation  |                                                 |
\*---------------------------------------------------------------------------*/
FoamFile
{
    version     2.0;
    format      ascii;
    class       volVectorField;
    location    "0.15";
    object      Ub;
}
// * * * * * * * * * * * * * * * * * * * * * * * * * * * * * * * * * * * * * //

dimensions      [0 1 -1 0 0 0 0];

internalField   nonuniform List<vector> 
200
(
(-4.66398e+14 2.90362e+14 -1.17672e+13)
(-4.312e+14 1.87757e+14 -1.14272e+14)
(-4.44325e+14 1.03704e+14 -2.12009e+13)
(-3.26859e+14 2.73836e+14 8.46174e+12)
(-3.60934e+14 9.58877e+13 -1.03928e+13)
(-7.6073e+14 -7.28011e+14 -4.9052e+14)
(-2.3378e+14 6.74181e+13 2.49109e+14)
(-5.95229e+14 -4.93023e+14 -4.97931e+14)
(-1.72719e+14 5.00371e+13 1.62887e+14)
(-3.90325e+14 -3.3167e+14 -3.29172e+14)
(-5.27078e+14 2.05587e+14 -1.20997e+14)
(-4.45393e+14 2.57854e+14 6.26061e+12)
(-4.11487e+14 1.6805e+14 -6.24244e+13)
(-4.01224e+14 -1.0954e+14 -3.48793e+13)
(-2.14678e+14 1.73468e+14 6.95213e+13)
(-3.36246e+14 6.81529e+13 8.27864e+13)
(-6.30962e+14 -4.98423e+14 -5.2044e+14)
(-2.15118e+14 1.07371e+14 2.07891e+14)
(-4.44898e+14 -4.5951e+14 -4.74036e+14)
(-1.49344e+14 1.72953e+13 7.4143e+13)
(-5.17359e+14 6.94081e+13 7.43192e+13)
(-4.87014e+14 1.80575e+13 -3.16515e+13)
(-2.87024e+14 4.98964e+13 -8.53426e+13)
(-3.03101e+14 2.55838e+13 1.01487e+13)
(-2.8942e+14 -5.90521e+13 -3.64624e+13)
(-2.41398e+14 2.60079e+13 2.96362e+13)
(-2.05658e+14 1.25029e+14 2.28812e+14)
(-5.49396e+14 -6.91102e+14 -7.71282e+14)
(-1.68118e+14 3.42117e+13 6.56241e+13)
(-3.60294e+14 -2.27897e+14 -1.7445e+14)
(-2.14287e+14 2.77854e+14 -3.91878e+14)
(-1.41759e+14 -1.05381e+13 1.04878e+14)
(-1.60639e+14 1.31564e+13 -4.54563e+13)
(-1.21688e+14 -6.15499e+13 6.20255e+13)
(-2.21266e+14 -3.96424e+13 6.92502e+13)
(-2.21372e+14 -5.06801e+12 -7.24722e+13)
(-1.62422e+14 -5.45771e+13 9.25434e+12)
(-2.15129e+14 4.01788e+13 -3.26442e+13)
(-3.20414e+14 -1.61352e+14 -9.99595e+13)
(-2.94717e+14 1.41458e+13 -7.16338e+13)
(-4.59704e+14 2.3967e+14 -1.38108e+14)
(-3.7518e+14 2.54185e+14 -1.4659e+14)
(-4.59956e+14 1.35422e+14 -1.56514e+14)
(-2.91692e+14 -1.36287e+14 6.50707e+13)
(-2.34613e+14 1.82071e+14 3.92775e+13)
(-3.1248e+14 1.17266e+14 -5.51741e+13)
(-6.09721e+14 -4.36081e+14 -4.5791e+14)
(-1.71333e+14 1.43122e+14 8.2336e+13)
(-4.51847e+14 -3.41828e+14 -4.50269e+14)
(-1.59128e+14 5.5341e+13 7.25587e+13)
(-4.88572e+14 3.0702e+14 -8.48982e+13)
(-4.71244e+14 2.15999e+14 -1.36089e+14)
(-3.94732e+14 9.14162e+13 -2.00075e+14)
(-2.45876e+14 -2.31616e+14 1.58336e+13)
(-3.53884e+14 3.00835e+14 6.36764e+12)
(-2.23725e+14 1.55489e+14 -5.79183e+13)
(-2.13855e+14 1.1217e+14 4.70075e+13)
(-6.21426e+14 -7.85955e+14 -7.91498e+14)
(-1.25621e+14 4.34314e+13 1.01755e+14)
(-3.77258e+14 -2.61286e+14 -3.44646e+14)
(-5.80718e+14 1.07162e+14 -7.46933e+13)
(-4.06465e+14 1.52727e+14 -1.43033e+14)
(-4.59777e+14 1.00041e+14 -6.29596e+13)
(-3.66032e+14 7.62282e+13 -1.16867e+14)
(-3.0261e+14 6.93853e+12 -5.97677e+13)
(-2.84454e+14 1.29042e+14 -7.76686e+13)
(-1.58533e+14 1.2617e+14 -1.06763e+14)
(1.51722e+13 -2.51174e+13 5.57381e+14)
(-5.34366e+14 -5.66268e+14 -5.85356e+14)
(-1.72085e+14 -3.93288e+13 -2.26161e+13)
(-5.75116e+14 2.04305e+14 7.09739e+13)
(-4.60413e+14 -1.42916e+13 9.20427e+13)
(-4.03304e+14 7.37443e+13 2.5002e+13)
(-3.71898e+14 -1.06028e+13 1.01615e+14)
(-3.31888e+14 5.99301e+13 -4.58252e+13)
(-2.87763e+14 -3.35464e+12 -2.29845e+13)
(-2.5647e+14 7.05716e+12 -1.11669e+14)
(-2.14224e+14 -5.30897e+13 -1.30358e+14)
(-2.83621e+14 3.28354e+12 -1.55643e+14)
(-3.17622e+14 -1.04376e+14 -2.16945e+14)
(-1.53996e+14 3.28956e+14 -1.64455e+14)
(-3.96129e+14 1.781e+14 -2.09499e+14)
(-2.34827e+14 2.01877e+14 -9.94904e+13)
(-3.29171e+14 9.79446e+13 -2.69408e+14)
(-2.20991e+14 1.53797e+14 -1.27041e+14)
(-1.97828e+14 1.16559e+14 -2.10148e+14)
(-1.91654e+14 1.82367e+14 -1.46754e+14)
(-3.11659e+14 4.36833e+13 -2.14692e+14)
(-2.10848e+14 1.3952e+14 -9.0717e+12)
(-3.48553e+14 -4.55563e+12 -1.41582e+14)
(-5.09105e+14 2.60756e+14 -1.76059e+14)
(-2.89169e+14 3.04235e+14 -2.93379e+14)
(-4.78279e+14 1.51634e+14 -3.94498e+14)
(-2.28412e+14 2.8852e+14 -1.99078e+14)
(-1.19774e+14 -1.02558e+14 -3.16878e+14)
(-1.64677e+14 1.82256e+14 -1.14874e+14)
(-1.29691e+14 1.45556e+14 -1.50639e+14)
(-1.43974e+14 1.34681e+14 -9.73692e+13)
(-2.59035e+14 -1.3397e+13 -2.62905e+14)
(-1.48677e+14 1.11857e+14 -1.90812e+13)
(-5.26812e+14 2.15962e+14 -1.17153e+14)
(-5.10578e+14 1.43462e+14 -1.28427e+14)
(-3.39118e+14 2.43337e+14 -1.68106e+14)
(-2.20542e+14 -6.93881e+14 -5.39592e+14)
(-2.67929e+14 3.26004e+14 -2.50219e+13)
(-1.97308e+14 7.12996e+13 -1.36758e+14)
(-2.40343e+14 1.50326e+14 -1.25926e+14)
(-1.8389e+14 1.08549e+14 -1.828e+14)
(-6.78926e+13 -1.62994e+13 6.19709e+11)
(-1.41845e+14 -8.72658e+13 -2.84359e+14)
(-4.38762e+14 5.16103e+13 -9.16806e+13)
(-4.36357e+14 1.55058e+14 -3.12057e+13)
(-3.37219e+14 8.21273e+13 6.9978e+13)
(-3.69939e+14 1.46827e+14 -3.66024e+13)
(-3.99237e+14 -2.59735e+13 -5.84649e+13)
(-3.44311e+14 9.55594e+13 -8.44797e+13)
(-3.02537e+14 4.19307e+13 -9.09617e+13)
(-3.08478e+14 4.0199e+13 -1.53583e+14)
(-2.64824e+14 -2.24422e+13 -2.53475e+14)
(-2.92299e+14 -2.9777e+14 -6.04335e+14)
(-3.72305e+14 4.18684e+14 -9.05868e+13)
(-1.41245e+14 2.07965e+14 -7.28843e+12)
(-4.07898e+14 1.64303e+14 -2.28292e+14)
(-7.05643e+13 2.32903e+14 6.33993e+13)
(-1.82028e+14 1.17857e+14 -2.88214e+14)
(-4.06025e+13 3.2048e+14 1.31084e+14)
(-1.57282e+14 1.72191e+14 -1.92289e+14)
(-1.39196e+14 2.4573e+14 -1.56995e+13)
(-2.34582e+14 1.01234e+14 -2.888e+13)
(-2.14693e+14 1.45933e+14 -9.07496e+13)
(-2.41754e+14 2.92639e+14 -1.3668e+14)
(-6.49104e+14 3.46281e+14 -3.02806e+14)
(-1.70363e+14 5.26599e+14 -5.74551e+13)
(-8.02538e+13 -8.02829e+14 -6.27764e+14)
(-1.35771e+14 4.83263e+14 6.74005e+13)
(-4.89685e+13 -2.38596e+14 -3.75264e+14)
(-1.21224e+14 3.07393e+14 -3.77021e+13)
(-1.4726e+14 2.06672e+14 -1.40749e+14)
(-1.70796e+14 2.50669e+14 -8.55687e+13)
(-3.44361e+14 -1.17347e+13 1.9108e+14)
(-4.76036e+14 4.04179e+14 -5.80665e+13)
(-2.21172e+14 4.39138e+14 -2.45077e+14)
(-3.22282e+14 -2.29654e+15 -1.42193e+15)
(-2.22856e+14 4.56518e+14 1.25115e+14)
(-4.04121e+14 -3.39287e+14 -2.15766e+14)
(-2.28209e+14 3.83729e+14 -3.76219e+12)
(-2.56921e+14 1.32544e+14 -1.01622e+14)
(-2.48653e+14 2.09248e+14 -1.11276e+14)
(1.90241e+13 5.07545e+14 -2.93917e+14)
(-1.46678e+14 2.10756e+14 6.19812e+13)
(-3.69905e+14 2.25561e+14 5.57214e+13)
(-1.25115e+14 3.20006e+14 2.18132e+14)
(-1.4334e+14 4.94687e+14 -4.62082e+13)
(-4.41957e+14 -5.91889e+14 -2.55128e+14)
(-4.4632e+14 2.53042e+14 2.5222e+13)
(-4.25417e+14 -1.97851e+13 -7.67355e+13)
(-3.30055e+14 1.42572e+14 -5.86922e+13)
(-2.8891e+14 4.50992e+13 -6.976e+13)
(-4.17959e+14 -1.43926e+14 -4.21865e+14)
(1.30291e+14 1.50031e+15 -1.5819e+15)
(-7.9807e+13 2.71193e+14 6.20225e+13)
(-4.06391e+14 3.93474e+14 -1.36244e+14)
(-2.72008e+12 2.58087e+14 1.31419e+14)
(-2.44832e+14 2.78498e+14 -2.2968e+14)
(1.05839e+14 3.69287e+14 3.05078e+14)
(-1.92948e+14 4.17131e+14 -2.95005e+14)
(1.78443e+13 3.6674e+14 3.24751e+14)
(-2.19301e+14 2.48926e+14 -2.40494e+14)
(-9.75571e+13 2.67021e+14 9.8099e+13)
(-1.98453e+14 5.96614e+13 -3.62088e+13)
(-5.90418e+14 4.76149e+14 -1.69409e+14)
(-7.73201e+13 6.8436e+14 5.27709e+13)
(-3.01194e+14 -8.66798e+14 -6.52778e+14)
(-8.24334e+13 4.78499e+14 1.44237e+14)
(-2.92124e+14 -5.06994e+14 -5.73024e+14)
(-4.08762e+13 5.75058e+14 3.12844e+14)
(-2.54849e+14 2.99123e+14 -2.3024e+14)
(-8.84528e+13 3.53242e+14 1.18286e+14)
(-2.0353e+14 1.65489e+14 -1.5374e+14)
(-2.07861e+14 2.53277e+14 -9.45551e+13)
(-1.21898e+14 3.70438e+14 -7.47955e+13)
(-4.15579e+14 -1.35321e+15 -9.1487e+14)
(-1.39928e+14 4.66001e+14 1.55627e+14)
(-4.98051e+14 -5.22743e+14 -2.8752e+14)
(-2.61163e+14 5.82371e+14 1.18555e+14)
(-4.09993e+14 3.98861e+13 -1.7858e+14)
(-2.34458e+14 3.30031e+14 2.55816e+13)
(-2.54438e+14 1.52714e+14 -7.96312e+13)
(-2.22482e+14 2.97706e+14 -6.20404e+13)
(-2.89733e+14 2.19299e+14 -1.57404e+14)
(3.72694e+13 3.86147e+14 -4.00831e+13)
(4.29867e+13 2.39751e+14 -1.82649e+14)
(-2.1552e+14 -1.08202e+15 -5.62247e+14)
(-4.53486e+14 3.78187e+14 3.63842e+13)
(-5.6399e+14 -2.35649e+14 -1.41392e+14)
(-3.50078e+14 3.185e+14 2.16635e+13)
(-3.61613e+14 4.23339e+13 -4.37867e+13)
(-2.61802e+14 1.63778e+14 -2.06723e+13)
(-2.31145e+14 1.15973e+14 -4.86524e+13)
(-2.81797e+14 1.57354e+14 8.35442e+13)
)
;

boundaryField
{
    inlet
    {
        type            fixedValue;
        value           nonuniform 0();
    }
    outlet
    {
        type            zeroGradient;
    }
    bottom
    {
        type            fixedValue;
        value           uniform (0 0 0);
    }
    top
    {
        type            symmetryPlane;
    }
    side1
    {
        type            symmetryPlane;
    }
    side2
    {
        type            symmetryPlane;
    }
    procBoundary26to18
    {
        type            processor;
        value           nonuniform List<vector> 
50
(
(-4.10085e+14 1.71921e+14 -1.39629e+14)
(-4.39354e+14 1.91897e+14 -1.30041e+13)
(-3.92368e+14 2.15401e+14 -7.90123e+13)
(-3.75546e+14 1.20559e+14 -3.39838e+13)
(-7.21868e+14 -6.08045e+14 -2.88752e+14)
(-2.17343e+14 -6.43734e+12 3.63393e+14)
(-6.07366e+14 -4.5947e+14 -3.58075e+14)
(-1.96514e+14 4.11941e+13 1.83996e+14)
(-4.30884e+14 -3.20345e+14 -3.27565e+14)
(-1.50587e+14 -4.40182e+12 1.16238e+14)
(-3.41424e+14 2.85161e+14 -3.85349e+13)
(-4.00865e+14 1.70908e+14 -1.29049e+14)
(-3.64234e+14 1.42782e+14 -5.35701e+13)
(-3.35948e+14 1.65994e+14 -2.55193e+13)
(-3.11582e+14 1.2617e+14 -1.05763e+14)
(-6.14309e+14 -4.07226e+14 -3.52014e+14)
(-1.57054e+14 1.43408e+14 1.68261e+14)
(-4.64718e+14 -2.29504e+14 -3.11279e+14)
(-1.6668e+14 8.82986e+13 8.25102e+13)
(-3.55818e+14 -1.47201e+14 -2.58827e+14)
(-2.91078e+14 2.37589e+14 -1.12422e+14)
(-2.15613e+14 2.75574e+14 -3.12099e+13)
(-2.92438e+14 1.80946e+14 -1.89619e+14)
(-2.11725e+14 1.79719e+14 -3.46768e+13)
(-2.63694e+14 1.17864e+14 -2.10051e+14)
(-2.17582e+14 2.11695e+14 -7.41248e+13)
(-2.89914e+14 8.81631e+13 -2.08738e+14)
(-2.14762e+14 1.26122e+14 -9.52252e+12)
(-2.94042e+14 5.96346e+13 -1.61829e+14)
(-1.92055e+14 1.088e+14 -3.57772e+13)
(-1.62382e+14 2.81717e+14 1.67428e+13)
(-2.41921e+14 4.46649e+14 -7.77115e+13)
(-1.1594e+14 2.17039e+14 3.13142e+13)
(-2.49286e+14 2.5282e+14 -1.8246e+14)
(-6.68066e+13 2.54742e+14 1.70188e+14)
(-2.40334e+14 2.28623e+14 -2.13791e+14)
(-1.27858e+14 2.58567e+14 9.67543e+13)
(-2.1284e+14 1.35536e+14 -1.40357e+14)
(-1.63667e+14 1.94949e+14 -1.84176e+13)
(-2.07693e+14 7.09416e+13 -1.25729e+14)
(-1.61478e+14 3.97416e+14 -1.03652e+14)
(-6.57283e+13 2.5417e+14 5.50111e+13)
(-1.58194e+14 4.3622e+14 -1.25699e+14)
(4.3039e+13 1.46658e+14 1.06405e+14)
(-1.96112e+14 4.011e+14 -1.84758e+14)
(5.96336e+13 2.26085e+14 2.84555e+14)
(-2.29526e+14 3.13574e+14 -2.40683e+14)
(-4.92498e+13 2.74436e+14 2.08925e+14)
(-1.91202e+14 1.52804e+14 -1.56743e+14)
(-1.16958e+14 2.45144e+14 3.64766e+13)
)
;
    }
    procBoundary26to25
    {
        type            processor;
        value           nonuniform List<vector> 
20
(
(-4.7527e+14 2.26234e+14 -1.57861e+14)
(-5.70029e+14 3.11014e+14 3.77319e+13)
(-5.56648e+14 2.31754e+14 -2.77423e+14)
(-1.29486e+14 8.74096e+13 6.80413e+13)
(-4.10894e+14 3.23773e+14 -7.09573e+13)
(-5.37958e+14 2.56422e+14 -1.87657e+14)
(-6.47132e+14 3.09889e+14 -6.82649e+13)
(-5.18355e+14 1.57664e+14 -1.63411e+14)
(-3.72567e+14 3.12917e+14 -1.23432e+14)
(-3.94635e+14 2.77287e+14 -1.17109e+14)
(-5.74996e+14 1.51962e+14 -2.25934e+14)
(-5.73284e+14 2.55577e+14 -9.36095e+13)
(-1.48593e+14 2.79837e+14 -2.37436e+13)
(-4.96797e+14 4.01029e+14 -1.59393e+14)
(-3.36967e+14 3.03558e+14 2.53569e+13)
(-4.31532e+14 7.68353e+13 -1.11988e+14)
(-2.86222e+14 3.73689e+14 -4.57246e+13)
(-1.60999e+14 3.18669e+14 1.72936e+13)
(-3.32969e+14 4.311e+14 -8.44504e+13)
(-1.32815e+14 2.71984e+14 3.1249e+12)
)
;
    }
    procBoundary26to27
    {
        type            processor;
        value           nonuniform List<vector> 
20
(
(-1.49839e+14 -2.4497e+13 5.96928e+13)
(-3.35887e+14 -2.13941e+14 -1.60226e+14)
(-2.23119e+14 -1.62701e+13 -2.02168e+13)
(-3.18483e+14 -8.24024e+13 -7.79775e+13)
(-3.61606e+14 -1.55721e+14 -2.1841e+14)
(-1.83382e+14 9.92487e+12 -6.87881e+12)
(-2.91016e+14 -1.77943e+14 -2.08272e+14)
(-2.55831e+14 -5.93788e+13 -2.3881e+14)
(-2.02516e+14 9.32045e+13 -4.30015e+13)
(-3.17147e+14 -1.03727e+14 -8.04471e+13)
(-1.28809e+14 -2.95303e+13 -9.77426e+13)
(-7.75681e+13 9.6929e+14 -1.07587e+15)
(-2.75358e+14 5.6558e+13 -5.59505e+13)
(-2.28838e+14 1.27678e+14 -9.33951e+13)
(-3.35711e+14 -5.88555e+13 1.25723e+14)
(-1.8476e+14 1.22872e+14 2.04339e+14)
(-1.69359e+14 2.22806e+14 -5.13931e+13)
(-2.64172e+14 -2.68289e+13 1.93963e+14)
(-2.57424e+14 2.2005e+14 -1.10909e+14)
(-3.08293e+14 1.33504e+14 -7.67017e+13)
)
;
    }
}


// ************************************************************************* //
