/*--------------------------------*- C++ -*----------------------------------*\
| =========                 |                                                 |
| \\      /  F ield         | OpenFOAM: The Open Source CFD Toolbox           |
|  \\    /   O peration     | Version:  2.4.0                                 |
|   \\  /    A nd           | Web:      www.OpenFOAM.org                      |
|    \\/     M anipulation  |                                                 |
\*---------------------------------------------------------------------------*/
FoamFile
{
    version     2.0;
    format      ascii;
    class       labelField;
    location    "0.06/lagrangian/defaultCloud";
    object      origProcId;
}
// * * * * * * * * * * * * * * * * * * * * * * * * * * * * * * * * * * * * * //


91
(
0
0
0
0
0
0
0
0
0
0
0
0
0
0
0
0
0
0
4
0
0
0
4
0
0
0
4
4
0
4
4
0
0
4
4
0
0
4
4
4
0
4
0
0
4
4
4
4
4
0
4
8
8
8
4
4
4
4
4
8
8
4
4
8
4
8
8
8
4
4
4
8
8
8
4
8
8
8
8
8
8
8
8
8
8
8
4
8
8
8
8
)


// ************************************************************************* //
