/*--------------------------------*- C++ -*----------------------------------*\
| =========                 |                                                 |
| \\      /  F ield         | OpenFOAM: The Open Source CFD Toolbox           |
|  \\    /   O peration     | Version:  2.4.0                                 |
|   \\  /    A nd           | Web:      www.OpenFOAM.org                      |
|    \\/     M anipulation  |                                                 |
\*---------------------------------------------------------------------------*/
FoamFile
{
    version     2.0;
    format      ascii;
    class       labelField;
    location    "0.06/lagrangian/defaultCloud";
    object      origId;
}
// * * * * * * * * * * * * * * * * * * * * * * * * * * * * * * * * * * * * * //


91
(
8
3
5
11
14
17
18
12
1
26
30
24
21
19
9
2
22
4
6
16
13
0
5
28
32
25
0
15
20
17
2
7
29
20
12
31
33
8
7
1
6
10
23
15
16
30
27
26
4
34
9
2
20
8
29
28
18
31
33
0
6
3
32
3
25
16
9
13
14
34
22
18
17
5
11
4
15
1
23
14
26
7
11
22
19
24
23
28
27
29
25
)


// ************************************************************************* //
