/*--------------------------------*- C++ -*----------------------------------*\
| =========                 |                                                 |
| \\      /  F ield         | OpenFOAM: The Open Source CFD Toolbox           |
|  \\    /   O peration     | Version:  2.4.0                                 |
|   \\  /    A nd           | Web:      www.OpenFOAM.org                      |
|    \\/     M anipulation  |                                                 |
\*---------------------------------------------------------------------------*/
FoamFile
{
    version     2.0;
    format      ascii;
    class       surfaceScalarField;
    location    "0.01";
    object      phia;
}
// * * * * * * * * * * * * * * * * * * * * * * * * * * * * * * * * * * * * * //

dimensions      [0 3 -1 0 0 0 0];

internalField   nonuniform List<scalar> 
490
(
2.0026e-06
8.23865e-09
1.97968e-09
2.00251e-06
8.23551e-09
1.97256e-09
2.00239e-06
8.23077e-09
1.96267e-09
2.00218e-06
8.22319e-09
1.94778e-09
2.00181e-06
8.20999e-09
1.92298e-09
2.00084e-06
8.18302e-09
1.87382e-09
1.98143e-06
8.104e-09
1.7319e-09
1.97954e-06
6.08236e-09
-1.89879e-09
1.98916e-06
8.28105e-09
-6.18529e-10
1.97606e-08
-2.53198e-09
2.00258e-06
8.23864e-09
1.97799e-09
2.00249e-06
8.23524e-09
1.97055e-09
2.00236e-06
8.23015e-09
1.9602e-09
2.00214e-06
8.22211e-09
1.94463e-09
2.00175e-06
8.20819e-09
1.91872e-09
2.00074e-06
8.17993e-09
1.86744e-09
1.98151e-06
8.09763e-09
1.71986e-09
1.97961e-06
6.09912e-09
-1.88005e-09
1.98908e-06
8.30272e-09
-6.27536e-10
1.97714e-08
-2.50744e-09
2.00256e-06
8.2242e-09
1.97641e-09
2.00247e-06
8.22108e-09
1.96864e-09
2.00233e-06
8.2162e-09
1.95784e-09
2.00211e-06
8.20822e-09
1.9416e-09
2.00169e-06
8.19412e-09
1.91457e-09
2.00064e-06
8.16508e-09
1.8611e-09
1.98158e-06
8.08e-09
1.7076e-09
1.97967e-06
6.10738e-09
-1.86148e-09
1.989e-06
8.31343e-09
-6.36509e-10
1.97565e-08
-2.48273e-09
2.00254e-06
1.97477e-09
2.00244e-06
1.96669e-09
2.0023e-06
1.95544e-09
2.00207e-06
1.93853e-09
2.00164e-06
1.91038e-09
2.00055e-06
1.8547e-09
1.98165e-06
1.69513e-09
1.97973e-06
-1.84307e-09
1.98892e-06
-6.45434e-10
-2.4579e-09
2.00258e-06
8.23639e-09
1.97793e-09
2.00249e-06
8.23306e-09
1.97046e-09
2.00236e-06
8.22804e-09
1.96008e-09
2.00214e-06
8.22003e-09
1.94443e-09
2.00174e-06
8.20611e-09
1.91836e-09
2.00072e-06
8.17773e-09
1.86665e-09
1.98151e-06
8.09485e-09
1.71757e-09
1.97961e-06
6.09911e-09
-1.87909e-09
1.98906e-06
8.30617e-09
-6.28398e-10
1.97879e-08
-2.50217e-09
2.00256e-06
8.2365e-09
1.97631e-09
2.00247e-06
8.2329e-09
1.96852e-09
2.00233e-06
8.22755e-09
1.95769e-09
2.0021e-06
8.21909e-09
1.94138e-09
2.00169e-06
8.20447e-09
1.91422e-09
2.00063e-06
8.17482e-09
1.86043e-09
1.98158e-06
8.08878e-09
1.70589e-09
1.97967e-06
6.11563e-09
-1.86077e-09
1.98899e-06
8.32734e-09
-6.37133e-10
1.97967e-08
-2.4785e-09
2.00254e-06
8.22163e-09
1.97476e-09
2.00244e-06
8.21832e-09
1.96666e-09
2.0023e-06
8.21317e-09
1.95538e-09
2.00207e-06
8.20479e-09
1.93841e-09
2.00164e-06
8.19e-09
1.91015e-09
2.00054e-06
8.15961e-09
1.85422e-09
1.98165e-06
8.07088e-09
1.69391e-09
1.97974e-06
6.12327e-09
-1.84259e-09
1.98891e-06
8.3371e-09
-6.4586e-10
1.9779e-08
-2.45457e-09
2.00253e-06
1.97316e-09
2.00242e-06
1.96474e-09
2.00227e-06
1.95303e-09
2.00203e-06
1.93539e-09
2.00158e-06
1.90603e-09
2.00044e-06
1.84793e-09
1.98172e-06
1.68168e-09
1.9798e-06
-1.82454e-09
1.98884e-06
-6.5456e-10
-2.43043e-09
2.00256e-06
8.23415e-09
1.97622e-09
2.00246e-06
8.23062e-09
1.9684e-09
2.00232e-06
8.22533e-09
1.95753e-09
2.0021e-06
8.2169e-09
1.94114e-09
2.00168e-06
8.20227e-09
1.9138e-09
2.00061e-06
8.17249e-09
1.85955e-09
1.98158e-06
8.08578e-09
1.70335e-09
1.97968e-06
6.11573e-09
-1.85972e-09
1.98897e-06
8.3313e-09
-6.38085e-10
1.98143e-08
-2.47291e-09
2.00254e-06
8.23438e-09
1.97466e-09
2.00244e-06
8.23059e-09
1.96653e-09
2.0023e-06
8.22496e-09
1.95521e-09
2.00206e-06
8.21608e-09
1.93817e-09
2.00163e-06
8.20077e-09
1.90976e-09
2.00052e-06
8.16975e-09
1.85349e-09
1.98165e-06
8.07999e-09
1.692e-09
1.97974e-06
6.13202e-09
-1.8418e-09
1.9889e-06
8.35198e-09
-6.46555e-10
1.98213e-08
-2.4501e-09
2.00253e-06
8.21907e-09
1.97315e-09
2.00242e-06
8.21557e-09
1.96471e-09
2.00227e-06
8.21016e-09
1.95296e-09
2.00203e-06
8.20137e-09
1.93527e-09
2.00158e-06
8.1859e-09
1.90578e-09
2.00043e-06
8.15416e-09
1.8474e-09
1.98172e-06
8.06182e-09
1.6803e-09
1.9798e-06
6.13904e-09
-1.82399e-09
1.98883e-06
8.36079e-09
-6.55041e-10
1.98007e-08
-2.42691e-09
2.00251e-06
1.97157e-09
2.0024e-06
1.96282e-09
2.00224e-06
1.95064e-09
2.00199e-06
1.93229e-09
2.00152e-06
1.90171e-09
2.00034e-06
1.8412e-09
1.98179e-06
1.66831e-09
1.97986e-06
-1.8063e-09
1.98875e-06
-6.63521e-10
-2.40346e-09
2.00254e-06
8.23193e-09
1.96999e-09
2.00244e-06
8.22821e-09
1.96202e-09
2.00229e-06
8.22264e-09
1.95085e-09
2.00206e-06
8.2138e-09
1.93391e-09
2.00162e-06
8.19846e-09
1.90553e-09
2.00051e-06
8.16729e-09
1.84903e-09
1.98165e-06
8.0768e-09
1.6862e-09
1.97975e-06
6.1322e-09
-1.83735e-09
1.98888e-06
8.3564e-09
-6.46387e-10
1.98398e-08
-2.43982e-09
2.00252e-06
8.23226e-09
1.96834e-09
2.00242e-06
8.22829e-09
1.96006e-09
2.00227e-06
8.2224e-09
1.94846e-09
2.00202e-06
8.21311e-09
1.93088e-09
2.00157e-06
8.1971e-09
1.90146e-09
2.00042e-06
8.16472e-09
1.84298e-09
1.98172e-06
8.07128e-09
1.67507e-09
1.97981e-06
6.14828e-09
-1.81971e-09
1.98881e-06
8.37659e-09
-6.54529e-10
1.9845e-08
-2.41767e-09
2.00251e-06
8.21652e-09
1.96672e-09
2.0024e-06
8.21284e-09
1.95813e-09
2.00224e-06
8.20717e-09
1.9461e-09
2.00199e-06
8.19798e-09
1.92789e-09
2.00152e-06
8.18183e-09
1.8974e-09
2.00033e-06
8.14876e-09
1.83687e-09
1.98179e-06
8.05284e-09
1.66353e-09
1.97987e-06
6.15467e-09
-1.80215e-09
1.98874e-06
8.38445e-09
-6.62711e-10
1.98216e-08
-2.39506e-09
2.00249e-06
1.96503e-09
2.00238e-06
1.95613e-09
2.00221e-06
1.94367e-09
2.00195e-06
1.92481e-09
2.00147e-06
1.89325e-09
2.00024e-06
1.83063e-09
1.98186e-06
1.65165e-09
1.97992e-06
-1.78468e-09
1.98866e-06
-6.70904e-10
-2.37212e-09
2.00252e-06
8.22971e-09
2.00242e-06
8.2258e-09
2.00226e-06
8.21997e-09
2.00202e-06
8.21071e-09
2.00156e-06
8.19468e-09
2.0004e-06
8.16212e-09
1.98172e-06
8.06788e-09
1.97982e-06
6.14856e-09
1.98879e-06
8.38152e-09
1.98645e-08
2.00251e-06
8.23016e-09
2.0024e-06
8.226e-09
2.00224e-06
8.21985e-09
2.00198e-06
8.21015e-09
2.00151e-06
8.19346e-09
2.00031e-06
8.15972e-09
1.98179e-06
8.06264e-09
1.97987e-06
6.16441e-09
1.98872e-06
8.40122e-09
1.98679e-08
2.00249e-06
8.21398e-09
2.00238e-06
8.21012e-09
2.00221e-06
8.20419e-09
2.00195e-06
8.1946e-09
2.00146e-06
8.17778e-09
2.00023e-06
8.14338e-09
1.98186e-06
8.04392e-09
1.97993e-06
6.1702e-09
1.98865e-06
8.40813e-09
1.98417e-08
2.00247e-06
2.00235e-06
2.00218e-06
2.00191e-06
2.00141e-06
2.00014e-06
1.98192e-06
1.97998e-06
1.98858e-06
)
;

boundaryField
{
    inlet
    {
        type            calculated;
        value           uniform 0;
    }
    outlet
    {
        type            calculated;
        value           nonuniform 0();
    }
    bottom
    {
        type            calculated;
        value           uniform 0;
    }
    top
    {
        type            symmetryPlane;
        value           uniform 0;
    }
    side1
    {
        type            symmetryPlane;
        value           nonuniform 0();
    }
    side2
    {
        type            symmetryPlane;
        value           uniform 0;
    }
    procBoundary24to16
    {
        type            processor;
        value           nonuniform List<scalar> 
50
(
-8.23829e-09
-8.23544e-09
-8.23104e-09
-8.22391e-09
-8.21135e-09
-8.18544e-09
-8.10886e-09
-6.06711e-09
-8.26501e-09
-1.9782e-08
-8.23588e-09
-8.23283e-09
-8.22814e-09
-8.22057e-09
-8.20726e-09
-8.17988e-09
-8.09919e-09
-6.08435e-09
-8.29159e-09
-1.9814e-08
-8.23348e-09
-8.23023e-09
-8.22526e-09
-8.21725e-09
-8.20321e-09
-8.17436e-09
-8.08959e-09
-6.10147e-09
-8.31822e-09
-1.9845e-08
-8.23111e-09
-8.22765e-09
-8.2224e-09
-8.21396e-09
-8.19918e-09
-8.16888e-09
-8.08008e-09
-6.11845e-09
-8.34484e-09
-1.98751e-08
-8.22874e-09
-8.22508e-09
-8.21955e-09
-8.21068e-09
-8.19518e-09
-8.16343e-09
-8.07064e-09
-6.1353e-09
-8.37151e-09
-1.99042e-08
)
;
    }
    procBoundary24to25
    {
        type            processor;
        value           nonuniform List<scalar> 
20
(
1.97198e-06
1.97196e-06
1.97194e-06
1.97191e-06
1.97195e-06
1.97193e-06
1.97191e-06
1.97188e-06
1.97191e-06
1.97189e-06
1.97187e-06
1.97185e-06
1.97188e-06
1.97186e-06
1.97184e-06
1.97182e-06
1.97184e-06
1.97183e-06
1.97181e-06
1.97179e-06
)
;
    }
}


// ************************************************************************* //
