/*--------------------------------*- C++ -*----------------------------------*\
| =========                 |                                                 |
| \\      /  F ield         | OpenFOAM: The Open Source CFD Toolbox           |
|  \\    /   O peration     | Version:  2.4.0                                 |
|   \\  /    A nd           | Web:      www.OpenFOAM.org                      |
|    \\/     M anipulation  |                                                 |
\*---------------------------------------------------------------------------*/
FoamFile
{
    version     2.0;
    format      ascii;
    class       volScalarField;
    location    "0.01";
    object      alpha;
}
// * * * * * * * * * * * * * * * * * * * * * * * * * * * * * * * * * * * * * //

dimensions      [0 0 0 0 0 0 0];

internalField   nonuniform List<scalar> 
40
(
1.16151e-55
1.34198e-57
1.47332e-59
1.53236e-61
1.52283e-63
2.92805e-58
3.26211e-60
3.58989e-62
3.80781e-64
3.87935e-66
7.13378e-61
7.93297e-63
8.79348e-65
9.48711e-67
9.88325e-69
1.66162e-63
1.88324e-65
2.12211e-67
2.33237e-69
2.48153e-71
3.4605e-58
4.26266e-60
4.96528e-62
5.42344e-64
5.61361e-66
9.1365e-61
1.0334e-62
1.17781e-64
1.3005e-66
1.37676e-68
2.34325e-63
2.55791e-65
2.84808e-67
3.13901e-69
3.36438e-71
5.71895e-66
6.25225e-68
6.90854e-70
7.60504e-72
8.21678e-74
)
;

boundaryField
{
    inlet
    {
        type            zeroGradient;
    }
    outlet
    {
        type            zeroGradient;
    }
    bottom
    {
        type            fixedValue;
        value           nonuniform 0();
    }
    top
    {
        type            symmetryPlane;
    }
    side1
    {
        type            symmetryPlane;
    }
    side2
    {
        type            symmetryPlane;
    }
    procBoundary114to50
    {
        type            processor;
        value           nonuniform List<scalar> 
20
(
8.0785e-53
9.60847e-55
1.0793e-56
1.13305e-58
1.12516e-60
2.07165e-55
2.22809e-57
2.43805e-59
2.59354e-61
2.64631e-63
5.16741e-58
5.31454e-60
5.61403e-62
5.92068e-64
6.1047e-66
1.22034e-60
1.25609e-62
1.3033e-64
1.35707e-66
1.3991e-68
)
;
    }
    procBoundary114to98
    {
        type            processor;
        value           nonuniform List<scalar> 10(1.31467e-52 1.35721e-54 1.38933e-56 1.38788e-58 1.34543e-60 4.14156e-55 4.13064e-57 4.10314e-59 4.04693e-61 3.93357e-63);
    }
    procBoundary114to113
    {
        type            processor;
        value           nonuniform List<scalar> 8(2.88541e-53 6.54861e-56 1.48009e-58 3.28061e-61 9.20112e-56 2.02782e-58 4.40729e-61 9.47559e-64);
    }
    procBoundary114to115
    {
        type            processor;
        value           nonuniform List<scalar> 8(3.74432e-66 1.08724e-68 3.00939e-71 7.92453e-74 1.27339e-68 3.94014e-71 1.15788e-73 3.20323e-76);
    }
}


// ************************************************************************* //
