/*--------------------------------*- C++ -*----------------------------------*\
| =========                 |                                                 |
| \\      /  F ield         | OpenFOAM: The Open Source CFD Toolbox           |
|  \\    /   O peration     | Version:  2.4.0                                 |
|   \\  /    A nd           | Web:      www.OpenFOAM.org                      |
|    \\/     M anipulation  |                                                 |
\*---------------------------------------------------------------------------*/
FoamFile
{
    version     2.0;
    format      ascii;
    class       volVectorField;
    location    "0.01";
    object      gradp;
}
// * * * * * * * * * * * * * * * * * * * * * * * * * * * * * * * * * * * * * //

dimensions      [1 -2 -2 0 0 0 0];

internalField   nonuniform List<vector> 
40
(
(2.11565e+21 1.84676e+20 -1.21956e+21)
(2.01052e+21 1.77902e+20 -1.31313e+21)
(2.05703e+21 1.62348e+20 -1.37597e+21)
(1.89632e+21 7.24187e+19 -1.1228e+21)
(1.52197e+21 7.39221e+19 -8.24194e+20)
(2.2021e+21 5.88814e+19 -1.23476e+21)
(1.8354e+21 3.81752e+20 -1.2493e+21)
(1.54731e+21 3.3077e+20 -9.97552e+20)
(1.68479e+21 1.78844e+20 -8.09432e+20)
(1.61716e+21 4.6369e+19 -6.41549e+20)
(2.93656e+21 2.9813e+20 -1.21124e+21)
(2.5543e+21 4.18976e+20 -1.21375e+21)
(1.65121e+21 5.70749e+20 -8.68852e+20)
(1.32752e+21 5.27114e+20 -7.25108e+20)
(1.27512e+21 2.29973e+20 -5.94193e+20)
(2.64133e+21 4.18783e+20 -1.08062e+21)
(2.38064e+21 2.58772e+20 -1.08376e+21)
(1.76359e+21 3.31952e+20 -9.42567e+20)
(1.00324e+21 3.14958e+20 -7.00794e+20)
(6.81976e+20 1.6981e+20 -4.27476e+20)
(1.80321e+21 -9.62848e+19 -4.60254e+20)
(1.46443e+21 2.39029e+20 -5.11897e+20)
(2.12388e+21 6.12822e+20 -6.30909e+20)
(2.96989e+21 6.86012e+20 -4.91005e+20)
(2.5077e+21 2.65669e+20 -2.9542e+20)
(2.3784e+21 -3.06559e+20 -5.90203e+20)
(2.53815e+21 1.7302e+20 -5.45096e+20)
(2.45074e+21 7.30574e+20 -3.70594e+20)
(2.10531e+21 4.68014e+20 -2.62774e+20)
(2.14613e+21 1.03206e+20 -2.3918e+20)
(2.42701e+21 2.92448e+20 -6.88654e+20)
(3.53869e+21 4.40844e+20 -6.42355e+20)
(2.71387e+21 3.04945e+20 -3.81031e+20)
(1.71515e+21 2.98735e+20 -3.10274e+20)
(1.79262e+21 3.06617e+20 -2.59897e+20)
(2.98092e+21 5.70624e+20 -5.93754e+20)
(2.56314e+21 4.36255e+20 -5.31428e+20)
(2.16652e+21 8.28479e+19 -5.36721e+20)
(2.10866e+21 1.62579e+20 -4.05511e+20)
(1.87538e+21 2.79602e+20 -1.91277e+20)
)
;

boundaryField
{
    inlet
    {
        type            zeroGradient;
    }
    outlet
    {
        type            zeroGradient;
    }
    bottom
    {
        type            zeroGradient;
    }
    top
    {
        type            symmetryPlane;
    }
    side1
    {
        type            symmetryPlane;
    }
    side2
    {
        type            symmetryPlane;
    }
    procBoundary114to50
    {
        type            processor;
        value           nonuniform List<vector> 
20
(
(2.05851e+21 -3.96852e+20 -1.65435e+21)
(1.96495e+21 -3.53069e+20 -1.47592e+21)
(1.51482e+21 -4.27075e+20 -1.27395e+21)
(1.2042e+21 -5.26091e+20 -1.08191e+21)
(9.65378e+20 -6.13291e+20 -8.93302e+20)
(2.50884e+21 -3.19869e+20 -1.27174e+21)
(1.7791e+21 1.40043e+19 -1.07929e+21)
(1.04316e+21 -8.08123e+19 -9.44228e+20)
(9.66103e+20 -1.68293e+20 -8.688e+20)
(8.72317e+20 -2.64795e+20 -7.14404e+20)
(3.26338e+21 4.58255e+19 -1.1171e+21)
(2.44307e+21 1.75978e+20 -8.52814e+20)
(1.15023e+21 2.16968e+20 -7.05819e+20)
(8.36239e+20 1.24914e+20 -6.43329e+20)
(7.65176e+20 -3.58998e+19 -5.978e+20)
(3.09199e+21 3.61632e+20 -6.3259e+20)
(2.12138e+21 2.28274e+20 -6.01621e+20)
(9.41033e+20 2.00791e+20 -4.86597e+20)
(4.60366e+20 1.23677e+20 -4.46651e+20)
(3.8612e+20 1.28544e+19 -4.63393e+20)
)
;
    }
    procBoundary114to98
    {
        type            processor;
        value           nonuniform List<vector> 10((2.72514e+21 2.98595e+19 -1.42261e+21) (1.88006e+21 -2.52163e+20 -1.61936e+21) (1.75828e+21 -3.36931e+20 -1.64749e+21) (1.86164e+21 -3.08866e+20 -1.567e+21) (1.60212e+21 -1.80063e+20 -1.1909e+21) (1.13432e+21 3.28928e+20 -4.14602e+20) (1.11994e+21 4.16453e+20 -5.833e+20) (1.55678e+21 3.43025e+20 -6.5214e+20) (2.79962e+21 4.56937e+20 -6.46269e+20) (3.2158e+21 4.58367e+20 -3.59022e+20));
    }
    procBoundary114to113
    {
        type            processor;
        value           nonuniform List<vector> 8((3.05468e+21 4.39421e+20 -1.23335e+21) (2.52971e+21 -2.87042e+19 -1.20854e+21) (2.42297e+21 1.99359e+20 -9.52383e+20) (2.72136e+21 4.06385e+20 -1.04905e+21) (2.3912e+21 -3.83013e+20 -4.14259e+20) (2.43509e+21 -1.38883e+20 -6.00191e+20) (1.36626e+21 1.39587e+20 -4.83121e+20) (2.45483e+21 1.59301e+20 -6.37548e+20));
    }
    procBoundary114to115
    {
        type            processor;
        value           nonuniform List<vector> 8((1.2131e+21 7.99406e+19 -6.40824e+20) (1.14951e+21 5.54187e+19 -4.11366e+20) (1.24266e+21 5.9521e+19 -4.04031e+20) (7.34384e+20 1.83859e+19 -2.354e+20) (1.58524e+21 1.51174e+20 -1.82965e+20) (1.4646e+21 1.10475e+20 -9.7472e+19) (1.64783e+21 1.63361e+20 -1.48555e+20) (1.31138e+21 2.03959e+20 -3.25719e+19));
    }
}


// ************************************************************************* //
