/*--------------------------------*- C++ -*----------------------------------*\
| =========                 |                                                 |
| \\      /  F ield         | OpenFOAM: The Open Source CFD Toolbox           |
|  \\    /   O peration     | Version:  2.4.0                                 |
|   \\  /    A nd           | Web:      www.OpenFOAM.org                      |
|    \\/     M anipulation  |                                                 |
\*---------------------------------------------------------------------------*/
FoamFile
{
    version     2.0;
    format      ascii;
    class       volVectorField;
    location    "0.14";
    object      Ub;
}
// * * * * * * * * * * * * * * * * * * * * * * * * * * * * * * * * * * * * * //

dimensions      [0 1 -1 0 0 0 0];

internalField   nonuniform List<vector> 
200
(
(3.68254e+13 3.11904e+13 -2.5913e+13)
(-1.23292e+14 -1.2053e+14 9.14273e+12)
(2.31695e+13 -6.79136e+12 -1.88271e+13)
(-9.15083e+13 -1.1247e+14 -9.07029e+12)
(1.42173e+13 -2.79796e+13 -1.0608e+13)
(-6.96267e+13 -1.00585e+14 -2.50106e+13)
(6.95362e+12 -3.35643e+13 4.34448e+12)
(-6.29012e+13 -8.99498e+13 -1.91159e+13)
(-6.56913e+12 -2.87331e+13 2.32512e+13)
(-7.14867e+13 -7.07759e+13 9.29925e+12)
(-1.07087e+14 -1.11503e+14 -1.4861e+13)
(4.69391e+12 -1.57945e+13 -1.52613e+13)
(-7.59267e+13 -9.66623e+13 -2.78935e+13)
(-1.41883e+12 -3.59111e+13 -1.52509e+13)
(-5.24132e+13 -8.66811e+13 -4.48504e+13)
(-2.49597e+12 -3.81989e+13 -6.82107e+12)
(-4.23543e+13 -8.45327e+13 -3.78125e+13)
(-6.37949e+12 -3.27184e+13 1.01835e+13)
(-5.05462e+13 -7e+13 -7.84514e+12)
(-2.07692e+13 -2.10101e+13 1.82172e+13)
(9.54334e+12 -2.31793e+13 -2.14446e+12)
(-4.06806e+13 -6.99405e+13 -4.49975e+13)
(7.04675e+12 -3.58605e+13 -1.24166e+13)
(-2.24084e+13 -5.65046e+13 -5.86482e+13)
(5.06398e+12 -3.43329e+13 -1.46169e+13)
(-1.36145e+13 -5.86044e+13 -6.07223e+13)
(3.33441e+12 -2.88385e+13 -3.79115e+12)
(-1.51433e+13 -5.60899e+13 -4.38704e+13)
(-1.90297e+12 -2.3582e+13 7.83023e+12)
(-2.3569e+13 -4.91062e+13 -2.23103e+13)
(-1.30794e+13 -6.61991e+13 -6.42294e+13)
(3.05893e+13 -2.95453e+13 -2.7959e+12)
(-4.19195e+12 -4.62972e+13 -5.0281e+13)
(3.17569e+13 -2.57386e+13 -9.37693e+12)
(6.76836e+12 -3.11795e+13 -5.78283e+13)
(2.77395e+13 -1.8011e+13 -9.48756e+12)
(8.99308e+12 -2.77006e+13 -5.82725e+13)
(1.96833e+13 -1.6288e+13 -4.7941e+12)
(8.10831e+12 -3.10984e+13 -5.15339e+13)
(1.59213e+13 -1.65237e+13 2.38122e+12)
(-1.54287e+14 -1.41349e+14 1.38224e+13)
(-4.8527e+13 -4.23369e+13 -6.51433e+12)
(-1.08681e+14 -1.23909e+14 -1.33481e+13)
(-4.10462e+13 -5.12297e+13 -2.82658e+11)
(-8.26935e+13 -1.1246e+14 -2.49527e+13)
(-4.44263e+13 -3.74588e+13 1.90348e+13)
(-7.59911e+13 -9.92208e+13 -1.00088e+13)
(-4.75448e+13 -2.58341e+13 4.09986e+13)
(-8.38366e+13 -8.02959e+13 3.51042e+12)
(-5.05775e+13 -1.77449e+13 4.26631e+13)
(-3.66613e+13 -6.94352e+13 -1.22433e+13)
(-6.13084e+13 -1.07523e+14 -4.99053e+13)
(-3.25691e+13 -7.49691e+13 -1.43765e+13)
(-4.78767e+13 -1.00263e+14 -6.70553e+13)
(-3.32204e+13 -4.68063e+13 -7.41156e+12)
(-5.1156e+13 -9.88779e+13 -5.28134e+13)
(-3.94644e+13 -2.86007e+13 1.67083e+13)
(-5.98552e+13 -8.63908e+13 -2.26397e+13)
(-4.40776e+13 -2.18454e+13 2.78365e+13)
(-7.00237e+13 -6.87972e+13 -3.22956e+12)
(-1.15324e+13 -9.53873e+13 -6.39816e+13)
(4.28721e+13 -7.31652e+13 -2.36741e+13)
(-1.01432e+13 -7.3278e+13 -5.88707e+13)
(2.43041e+13 -5.18696e+13 -1.74396e+13)
(-8.85103e+12 -7.01762e+13 -7.45265e+13)
(-1.50745e+12 -2.55117e+13 -4.78384e+12)
(-1.90683e+13 -7.2246e+13 -6.14873e+13)
(-1.8257e+13 -2.02397e+13 1.19051e+13)
(-3.06525e+13 -6.49332e+13 -3.50005e+13)
(-2.83172e+13 -1.48051e+13 1.96811e+13)
(7.78587e+13 -6.23872e+13 -2.40485e+13)
(3.60302e+13 -7.57905e+13 -5.55346e+13)
(6.65886e+13 -5.5038e+13 -2.4585e+13)
(2.9236e+13 -4.91291e+13 -4.82981e+13)
(4.65224e+13 -4.02185e+13 -1.8771e+13)
(2.24042e+13 -4.07203e+13 -6.52713e+13)
(2.85603e+13 -1.72654e+13 -6.35211e+12)
(1.26064e+13 -4.56778e+13 -6.07628e+13)
(9.5879e+12 -1.51157e+13 5.90589e+12)
(5.89902e+12 -4.42958e+13 -4.51205e+13)
(-7.46493e+13 -3.42393e+13 -4.30689e+13)
(-1.31141e+14 -1.33735e+14 -6.42246e+13)
(-7.87323e+13 -4.02659e+13 -2.16513e+13)
(-1.15173e+14 -1.22101e+14 -7.065e+13)
(-8.71123e+13 -1.52819e+13 6.25711e+12)
(-1.07405e+14 -9.99552e+13 -4.49347e+13)
(-8.91547e+13 -3.96218e+12 3.74685e+13)
(-1.02669e+14 -7.38434e+13 -4.18169e+12)
(-8.4088e+13 -3.59608e+12 5.7653e+13)
(-1.02898e+14 -5.47367e+13 1.23136e+13)
(-9.40272e+13 -1.04802e+14 -8.25508e+13)
(-6.1334e+13 -6.7286e+13 -3.15578e+13)
(-9.22003e+13 -1.09334e+14 -8.9432e+13)
(-7.36957e+13 -3.07553e+13 -1.49743e+13)
(-9.70167e+13 -1.06354e+14 -8.31921e+13)
(-8.76187e+13 -1.55187e+12 1.33647e+13)
(-1.00036e+14 -8.80656e+13 -4.79078e+13)
(-9.04701e+13 5.67568e+12 3.85208e+13)
(-9.90025e+13 -6.78128e+13 -1.01153e+13)
(-8.76988e+13 3.92683e+12 5.22354e+13)
(5.35017e+12 -5.9805e+13 -4.95465e+13)
(-3.76317e+13 -6.7716e+13 -8.0018e+13)
(-2.4431e+13 -4.74009e+13 -3.23045e+13)
(-5.26109e+13 -7.93237e+13 -8.98258e+13)
(-4.88001e+13 -1.21373e+13 -7.52973e+12)
(-6.85248e+13 -8.57199e+13 -8.17678e+13)
(-6.78658e+13 8.01761e+12 1.87628e+13)
(-7.89466e+13 -7.6665e+13 -4.8923e+13)
(-7.54792e+13 1.14587e+13 3.8522e+13)
(-8.27647e+13 -6.22762e+13 -1.90197e+13)
(4.80033e+12 -6.8832e+13 -6.27567e+13)
(5.07206e+13 -4.84494e+13 -5.43284e+13)
(5.27195e+12 -4.42997e+13 -6.5869e+13)
(2.32236e+13 -2.0418e+13 -4.02486e+13)
(-3.3014e+12 -4.00702e+13 -7.87188e+13)
(-1.28169e+13 6.02527e+12 -5.67819e+12)
(-2.19811e+13 -5.70679e+13 -7.78242e+13)
(-3.46516e+13 1.05043e+13 1.65006e+13)
(-3.62786e+13 -6.03284e+13 -5.47887e+13)
(-4.33388e+13 8.05645e+12 2.90671e+13)
(-1.52591e+14 -1.35831e+14 -6.68897e+13)
(-1.14879e+14 -3.31677e+13 1.45013e+12)
(-1.60479e+14 -1.26487e+14 -7.86021e+13)
(-1.37757e+14 -1.03696e+12 1.54584e+13)
(-1.62251e+14 -9.5485e+13 -6.70589e+13)
(-1.50946e+14 1.00569e+13 2.07954e+13)
(-1.5535e+14 -6.20447e+13 -3.89086e+13)
(-1.48131e+14 1.41733e+13 2.88973e+13)
(-1.41773e+14 -3.84241e+13 -8.65691e+12)
(-1.31147e+14 1.37514e+13 6.6649e+13)
(-7.98125e+13 -5.8767e+13 -1.2372e+13)
(-1.25224e+14 -1.0944e+14 -8.13706e+13)
(-1.13727e+14 -2.09282e+13 7.92368e+12)
(-1.47149e+14 -1.05364e+14 -8.62819e+13)
(-1.42678e+14 1.41531e+13 2.06019e+13)
(-1.59589e+14 -7.89345e+13 -6.82681e+13)
(-1.56008e+14 2.35795e+13 2.10508e+13)
(-1.59021e+14 -5.38298e+13 -4.37116e+13)
(-1.54863e+14 2.50664e+13 2.50231e+13)
(-1.49178e+14 -3.71384e+13 -2.05581e+13)
(-6.47734e+13 -6.48339e+13 -6.61192e+13)
(-5.08253e+13 -4.07639e+13 -1.58012e+13)
(-9.56906e+13 -7.91831e+13 -8.14565e+13)
(-9.61347e+13 9.41786e+12 1.82212e+13)
(-1.26721e+14 -8.15943e+13 -8.03822e+13)
(-1.29705e+14 2.96774e+13 2.92882e+13)
(-1.45067e+14 -6.48257e+13 -6.28313e+13)
(-1.4306e+14 3.4744e+13 2.99823e+13)
(-1.4723e+14 -4.84598e+13 -4.40907e+13)
(-1.42408e+14 3.24788e+13 3.20835e+13)
(5.05042e+13 -3.2487e+13 -3.1875e+13)
(1.56051e+12 -3.64922e+13 -4.30412e+13)
(-1.24546e+13 -5.33411e+12 -1.23619e+13)
(-5.21538e+13 -4.01014e+13 -6.79871e+13)
(-6.13069e+13 3.81147e+13 2.92054e+13)
(-8.96868e+13 -5.50098e+13 -7.04334e+13)
(-9.82108e+13 4.3175e+13 3.64345e+13)
(-1.14244e+14 -5.69861e+13 -5.90064e+13)
(-1.12505e+14 3.997e+13 3.69479e+13)
(-1.16878e+14 -5.04251e+13 -4.474e+13)
(-1.00938e+14 -3.50369e+13 4.25566e+13)
(-1.41454e+14 -1.23126e+14 -7.03052e+13)
(-1.29426e+14 -1.26709e+13 5.59863e+13)
(-1.61466e+14 -1.0884e+14 -8.01901e+13)
(-1.54722e+14 9.00942e+12 4.56987e+13)
(-1.74078e+14 -8.10949e+13 -7.25989e+13)
(-1.75562e+14 1.01353e+13 2.65474e+13)
(-1.80759e+14 -6.42879e+13 -5.23881e+13)
(-1.78077e+14 1.23461e+13 1.95055e+13)
(-1.62168e+14 -7.81535e+12 -2.60207e+13)
(-8.10403e+13 -8.64179e+13 -5.56677e+13)
(-8.67789e+13 -4.38637e+13 3.71892e+13)
(-1.11758e+14 -9.38944e+13 -6.94498e+13)
(-1.12732e+14 2.56392e+12 5.94006e+13)
(-1.35883e+14 -8.48221e+13 -8.01694e+13)
(-1.38023e+14 2.04445e+13 4.85497e+13)
(-1.53271e+14 -6.5287e+13 -7.37455e+13)
(-1.57306e+14 2.20288e+13 3.38462e+13)
(-1.65857e+14 -5.37633e+13 -5.95039e+13)
(-1.64018e+14 1.79661e+13 2.39176e+13)
(2.96068e+13 -1.3177e+13 -7.46415e+12)
(-1.74719e+13 -4.35121e+13 -3.04146e+13)
(-4.47055e+13 -2.03779e+13 3.46333e+13)
(-5.62449e+13 -5.66605e+13 -6.2291e+13)
(-6.61488e+13 1.93895e+13 6.47254e+13)
(-8.05753e+13 -6.33261e+13 -7.20456e+13)
(-8.27584e+13 2.01692e+13 5.73801e+13)
(-9.10655e+13 -6.0518e+13 -6.83932e+13)
(-9.11624e+13 1.63483e+13 4.75021e+13)
(-9.68214e+13 -5.511e+13 -6.08969e+13)
(7.09539e+13 7.31938e+13 -4.80164e+13)
(6.3874e+13 -1.10418e+13 3.03322e+13)
(3.38081e+13 -2.48875e+13 -1.4323e+13)
(2.38966e+13 -1.73152e+13 2.38367e+12)
(1.74488e+13 -1.66127e+13 -4.45578e+13)
(3.62174e+12 1.89791e+13 6.4888e+13)
(1.31461e+12 -3.22207e+13 -6.14323e+13)
(-1.81392e+13 1.79514e+13 5.97321e+13)
(-1.97908e+13 -4.0527e+13 -6.02834e+13)
(-3.6799e+13 1.49671e+13 4.85737e+13)
)
;

boundaryField
{
    inlet
    {
        type            fixedValue;
        value           nonuniform 0();
    }
    outlet
    {
        type            zeroGradient;
    }
    bottom
    {
        type            fixedValue;
        value           uniform (0 0 0);
    }
    top
    {
        type            symmetryPlane;
    }
    side1
    {
        type            symmetryPlane;
    }
    side2
    {
        type            symmetryPlane;
    }
    procBoundary22to14
    {
        type            processor;
        value           nonuniform List<vector> 
50
(
(-1.50656e+14 -1.05803e+14 2.12057e+13)
(5.00111e+13 4.69354e+13 -3.13715e+13)
(-1.19518e+14 -1.16341e+14 2.45195e+13)
(4.1618e+13 2.23664e+12 -1.56847e+13)
(-9.28662e+13 -1.11526e+14 3.31279e+12)
(3.03133e+13 -1.67423e+13 -3.09269e+12)
(-7.58864e+13 -9.81263e+13 -1.38727e+13)
(1.8697e+13 -2.40504e+13 1.38414e+13)
(-6.98961e+13 -8.25196e+13 -1.48276e+13)
(3.19675e+12 -2.10115e+13 2.93004e+13)
(-4.22166e+13 2.48372e+13 -2.7495e+13)
(-1.58486e+14 -1.37709e+14 4.08596e+13)
(-2.81902e+13 -1.96134e+13 1.00686e+13)
(-1.13605e+14 -1.18654e+14 2.01945e+13)
(-2.26383e+13 -3.38947e+13 2.22064e+13)
(-8.82218e+13 -1.0355e+14 9.46277e+12)
(-2.94383e+13 -2.74925e+13 4.18901e+13)
(-8.29937e+13 -8.56559e+13 1.28009e+13)
(-3.49647e+13 -1.95425e+13 5.42951e+13)
(-8.32923e+13 -6.34741e+13 1.02084e+13)
(-1.75e+14 -1.6703e+14 -1.9369e+13)
(-6.63894e+13 -1.3865e+13 -3.39392e+13)
(-1.37687e+14 -1.40367e+14 -3.19374e+13)
(-6.65289e+13 -2.38866e+13 1.5157e+12)
(-1.10109e+14 -1.12794e+14 -2.86695e+13)
(-7.06267e+13 -1.47055e+13 3.58571e+13)
(-9.86522e+13 -8.15391e+13 4.23348e+11)
(-7.07025e+13 -9.42092e+12 6.10446e+13)
(-9.48144e+13 -5.59109e+13 1.84706e+13)
(-6.63926e+13 -3.58834e+12 7.06098e+13)
(-9.54496e+13 -6.97437e+12 -8.54822e+12)
(-1.72631e+14 -1.5476e+14 -5.57119e+13)
(-1.15729e+14 -6.1212e+12 9.00205e+12)
(-1.5879e+14 -1.13581e+14 -5.86326e+13)
(-1.2803e+14 1.66851e+12 2.66292e+13)
(-1.41366e+14 -7.0983e+13 -2.89713e+13)
(-1.23093e+14 4.64346e+12 4.4883e+13)
(-1.2431e+14 -4.19588e+13 3.48195e+12)
(-1.06601e+14 9.26177e+12 7.43284e+13)
(-1.13511e+14 -2.68261e+13 1.01437e+13)
(-1.58077e+14 -1.59361e+14 -6.06521e+13)
(-1.16202e+14 -1.45359e+13 5.15686e+13)
(-1.71918e+14 -1.37757e+14 -7.57175e+13)
(-1.46794e+14 1.94472e+12 4.35603e+13)
(-1.77903e+14 -9.64112e+13 -7.21226e+13)
(-1.68296e+14 4.885e+12 2.32123e+13)
(-1.72777e+14 -5.92272e+13 -4.63114e+13)
(-1.62624e+14 2.1231e+13 3.54345e+13)
(-1.45246e+14 -2.60494e+12 -1.62726e+13)
(-1.27665e+14 4.16215e+13 9.07989e+13)
)
;
    }
    procBoundary22to21
    {
        type            processor;
        value           nonuniform List<vector> 
20
(
(-1.69312e+14 -1.11705e+14 -3.1194e+12)
(1.30208e+13 1.03964e+13 -9.39446e+12)
(-6.32325e+13 -9.20358e+13 -6.21437e+13)
(2.37242e+13 -3.11737e+13 -2.06345e+12)
(-5.66724e+13 1.62043e+12 -3.13534e+13)
(-1.04289e+14 -1.2492e+14 -2.93824e+13)
(3.49331e+13 -6.86388e+13 -2.18059e+13)
(4.6236e+13 -8.57075e+13 -4.07585e+13)
(-1.58054e+14 -1.38527e+14 -4.63761e+13)
(-4.77949e+13 -5.09863e+13 -4.85478e+13)
(-4.75014e+13 -7.95816e+13 -7.5905e+13)
(8.15048e+13 -2.73102e+13 -4.32335e+13)
(-8.79908e+13 -2.68648e+13 -1.24245e+13)
(-1.04035e+14 -9.57387e+13 -7.11998e+13)
(3.36773e+12 -3.52612e+13 -3.60162e+13)
(-4.70012e+12 -5.27357e+13 -4.43506e+13)
(-1.20267e+14 -1.12265e+14 -6.14607e+13)
(-4.20646e+13 -3.78394e+13 1.09807e+13)
(2.22505e+13 3.99217e+12 -2.43524e+13)
(7.04076e+13 -1.44603e+13 -2.87767e+13)
)
;
    }
    procBoundary22to23
    {
        type            processor;
        value           nonuniform List<vector> 
20
(
(-3.19912e+13 -1.83241e+13 2.60661e+13)
(-6.26273e+13 -6.273e+13 3.20863e+12)
(-9.37178e+12 -1.77672e+13 7.36619e+12)
(7.95475e+12 -2.55139e+13 -4.37133e+13)
(-8.59168e+13 -6.17942e+13 1.19995e+13)
(-5.27399e+13 -9.45105e+12 3.1729e+13)
(-4.2115e+13 -5.31691e+13 -1.69845e+13)
(-1.82896e+12 -1.45724e+13 1.31119e+13)
(-8.57352e+13 -2.8483e+11 6.14891e+13)
(-9.9825e+13 -5.20593e+13 4.4316e+12)
(-7.7391e+13 1.20469e+13 4.88691e+13)
(-4.46157e+13 -5.42948e+13 -3.00871e+13)
(-1.34701e+14 -2.89283e+13 8.27281e+11)
(-1.42119e+14 1.89857e+13 5.22321e+13)
(-1.39416e+14 -3.82226e+13 -2.85017e+13)
(-1.10901e+14 3.52019e+13 3.79418e+13)
(-1.43474e+14 4.64041e+13 9.26414e+13)
(-1.52482e+14 -2.27132e+13 -4.20021e+13)
(-9.6233e+13 1.84383e+13 3.88706e+13)
(-3.49567e+13 -3.697e+13 -5.57471e+13)
)
;
    }
    procBoundary22to30
    {
        type            processor;
        value           nonuniform List<vector> 
50
(
(3.05591e+13 -2.22004e+13 1.10413e+13)
(5.31632e+12 -3.47347e+13 -5.03599e+13)
(3.53905e+13 -1.78108e+13 -2.10923e+11)
(8.4357e+12 -2.17959e+13 -4.93509e+13)
(4.0208e+13 -5.49606e+12 -5.37952e+12)
(1.18256e+13 -2.26124e+12 -4.83873e+13)
(3.61313e+13 3.34914e+11 -5.26878e+12)
(1.74289e+13 -4.4517e+12 -4.55462e+13)
(2.87745e+13 -7.65692e+12 -6.45781e+12)
(2.13037e+13 -1.0776e+13 -4.94413e+13)
(7.26541e+13 -4.15384e+13 -2.85216e+13)
(8.37854e+13 -4.7532e+13 -2.41496e+13)
(5.40119e+13 -2.74575e+13 -3.28432e+13)
(6.93163e+13 -3.24711e+13 -2.55245e+13)
(4.62754e+13 -1.53037e+13 -4.2385e+13)
(5.81879e+13 -2.00176e+13 -2.04626e+13)
(3.97103e+13 -1.29967e+13 -5.01736e+13)
(5.04651e+13 -1.33246e+13 -8.21993e+12)
(3.81052e+13 -2.39435e+13 -4.91458e+13)
(3.89628e+13 -1.76908e+13 -5.56068e+12)
(8.42016e+13 -4.3138e+13 -3.67958e+13)
(5.01767e+13 -4.17193e+13 -4.49283e+13)
(6.75529e+13 -3.40172e+13 -4.56293e+13)
(4.32946e+13 -1.53827e+13 -4.91783e+13)
(5.56003e+13 -1.53818e+13 -4.28294e+13)
(4.28157e+13 -9.79431e+12 -6.45921e+13)
(4.16978e+13 -4.84729e+12 -2.30585e+13)
(3.45212e+13 -2.45432e+13 -7.35778e+13)
(2.54363e+13 3.62082e+12 -1.52196e+12)
(2.15435e+13 -3.42321e+13 -6.73054e+13)
(4.79001e+13 -3.18817e+13 -2.3582e+13)
(6.63497e+13 -2.65216e+13 -2.54326e+13)
(3.16999e+13 -1.57363e+13 -3.51748e+13)
(4.86673e+13 -3.03939e+11 -2.06127e+13)
(1.09835e+13 -9.14224e+11 -4.78342e+13)
(2.42927e+13 2.08969e+13 9.11953e+12)
(-9.89818e+12 -2.60994e+13 -6.50873e+13)
(-9.43087e+12 3.40595e+13 3.74354e+13)
(-2.62374e+13 -4.22009e+13 -6.033e+13)
(-3.46723e+13 2.81004e+13 3.20984e+13)
(7.28759e+13 -3.30255e+13 -1.157e+13)
(7.41307e+13 -1.07196e+13 -4.04664e+12)
(6.24605e+13 -1.4971e+13 -7.83798e+12)
(5.24353e+13 4.12836e+12 -8.897e+12)
(4.47892e+13 5.46822e+11 4.26362e+12)
(3.84519e+13 4.31027e+12 -3.94923e+13)
(3.10831e+13 1.45922e+13 4.64468e+13)
(3.18342e+13 -3.66441e+12 -6.31301e+13)
(1.62697e+13 1.82227e+13 7.54529e+13)
(2.85206e+13 -1.19345e+13 -7.11431e+13)
)
;
    }
}


// ************************************************************************* //
