/*--------------------------------*- C++ -*----------------------------------*\
| =========                 |                                                 |
| \\      /  F ield         | OpenFOAM: The Open Source CFD Toolbox           |
|  \\    /   O peration     | Version:  2.4.0                                 |
|   \\  /    A nd           | Web:      www.OpenFOAM.org                      |
|    \\/     M anipulation  |                                                 |
\*---------------------------------------------------------------------------*/
FoamFile
{
    version     2.0;
    format      ascii;
    class       volVectorField;
    location    "0.08";
    object      Ur;
}
// * * * * * * * * * * * * * * * * * * * * * * * * * * * * * * * * * * * * * //

dimensions      [0 1 -1 0 0 0 0];

internalField   nonuniform List<vector> 
200
(
(71209.3 -41844.7 75906)
(-42812.9 1457.78 128790)
(57418 -98071.9 76523.3)
(-23920.9 -8144.5 73013.2)
(101584 -40128.8 33059.2)
(59193.1 -157783 -21516.6)
(211357 78042.8 20304.1)
(133680 -250718 -33346.7)
(288912 124054 132958)
(176470 -278730 -978.434)
(-70104 -180327 84615.7)
(59506.4 -78613.5 90271.7)
(-55883.6 -60023.6 110668)
(58215.3 -160507 45971.7)
(-31330.7 -124936 29274.9)
(124795 -85326 12530.9)
(48005.5 -249403 -35467.5)
(222294 9341.55 22624.6)
(107517 -343901 -40208.7)
(272418 24659.8 151051)
(75963.8 -63696.7 103088)
(-71486.2 -231167 75700.8)
(57819 -138682 75692.3)
(-59132.1 -147228 92080.1)
(40969.9 -209465 26060.8)
(-47835.4 -230660 -947.087)
(116148 -135930 1871.5)
(17841.2 -340879 -49438)
(197086 -63379.5 24787.1)
(53061 -428918 -47581.6)
(-58936.1 -352531 11088.5)
(70429.7 -110263 99650)
(-64569.5 -256592 75385.5)
(41191.2 -181664 57746.3)
(-71208.2 -201383 81691.2)
(16170.8 -249339 12624.4)
(-74412.2 -298886 -22491.2)
(86534.7 -174299 -4644.42)
(-30122.9 -400096 -59602.6)
(146871 -112345 24999.9)
(-32215.5 40552.9 171925)
(62902.5 -127914 95085)
(-1089.4 37944.5 107401)
(138810 -57629.7 39600)
(80552.4 -120621 -10173.9)
(251518 42693.3 44984.9)
(153153 -215924 3097.63)
(323472 105008 175672)
(205399 -268725 62879.9)
(362890 87755.8 392217)
(76054.2 -132532 90002.5)
(-20397.3 -29040.3 161189)
(85313.2 -168814 62263.4)
(10993.5 -63624.3 46763.9)
(158392 -106843 13912.4)
(82978 -220310 -43006.3)
(261257 -26696.7 41990.3)
(128186 -307379 -2099.96)
(308341 11908.5 199082)
(149126 -354612 52942.8)
(-53415 -188484 136583)
(73932.5 -166641 76844.4)
(-7940.3 -86398.9 150086)
(71390.9 -210813 43642.4)
(-12285.6 -150273 2809.14)
(144958 -152621 -4844.25)
(49806.7 -303820 -66954.9)
(232231 -96809.9 36604.8)
(72105.2 -391114 -12278.3)
(251952 -76118.5 203524)
(73733.8 -154212 79860.7)
(-39095.3 -222100 129463)
(71662.7 -205460 66052)
(-11608.6 -137352 150127)
(41752.2 -249689 35092.2)
(-55701.2 -209141 -28652.8)
(124253 -170467 -13493.1)
(-7753.47 -356076 -88184.5)
(176428 -143986 28297.6)
(-4398.95 -441963 -25941)
(49842.8 -142833 155618)
(-24769.2 96839.6 212711)
(96462.2 -122287 83743.2)
(93012.2 -113504 -32874.1)
(302823 7866.54 44601.9)
(243580 -190704 3680.39)
(428760 80999.6 187967)
(325055 -273047 79745)
(510792 94810.3 439667)
(443770 -225223 149025)
(-30213.1 -2136.7 246082)
(47855.1 -186719 121257)
(-19093.7 20190.1 184900)
(120250 -180450 97485.7)
(77402 -337992 -234642)
(330784 -89847.6 35415.8)
(229378 -292923 -38164.8)
(425452 -16620.2 207384)
(273816 -364203 70778)
(470764 -19162 470499)
(68383.6 -197162 110012)
(-32654.9 -64743.4 238587)
(37164.3 -228277 131770)
(-45753.9 -49389.2 194891)
(110936 -240483 124696)
(22435.3 -486563 -411996)
(308190 -149143 17891.2)
(182436 -368177 -73405.1)
(373144 -105670 201224)
(193306 -446877 52611.8)
(-57499.5 -204176 219332)
(54157.7 -220192 104532)
(-34689.3 -103637 253876)
(6181.91 -253974 151598)
(-87239.9 -90925.7 208221)
(82868.6 -272464 158257)
(-58451.7 -558857 -531231)
(248369 -197165 16998.4)
(102033 -410490 -111118)
(288294 -166828 177355)
(-23439.9 159225 353367)
(-969.024 -96093.2 216810)
(2473.99 -235584 -192132)
(191069 -53103.2 138832)
(267216 -250177 -101779)
(490521 87396.7 169710)
(427080 -312381 11012.2)
(638507 121465 419521)
(590428 -249246 73865.6)
(771779 -38524.2 550318)
(51497.9 -140114 197543)
(-27174.2 89622.7 318327)
(131003 -101475 241065)
(-5817.27 -642833 -706566)
(272975 -119523 111567)
(264675 -384537 -198769)
(492737 -25507.4 187767)
(386195 -407101 -4940.59)
(613638 -8917.89 455981)
(530884 -372170 57524.8)
(-27293.5 -38384.5 325246)
(39351 -195406 193387)
(-18955.1 13387.2 342930)
(171584 -185274 307780)
(-72320.9 -954045 -1.12595e+06)
(282904 -176154 120190)
(224639 -492167 -298994)
(454343 -132517 186927)
(321377 -496080 -25260)
(535823 -133889 470069)
(72424.5 -231966 118830)
(-22597.3 -93256.9 315327)
(56303.7 -228560 222947)
(-31268.4 -32328.5 373194)
(188651 -228492 377066)
(-137990 -1.14626e+06 -1.37112e+06)
(265145 -220209 136278)
(154898 -571061 -397338)
(384890 -202449 168342)
(230102 -554481 -59311.5)
(71841.2 -52794.8 210552)
(82172 -225069 -225240)
(287642 261117 144894)
(222702 -408343 -387851)
(445554 225930 143033)
(389468 -379752 -219644)
(609605 222215 323085)
(584817 -262725 -65393.1)
(814540 6994.18 434695)
(932874 -78391.5 15654.8)
(111735 135442 312522)
(238390 -39840.9 238604)
(97117.2 -748457 -966956)
(331230 159276 222885)
(189779 -603810 -643831)
(406635 103600 177677)
(324416 -453608 -290758)
(564824 104610 343800)
(523614 -382613 -97455.8)
(746118 -162011 462630)
(130399 -182310 159733)
(199379 11157.6 322901)
(400250 -160331 318475)
(77073.8 -1.14534e+06 -1.46899e+06)
(336435 83842.8 303112)
(120044 -814384 -905185)
(346256 -339.165 209321)
(241114 -550578 -368812)
(469036 -23263.7 351742)
(413424 -510628 -115433)
(39926.5 -130219 275601)
(188715 -252387 164790)
(288352 -88710.8 345005)
(473149 -263180 378607)
(44669.4 -1.43991e+06 -1.78484e+06)
(325303 4656.82 393612)
(30061.6 -986800 -1.11089e+06)
(278319 -80518.6 241700)
(137245 -640951 -448032)
(346450 -127018 348496)
)
;

boundaryField
{
    inlet
    {
        type            calculated;
        value           uniform (-6 0 0);
    }
    outlet
    {
        type            calculated;
        value           nonuniform 0();
    }
    bottom
    {
        type            calculated;
        value           uniform (0 0 0);
    }
    top
    {
        type            symmetryPlane;
    }
    side1
    {
        type            symmetryPlane;
    }
    side2
    {
        type            symmetryPlane;
    }
    procBoundary0to1
    {
        type            processor;
        value           nonuniform List<vector> 
20
(
(298519 81842.9 293221)
(120595 -367734 -15576.1)
(217813 -67546.7 158117)
(-20996.2 -482762 -55030.9)
(277360 -211641 120119)
(313199 -16553.3 413829)
(66457.6 -432771 36684.2)
(170937 -131272 193245)
(579994 -44202.6 595306)
(369194 -330451 131233)
(382148 -125786 472239)
(85899.4 -495565 23504.6)
(840768 -68400.9 196527)
(688295 -205668 586712)
(426711 -486620 42672.4)
(425293 -218542 461682)
(1.10684e+06 -230031 473333)
(882533 -288322 -11459.2)
(608722 -324429 477326)
(266732 -607351 -133705)
)
;
    }
    procBoundary0to8
    {
        type            processor;
        value           nonuniform List<vector> 
50
(
(38552.7 -144229 135604)
(-56800.2 -378297 -4439.02)
(58440.1 -147301 75711.9)
(-64526.6 -276507 77770.2)
(21272.5 -215744 39812.2)
(-81629.3 -235427 79202.5)
(-13931.7 -271363 7871.75)
(-103499 -334129 -32508.1)
(35884.7 -194588 -8188.75)
(-93271.3 -419226 -58752.6)
(-35864.4 -364462 34276)
(72157.8 -188501 51101.5)
(-23228.8 -226239 146286)
(52423 -227481 65620.8)
(-24655.9 -173017 153693)
(1726.3 -281273 34500.8)
(-102488 -241739 -37518.5)
(86205.3 -194454 -12691.1)
(-79092.4 -364237 -104642)
(100387 -161743 18655.2)
(64725.6 -212364 94481.6)
(-58308.3 -231416 220309)
(44753.4 -240924 115270)
(-47988 -135689 267138)
(-22265.9 -271051 170869)
(-125438 -115776 204735)
(29283.8 -286967 173603)
(-126757 -519798 -472043)
(162580 -229441 25628.9)
(11941.2 -429535 -147528)
(-52377.4 -223929 281885)
(72617.8 -250093 104936)
(2366.89 -126495 315166)
(57695.9 -257752 245266)
(-34687.1 -67613.6 397848)
(193965 -279462 448113)
(-198714 -1.20278e+06 -1.39263e+06)
(225009 -248470 159705)
(72377.6 -612809 -468942)
(304949 -246099 153098)
(100529 -295731 15504.2)
(86648.6 -178716 262189)
(245808 -308835 190033)
(323513 -172318 358203)
(488598 -363079 426015)
(13235.5 -1.55927e+06 -1.81173e+06)
(309345 -97783.4 468034)
(-62831.2 -1.09206e+06 -1.20933e+06)
(210456 -148937 268698)
(30181.8 -711953 -518767)
)
;
    }
}


// ************************************************************************* //
