/*--------------------------------*- C++ -*----------------------------------*\
| =========                 |                                                 |
| \\      /  F ield         | OpenFOAM: The Open Source CFD Toolbox           |
|  \\    /   O peration     | Version:  2.4.0                                 |
|   \\  /    A nd           | Web:      www.OpenFOAM.org                      |
|    \\/     M anipulation  |                                                 |
\*---------------------------------------------------------------------------*/
FoamFile
{
    version     2.0;
    format      ascii;
    class       volScalarField;
    location    "0.17";
    object      p;
}
// * * * * * * * * * * * * * * * * * * * * * * * * * * * * * * * * * * * * * //

dimensions      [1 -1 -2 0 0 0 0];

internalField   nonuniform List<scalar> 
200
(
1.52322e+35
7.57958e+34
-8.5847e+34
-3.12956e+35
-2.47654e+35
-1.74144e+35
-2.0364e+35
-2.2507e+35
-2.11087e+35
-1.54273e+35
2.2552e+35
2.20592e+35
1.99529e+35
2.35032e+35
1.28494e+35
-2.09613e+35
-1.2634e+35
-1.12536e+35
-8.75571e+34
-9.99613e+34
3.50667e+35
4.30734e+35
5.16112e+35
4.74067e+35
-1.42351e+35
9.02636e+34
6.29423e+34
4.51847e+34
-8.09969e+34
-5.61552e+34
4.93786e+35
6.31286e+35
6.57123e+35
7.22297e+35
1.26396e+36
1.35076e+36
1.46815e+36
7.76367e+35
3.48814e+35
1.11745e+35
7.47425e+34
-6.79244e+34
-3.87074e+35
-8.63654e+35
-1.84983e+36
-9.06964e+35
-1.37969e+36
-7.23532e+35
-7.19906e+35
-4.16365e+35
1.13454e+34
-1.14995e+35
-3.70592e+35
-8.56174e+35
-5.55768e+35
-7.86879e+35
-5.17628e+35
-7.53102e+35
-5.58374e+35
-3.17977e+35
2.64212e+34
-1.79845e+34
-1.82805e+35
-3.06926e+35
-8.88642e+35
-8.82759e+35
-5.87309e+35
-3.34328e+35
-3.2367e+35
-3.16169e+35
1.47614e+35
1.22919e+35
-6.57348e+34
-6.33406e+35
-1.17822e+36
-7.73154e+35
-4.15044e+35
-2.05802e+35
-9.42388e+34
-8.99937e+34
1.45523e+35
9.93384e+34
1.30558e+34
-6.05834e+33
-3.37396e+35
-5.51579e+35
-3.12327e+35
-5.90491e+35
-3.81947e+35
-2.24645e+35
-3.66323e+34
-9.04228e+34
-2.25505e+35
-4.38584e+35
-6.28326e+35
-4.56994e+35
-6.53831e+35
-4.58925e+35
-4.21117e+35
-1.99845e+35
-1.23144e+35
-1.34847e+35
-3.06908e+35
-5.35603e+35
-4.2523e+35
-2.66278e+35
-5.27072e+34
7.43939e+33
-1.14571e+34
1.49999e+34
1.59849e+35
5.11356e+34
-6.00717e+34
-2.39275e+35
-2.32328e+35
3.99105e+34
2.72396e+35
2.3117e+35
2.59722e+35
1.85894e+35
1.4988e+35
1.39425e+35
1.12536e+35
8.05883e+34
6.72667e+34
1.93849e+34
3.31721e+34
-9.62217e+33
1.77495e+34
2.70503e+34
3.2822e+34
3.11204e+34
1.95035e+34
-1.17155e+33
-1.04464e+35
-1.83882e+35
-1.09559e+35
-2.50869e+34
1.66002e+34
4.37925e+34
3.59168e+34
-2.73031e+34
-1.33749e+34
-1.01855e+35
-8.06497e+34
-1.17672e+35
-4.12052e+34
4.75691e+34
1.02084e+35
9.63141e+34
2.19286e+35
1.88023e+35
8.49773e+34
8.71949e+34
-1.77613e+34
5.08335e+34
1.01035e+35
3.06333e+35
3.09292e+35
2.42268e+35
1.23907e+35
1.4233e+35
1.51614e+35
1.50076e+35
1.58676e+35
1.79519e+35
1.78712e+35
1.82245e+35
1.64826e+35
1.37879e+35
3.56774e+34
2.06129e+34
6.49009e+34
3.0805e+34
5.94941e+34
8.70148e+34
1.17708e+35
1.28373e+35
1.31518e+35
1.2302e+35
-1.0675e+34
1.92845e+34
-2.67724e+34
7.01178e+34
4.44959e+34
6.5696e+34
9.84859e+34
1.34081e+35
1.38983e+35
1.36518e+35
3.31844e+35
1.45628e+35
1.71115e+35
1.1045e+35
1.55391e+35
1.13052e+35
1.69023e+35
1.85346e+35
1.93621e+35
1.74094e+35
)
;

boundaryField
{
    inlet
    {
        type            zeroGradient;
    }
    outlet
    {
        type            fixedValue;
        value           nonuniform 0();
    }
    bottom
    {
        type            zeroGradient;
    }
    top
    {
        type            symmetryPlane;
    }
    side1
    {
        type            symmetryPlane;
    }
    side2
    {
        type            symmetryPlane;
    }
    procBoundary30to22
    {
        type            processor;
        value           nonuniform List<scalar> 
50
(
1.40208e+35
9.86831e+34
-2.2318e+34
-2.86382e+35
-7.10778e+35
-6.10962e+35
-4.34827e+35
-3.22386e+35
-2.90955e+35
-2.40378e+35
1.56302e+35
1.06607e+35
-1.93693e+34
-2.70175e+35
-7.26644e+35
-1.40815e+36
-7.20647e+35
-1.13188e+36
-6.57894e+35
-5.40287e+35
2.47344e+35
2.57774e+35
2.56912e+35
2.59826e+35
5.81664e+35
2.79273e+35
4.00371e+35
6.04303e+34
4.17053e+34
3.50252e+34
2.24518e+35
2.40437e+35
2.4822e+35
2.48245e+35
2.44607e+35
2.70244e+35
1.71782e+35
1.44607e+35
8.75327e+34
6.40278e+34
1.85947e+35
2.05915e+35
2.23601e+35
2.29311e+35
2.2238e+35
2.25436e+35
2.23117e+35
2.17505e+35
2.0574e+35
2.06796e+35
)
;
    }
    procBoundary30to29
    {
        type            processor;
        value           nonuniform List<scalar> 
20
(
1.74719e+35
2.05468e+35
2.92447e+35
3.87342e+35
1.17593e+35
6.40699e+34
1.14132e+34
1.25742e+35
1.31494e+35
-2.57864e+34
-9.63606e+34
1.49329e+35
1.33093e+35
-3.44392e+33
-7.68884e+34
4.33169e+35
9.05045e+34
-4.77503e+34
7.23621e+34
4.80224e+35
)
;
    }
    procBoundary30to31
    {
        type            processor;
        value           nonuniform List<scalar> 
20
(
-1.33944e+35
-7.28139e+34
-4.92121e+34
6.86787e+34
-2.79769e+35
-1.85059e+35
-1.79766e+35
-9.11785e+34
-9.01846e+34
-5.5577e+34
4.63481e+34
1.49352e+35
1.80479e+34
4.98201e+34
1.00911e+35
1.87874e+35
1.28207e+35
1.12295e+35
1.28553e+35
1.56545e+35
)
;
    }
}


// ************************************************************************* //
