/*--------------------------------*- C++ -*----------------------------------*\
| =========                 |                                                 |
| \\      /  F ield         | OpenFOAM: The Open Source CFD Toolbox           |
|  \\    /   O peration     | Version:  2.4.0                                 |
|   \\  /    A nd           | Web:      www.OpenFOAM.org                      |
|    \\/     M anipulation  |                                                 |
\*---------------------------------------------------------------------------*/
FoamFile
{
    version     2.0;
    format      ascii;
    class       volVectorField;
    location    "0.01";
    object      gradp;
}
// * * * * * * * * * * * * * * * * * * * * * * * * * * * * * * * * * * * * * //

dimensions      [1 -2 -2 0 0 0 0];

internalField   nonuniform List<vector> 
200
(
(1373.96 -988.619 -1586.52)
(-96.2403 -587.996 -1203.62)
(3603.69 -283.418 -1260.59)
(14084.9 1288.03 -1925.07)
(6494.99 -2796.21 -4884.58)
(-7577.29 -1993.21 -4618.12)
(-6221.64 -2002.21 319.397)
(-3778.61 -5297.39 2506.15)
(-1695.88 -1895.84 -38.236)
(375.247 -1962.49 1014.09)
(1333.32 -1219.24 -696.745)
(1673.45 -1254.05 -917.819)
(5527.58 -1398.59 -1382.77)
(4011.13 -4192.31 -2910.89)
(-2751.52 -5536.99 -1820.58)
(-2030.3 -5095.05 -913.077)
(-7463.39 -6420.49 2836.44)
(-3335.45 -6610.67 5881.06)
(5625.06 -3695.18 1230.49)
(3064.02 -1336.14 1887.62)
(217.533 -227.971 -1014.37)
(-454.944 -146.86 -836.43)
(-2272.84 -32.1866 -748.539)
(5808.08 -5186.43 -201.134)
(4689.5 -9109.27 -4003.99)
(-9344.3 -8188.3 -1921.74)
(-9252.87 -8906.58 3379.48)
(1672.02 -13379.8 4769.8)
(8853.18 -6996.76 2501.14)
(6292.89 -2622.32 2330.02)
(1412.67 375.855 94.8133)
(2065.02 823.664 231.565)
(-4551.56 1635.84 1053.34)
(-14143 -315.697 3368.68)
(-8755.25 -8339.72 7856.53)
(-1624.93 -7038.07 8944.32)
(-17846.4 -4480.04 8458.7)
(484.187 -11334.8 13494)
(27140 -5073.95 6425.96)
(13128.1 -2191.42 3867.48)
(533.699 -968.416 -1581.38)
(946.715 -1153.43 -586.464)
(1295.04 -59.9063 -487.013)
(2488.13 -280.516 -2865.37)
(-2122.77 2063.08 -7776.03)
(9075.43 3184.25 -3462.17)
(16576 7664.2 -4995.17)
(-4923.03 4470.32 -1934.36)
(-6470.46 -770.631 -1402.87)
(3565.55 505.925 -1600.36)
(861.78 -303.807 -1605.77)
(-521.832 -666.541 -1916.32)
(-850.238 -579.301 -2841.16)
(2610.15 -1434.01 -4066.93)
(3641.47 -4128.04 -4296.97)
(12872.2 -780.85 -2051.32)
(14277.8 -1524.35 -2923.69)
(-8474.51 -2988.82 2146.75)
(-7153.93 367.819 1651.1)
(3684.45 769.338 854.898)
(783.324 1038.52 -1616.16)
(395.726 1692.15 -1761.9)
(-239.894 3865.58 -1363.77)
(-4609.35 4860.87 -1983.52)
(-816.455 6374.1 -2771.55)
(14282.8 7583.55 -1800.19)
(12160.1 89.0307 -1167.98)
(-1138.69 -1199.13 3479.69)
(1045.86 1316 3520.43)
(4024.59 545.456 2251.35)
(2285.59 2150.55 -1517.36)
(5132.29 2532.46 -1399.82)
(5487.19 4518.84 -1923.58)
(7627.19 5396 471.631)
(9086.82 10637.1 1951.84)
(302.011 10347.6 6786.55)
(-3287.52 3646.71 5553.88)
(-6020.56 2623.84 12698)
(-3664.75 1205.77 6730.7)
(1444.98 268.529 4128.29)
(4927.44 -397.215 -822.224)
(3405.74 -2530.31 -963.518)
(-3688.81 -3294.32 -1780.39)
(-9239.97 134.804 -3155.98)
(4585.24 2215.42 -5514.33)
(1321.47 2610.37 -5287.8)
(-1332.67 41.5066 -7733.1)
(7716.76 2443.53 -13143.9)
(-627.062 1838.96 -9835)
(1358.47 6381.76 -9932.11)
(1076.23 -1274.87 -1770.33)
(-2279.82 -3134.74 -1673.49)
(-1354.36 -2801.41 -1535.77)
(-647.449 -2781.35 -2564.55)
(3698.41 2470.18 -4886.41)
(2364.18 -2435.9 -4806.66)
(5970.42 -296.983 -9289.1)
(11303.9 2051.82 -15172.9)
(1491.15 4182.1 -9132.32)
(1483.5 4826.59 -9393.72)
(-952.697 -86.5253 -1293.1)
(352.674 679.542 -1480.81)
(-2982.03 1435.94 -2027.52)
(1303.2 2075.26 -1952.52)
(5276.14 888.831 -1736.29)
(-4212.86 5952.3 -2871)
(7642.77 4657.54 -7803.67)
(16674.9 3502.24 -9613.44)
(4922.48 1130.6 -7744.09)
(1434.73 2615.12 -7715.63)
(1260.53 533.921 -2560.12)
(765.115 1402.99 -3200.38)
(1437.08 740.142 -4441.68)
(-1741.67 3612.54 -5786.66)
(11452.5 -782.294 -8035.21)
(9901.6 6700.72 -11092.9)
(1070.31 6274.94 -8872.54)
(4250 3414.49 -11954.9)
(-283.11 62.4781 -9314.08)
(3531.15 811.696 -8203.01)
(1887.42 -411.52 -855.086)
(-2119.41 -186.54 -1986.5)
(-5720.85 1228.14 -2498.1)
(-9460.48 -529.188 -947.94)
(-8944.59 -428.311 823.768)
(1975.36 1393.85 -3669.1)
(-8563.55 -56.5637 -2667.4)
(-11649.1 -6362.63 -4854.99)
(3807.34 2581.25 -5829.02)
(-162.765 13399.6 -6299.54)
(-192.414 -1057.2 -394.82)
(228.773 -1494.2 -469.096)
(-3701.63 -974.713 437.21)
(-8111.92 491.535 379.074)
(-3533.27 1916.81 538.703)
(-1216.44 3086.04 -1127.07)
(-18894.3 -1637.28 -2118.05)
(-7972.82 2659.94 -5742.49)
(11339.6 3713.27 -9748.63)
(1875.54 4315.7 -9251.29)
(-883.535 -225.136 -226.723)
(-1954.43 -750.866 -258.308)
(-1749.37 -783.869 -679.718)
(-3677.43 -294.506 69.7286)
(-3755.58 1336.02 -1912.33)
(-5132.81 -2474.52 -2486.36)
(-9415.75 755.526 -1018.01)
(-948.034 3949.78 -5093.37)
(7118.87 1025.18 -8438.05)
(5078.36 2450.59 -8981.18)
(-1149.6 123.317 -359.832)
(-888.691 -218.864 -690.637)
(-2788.91 656.186 -822.853)
(-3872.14 -738.63 -2204.63)
(-7893.29 558.833 -2022.31)
(-2377.43 -2807.48 -7071.42)
(-6045.68 1936.53 -5666.43)
(-7433.51 -1122.45 -6915.19)
(8341.2 -1306.21 -5319.63)
(3473.14 -511.286 -7379.6)
(-440.238 -748.144 -27.7285)
(-1851.89 -453.539 -405.829)
(-365.401 -560.082 55.8713)
(1389.99 -596.483 1267.75)
(-4122.49 -2935.37 3446.64)
(-9850.27 -1500.55 2774.65)
(-5127.49 -5043.28 -248.869)
(-2400.41 -8390.82 3848.42)
(-5249.62 -11891.9 2641.36)
(8791.9 -22909.4 1018.12)
(-603.64 -269.491 466.49)
(382.678 -369.625 205.894)
(1359.79 107.998 514.585)
(-322.673 -1153.08 1787.59)
(-1121.24 -1907.58 2948.72)
(-6137.42 -543.516 2541.34)
(-8798.92 2342.04 1410.92)
(-13114 1670.41 5696.14)
(-9737.02 7.64134 -195.698)
(2572.59 535.958 -890.294)
(-974.981 -30.5449 464.59)
(-1096.91 325.076 297.03)
(-1932.31 -580.161 732.565)
(-2641.17 -2058.67 239.861)
(-2903.36 -3208.79 1056.4)
(-1351.03 -3558.66 506.182)
(-699.643 -1019.87 2238.21)
(-7069.21 1625.93 3229.96)
(-7518.53 8217 325.338)
(8156.28 5609.82 -1344.22)
(268.864 320.948 588.11)
(-716.554 711.261 878.359)
(-3407.71 511.125 641.903)
(-5579.93 -26.4362 684.983)
(-4121.22 -958.256 108.217)
(-1759.58 -635.366 1863.75)
(1570.25 -1162.53 301.293)
(5359.76 499.579 4243.73)
(-1769.22 5051.95 4299.19)
(-886.507 3374.23 1084.23)
)
;

boundaryField
{
    inlet
    {
        type            zeroGradient;
    }
    outlet
    {
        type            zeroGradient;
    }
    bottom
    {
        type            zeroGradient;
    }
    top
    {
        type            symmetryPlane;
    }
    side1
    {
        type            symmetryPlane;
    }
    side2
    {
        type            symmetryPlane;
    }
    procBoundary26to18
    {
        type            processor;
        value           nonuniform List<vector> 
50
(
(1080.35 1142.98 -709.373)
(263.044 1382.1 -564.422)
(1775.53 147.627 -1522.46)
(9036.72 743.156 -1930.55)
(3810.95 5507.04 -4857.63)
(-3618.3 2572.18 -4148.99)
(-855.028 1110.6 -3205.07)
(-3548.2 -1441.65 -223.765)
(-1044.75 -1901.01 527.23)
(1419.28 -4566.32 344.865)
(2410.47 -3796.99 -1975.4)
(-2338.85 -1604.21 -702.375)
(-2596.07 -2002.89 -959.35)
(-1635.82 -233.752 -3346.16)
(-3288.05 126.447 -7429.24)
(1669.91 -2198.15 -4928.56)
(11705.7 -1275.06 -4201.02)
(8395.15 482.414 -2691.33)
(774.862 -2431.68 -683.155)
(1709.07 75.8115 -4360.26)
(4394.16 -693.838 -2118.39)
(3514.39 -204.956 -2277.8)
(-6684.58 4489.34 -2340.8)
(-11666.9 3898.63 -2409.13)
(-1252.71 5182.2 -3329.3)
(6712.01 8375.34 -3687.66)
(6304.11 1374.15 -4463.62)
(7708.96 1694.76 -8402.35)
(-6385.32 1531.44 -11227.2)
(-17570.4 4394.44 -17452.2)
(810.656 2214.27 -175.489)
(-3050.56 4923.7 -1767.08)
(-3016.33 1848.09 -1271.69)
(-4799.01 1349.55 836.128)
(-7379.33 -2010.55 3757.95)
(-1959.93 -2009.16 1442.26)
(-3381.33 4635.14 1059.94)
(-13248.4 -3577.5 1028.97)
(-28184.8 -843.874 -1166.84)
(-1639.25 1439.57 9055.68)
(202.48 -1581.08 676.88)
(6.55381 -4711.19 372.769)
(1645.68 -4811.43 1632.23)
(4427.91 -3012.75 1829.65)
(686.899 -4645.74 4515.64)
(-1921.61 -5657.39 4350.34)
(4981.6 -9240.81 4527.61)
(583.256 -5915.76 6963.76)
(19300.2 -7774.17 8850.02)
(-5646.84 -4526.6 21802.8)
)
;
    }
    procBoundary26to25
    {
        type            processor;
        value           nonuniform List<vector> 
20
(
(2489.97 -714.479 -941.04)
(2035.8 -675.833 -770.464)
(670.902 -186.535 -1013.24)
(1215.73 226.097 -41.2246)
(-10.8244 -379.089 -1696.93)
(1549.65 -791.353 -1835.98)
(-284.776 980.248 -1396.2)
(2129.72 1781.32 -1352.28)
(2231.62 -871.347 -1386.55)
(1120.57 -194.672 -1344.06)
(-212.361 587.392 -959.912)
(-134.611 296.372 -2126.88)
(1043.79 314.994 -309.106)
(-635.272 -108.725 55.8643)
(-1252.58 -272.273 -251.344)
(-944.289 -85.8314 -380.74)
(-23.0503 -50.479 321.562)
(69.2105 -102.253 334.403)
(-483.037 -111.175 325.607)
(122.731 89.3386 435.089)
)
;
    }
    procBoundary26to27
    {
        type            processor;
        value           nonuniform List<vector> 
20
(
(2328.35 -1073.47 958.733)
(2170.39 -736.354 1424.37)
(2626.22 -1964.72 1792.29)
(6901.53 -1656.35 2774.99)
(-587.061 217.06 -1095.61)
(1768.53 597.338 1157.18)
(1520.82 196.267 2002.25)
(1623.22 -84.0336 3731.65)
(429.178 11365.9 -11000.1)
(613.382 4220.23 -9697.6)
(574.222 2154.43 -7414.79)
(2253.81 1110.69 -8680.28)
(10784.1 4338.65 -3506.07)
(6703.99 6333.84 -9408.29)
(4584.79 1823.98 -6337.56)
(2704.92 -2108.82 -6700.15)
(7528.39 -7782.19 5439.69)
(12088.6 -310.167 22.1287)
(10230.7 6487.45 1287.19)
(1976.89 530.558 2936.8)
)
;
    }
}


// ************************************************************************* //
