/*--------------------------------*- C++ -*----------------------------------*\
| =========                 |                                                 |
| \\      /  F ield         | OpenFOAM: The Open Source CFD Toolbox           |
|  \\    /   O peration     | Version:  2.4.0                                 |
|   \\  /    A nd           | Web:      www.OpenFOAM.org                      |
|    \\/     M anipulation  |                                                 |
\*---------------------------------------------------------------------------*/
FoamFile
{
    version     2.0;
    format      ascii;
    class       volVectorField;
    location    "0.01";
    object      Ua;
}
// * * * * * * * * * * * * * * * * * * * * * * * * * * * * * * * * * * * * * //

dimensions      [0 1 -1 0 0 0 0];

internalField   nonuniform List<vector> 
200
(
(0.610241 0.0448204 0.00739797)
(0.573708 0.0310177 0.0146516)
(0.534205 0.0410109 0.00817854)
(0.464475 0.0104294 0.0216071)
(0.408902 0.00740782 0.00724684)
(0.451321 0.0145181 -0.00501519)
(0.43002 0.0371576 0.0174029)
(0.444312 0.0733044 0.0366831)
(0.492397 0.0516729 0.144633)
(0.557627 0.0479842 -0.0254191)
(0.610378 0.0447165 0.00740909)
(0.573703 0.031084 0.014615)
(0.53419 0.0408719 0.00825084)
(0.464605 0.0105511 0.0215066)
(0.409244 0.00743929 0.00727806)
(0.451019 0.0145676 -0.00486539)
(0.430126 0.0371687 0.0173732)
(0.444334 0.073069 0.0367993)
(0.492198 0.051805 0.143686)
(0.557931 0.0479043 -0.0254426)
(0.610522 0.0446107 0.00741986)
(0.573696 0.0311499 0.0145784)
(0.53417 0.0407327 0.00832285)
(0.464733 0.0106712 0.0214064)
(0.409585 0.00747146 0.0073083)
(0.45072 0.0146182 -0.00471562)
(0.430232 0.0371808 0.0173452)
(0.444358 0.0728344 0.0369176)
(0.492003 0.0519339 0.142741)
(0.558256 0.0478223 -0.0255098)
(0.610672 0.0443806 0.00743029)
(0.573687 0.0311291 0.0145418)
(0.534147 0.0404816 0.00839453)
(0.464857 0.0107598 0.0213064)
(0.409927 0.00748358 0.00733772)
(0.450426 0.0146291 -0.00456588)
(0.430336 0.037091 0.0173187)
(0.444384 0.0724008 0.0370375)
(0.491813 0.0519156 0.141798)
(0.5586 0.0476069 -0.025614)
(0.610444 0.0446821 0.00740788)
(0.573691 0.0310819 0.0146113)
(0.534153 0.0408466 0.00825802)
(0.464576 0.010547 0.0214991)
(0.409262 0.00744056 0.0072727)
(0.451005 0.0145792 -0.00485056)
(0.430132 0.0371757 0.0173811)
(0.444351 0.0730448 0.0368386)
(0.492221 0.0517919 0.143629)
(0.558188 0.0478574 -0.0259143)
(0.610576 0.0445829 0.00741851)
(0.573688 0.0311471 0.0145755)
(0.534143 0.0407124 0.00832814)
(0.464711 0.0106677 0.0214007)
(0.409599 0.00747218 0.00730434)
(0.45071 0.0146264 -0.00470462)
(0.430236 0.0371846 0.0173512)
(0.444371 0.0728138 0.0369467)
(0.492021 0.0519219 0.142697)
(0.558461 0.0477836 -0.0258914)
(0.610715 0.0444813 0.00742884)
(0.573683 0.0312119 0.0145396)
(0.534128 0.0405773 0.0083982)
(0.464841 0.0107868 0.0213025)
(0.409936 0.00750456 0.00733483)
(0.450419 0.0146751 -0.00455822)
(0.430339 0.0371948 0.0173232)
(0.444393 0.0725833 0.0370581)
(0.491827 0.0520487 0.141765)
(0.558762 0.0477071 -0.0259207)
(0.61086 0.0442494 0.00743887)
(0.573676 0.0311859 0.0145035)
(0.534108 0.0403251 0.00846812)
(0.464969 0.0108726 0.0212042)
(0.410274 0.00751586 0.00736439)
(0.450131 0.0146823 -0.00441149)
(0.430442 0.0370987 0.0172968)
(0.444418 0.0721447 0.037172)
(0.491638 0.0520211 0.140833)
(0.559085 0.0474905 -0.0259933)
(0.610644 0.0445461 0.00741743)
(0.573675 0.0311452 0.0145714)
(0.534102 0.0406846 0.00833618)
(0.464678 0.0106636 0.0213922)
(0.409619 0.00747377 0.00729848)
(0.450694 0.0146395 -0.00468797)
(0.430243 0.0371927 0.01736)
(0.44439 0.0727876 0.0369903)
(0.492046 0.0519082 0.142631)
(0.558737 0.0477336 -0.0263925)
(0.610771 0.0444516 0.0074276)
(0.573675 0.0312093 0.0145363)
(0.534097 0.040555 0.00840418)
(0.464817 0.0107833 0.021296)
(0.409952 0.00750553 0.00733052)
(0.450407 0.0146844 -0.00454575)
(0.430344 0.0371995 0.0173298)
(0.444408 0.0725609 0.0370905)
(0.491847 0.0520363 0.141714)
(0.558981 0.047666 -0.0263243)
(0.610905 0.0443538 0.00743752)
(0.573672 0.0312731 0.014501)
(0.534086 0.0404241 0.00847236)
(0.464951 0.0109013 0.0211996)
(0.410285 0.00753812 0.00736126)
(0.450123 0.0147312 -0.00440263)
(0.430446 0.037208 0.0173017)
(0.444428 0.0723343 0.0371952)
(0.491654 0.052161 0.140795)
(0.559257 0.0475947 -0.0263167)
(0.611047 0.0441201 0.00744716)
(0.573666 0.0312419 0.0144656)
(0.534069 0.0401707 0.00854056)
(0.465081 0.0109843 0.0211031)
(0.410619 0.00754859 0.00739096)
(0.449842 0.0147348 -0.00425881)
(0.430547 0.0371055 0.0172755)
(0.444452 0.0718906 0.0373033)
(0.491466 0.0521242 0.139875)
(0.55956 0.0473769 -0.0263586)
(0.610842 0.0444125 0.00742663)
(0.57366 0.0312074 0.0145318)
(0.534053 0.0405252 0.00841291)
(0.464781 0.0107788 0.0212866)
(0.409974 0.00750739 0.00732413)
(0.45039 0.0146989 -0.00452763)
(0.430352 0.0372088 0.0173395)
(0.444429 0.0725331 0.037138)
(0.491874 0.0520217 0.141642)
(0.559274 0.0476131 -0.0268531)
(0.610963 0.0443225 0.00743636)
(0.573662 0.0312705 0.0144975)
(0.534053 0.0404001 0.00847887)
(0.464924 0.0108975 0.0211925)
(0.410302 0.00753928 0.00735655)
(0.45011 0.0147415 -0.00438904)
(0.430452 0.0372134 0.0173091)
(0.444444 0.0723106 0.0372305)
(0.491675 0.0521479 0.140739)
(0.559489 0.0475514 -0.0267409)
(0.611093 0.0442286 0.00744588)
(0.573661 0.0313333 0.0144628)
(0.534045 0.0402731 0.0085452)
(0.465062 0.0110146 0.021098)
(0.410631 0.00757207 0.00738752)
(0.449833 0.0147866 -0.00424909)
(0.430551 0.0372203 0.0172809)
(0.444463 0.0720878 0.0373287)
(0.491482 0.0522707 0.139833)
(0.559741 0.0474854 -0.0266974)
(0.611231 0.0439928 0.00745515)
(0.573657 0.0312969 0.014428)
(0.534032 0.0400185 0.00861174)
(0.465194 0.0110947 0.0210032)
(0.410962 0.0075817 0.00741736)
(0.449558 0.0147866 -0.0041081)
(0.430651 0.0371115 0.0172547)
(0.444485 0.0716391 0.0374311)
(0.491295 0.0522246 0.138924)
(0.560024 0.0472662 -0.0267093)
(0.611037 0.0442811 0.00740828)
(0.573647 0.0312687 0.0144399)
(0.534004 0.040368 0.00845714)
(0.464886 0.0108928 0.0211054)
(0.410327 0.00754146 0.00732281)
(0.450091 0.0147575 -0.00435386)
(0.43046 0.0372239 0.0172568)
(0.444467 0.0722808 0.0371457)
(0.491705 0.0521326 0.140151)
(0.559799 0.0474956 -0.0271959)
(0.611153 0.0441954 0.00741634)
(0.573651 0.0313308 0.0144041)
(0.534009 0.0402473 0.00851945)
(0.465033 0.0110107 0.0210103)
(0.41065 0.00757348 0.00735426)
(0.449818 0.014798 -0.0042186)
(0.430558 0.0372265 0.0172233)
(0.444481 0.0720624 0.0372242)
(0.491505 0.0522571 0.139242)
(0.559986 0.0474398 -0.0270371)
(0.611279 0.0441053 0.00742422)
(0.573652 0.0313927 0.0143678)
(0.534005 0.0401242 0.00858233)
(0.465174 0.0111268 0.0209145)
(0.410976 0.00760647 0.00738412)
(0.449548 0.0148413 -0.0040816)
(0.430655 0.0372317 0.0171922)
(0.444498 0.0718434 0.0373095)
(0.491313 0.0523779 0.138329)
(0.560215 0.0473788 -0.0269546)
(0.611414 0.0438674 0.00743188)
(0.573649 0.0313511 0.0143313)
(0.533995 0.0398683 0.00864554)
(0.465309 0.0112041 0.0208182)
(0.411304 0.00761523 0.00741272)
(0.449279 0.0148377 -0.00394326)
(0.430753 0.0371167 0.0171635)
(0.444519 0.0713896 0.0373999)
(0.491127 0.0523227 0.137412)
(0.560478 0.0471581 -0.026933)
)
;

boundaryField
{
    inlet
    {
        type            calculated;
        value           nonuniform 0();
    }
    outlet
    {
        type            calculated;
        value           nonuniform 0();
    }
    bottom
    {
        type            calculated;
        value           uniform (0 0 0);
    }
    top
    {
        type            symmetryPlane;
    }
    side1
    {
        type            symmetryPlane;
    }
    side2
    {
        type            symmetryPlane;
    }
    procBoundary26to18
    {
        type            processor;
        value           nonuniform List<vector> 
50
(
(0.610314 0.0448597 0.00737955)
(0.573678 0.0309608 0.0146811)
(0.53414 0.0411141 0.0081215)
(0.46428 0.0103037 0.0216912)
(0.408602 0.00738329 0.00720384)
(0.451595 0.014501 -0.00513275)
(0.429927 0.0371785 0.0174499)
(0.444328 0.0735212 0.0366517)
(0.492636 0.0515361 0.145477)
(0.558068 0.0479606 -0.0266786)
(0.610537 0.0447097 0.00739007)
(0.573652 0.0310275 0.0146391)
(0.53407 0.0409395 0.00820553)
(0.464367 0.0104216 0.0215784)
(0.408972 0.00741691 0.00722744)
(0.451266 0.0145695 -0.00495934)
(0.430043 0.0372038 0.0174314)
(0.444375 0.0732545 0.0368287)
(0.492466 0.0516563 0.144441)
(0.558727 0.047818 -0.0273293)
(0.610756 0.0445624 0.00740022)
(0.573628 0.0310932 0.0145973)
(0.534001 0.0407672 0.00828816)
(0.464454 0.0105383 0.0214669)
(0.40934 0.00745105 0.00725095)
(0.450944 0.0146373 -0.00478808)
(0.430157 0.0372283 0.0174136)
(0.444423 0.0729903 0.0370017)
(0.492299 0.0517738 0.143412)
(0.559373 0.0476789 -0.0279586)
(0.610971 0.0444178 0.00741003)
(0.573605 0.0311579 0.014556)
(0.533933 0.0405976 0.00836931)
(0.464542 0.0106536 0.0213567)
(0.409705 0.00748564 0.00727433)
(0.450628 0.0147042 -0.00461917)
(0.430271 0.0372517 0.0173967)
(0.44447 0.0727289 0.0371707)
(0.492135 0.0518884 0.142391)
(0.560005 0.0475434 -0.0285659)
(0.611183 0.0442758 0.00739356)
(0.573582 0.0312215 0.0144647)
(0.533866 0.0404303 0.00841939)
(0.464632 0.0107677 0.0211741)
(0.410068 0.00752072 0.00727213)
(0.450318 0.0147702 -0.00443736)
(0.430383 0.0372742 0.0173202)
(0.444517 0.0724699 0.0372052)
(0.491974 0.0520002 0.140887)
(0.560625 0.0474111 -0.0290487)
)
;
    }
    procBoundary26to25
    {
        type            processor;
        value           nonuniform List<vector> 
20
(
(0.686532 0.0338733 0.00185543)
(0.686493 0.0338692 0.00186975)
(0.686449 0.0338654 0.0018844)
(0.686401 0.0337686 0.00189938)
(0.68645 0.0338683 0.00187267)
(0.686415 0.0338639 0.00188672)
(0.686375 0.0338599 0.00190115)
(0.686329 0.0337587 0.00191595)
(0.686369 0.033863 0.0018899)
(0.686338 0.0338584 0.00190368)
(0.686301 0.0338543 0.00191789)
(0.686258 0.0337486 0.00193252)
(0.686289 0.0338576 0.00190709)
(0.686262 0.0338528 0.00192058)
(0.686228 0.0338486 0.00193459)
(0.686188 0.0337384 0.00194904)
(0.68621 0.033852 0.00191719)
(0.686187 0.033847 0.00193004)
(0.686156 0.0338427 0.00194345)
(0.686119 0.033728 0.00195735)
)
;
    }
    procBoundary26to27
    {
        type            processor;
        value           nonuniform List<vector> 
20
(
(0.871383 0.00450915 -0.554828)
(0.870495 0.00468987 -0.549469)
(0.86958 0.0048746 -0.54404)
(0.86864 0.00504822 -0.538556)
(0.870244 0.00473432 -0.54837)
(0.869383 0.00490883 -0.543214)
(0.868489 0.00508839 -0.537957)
(0.867567 0.00525635 -0.532624)
(0.869115 0.00495666 -0.542015)
(0.868279 0.0051252 -0.537054)
(0.867406 0.00529979 -0.531964)
(0.866501 0.0054622 -0.526774)
(0.867996 0.00517588 -0.53577)
(0.867186 0.00533865 -0.530997)
(0.866332 0.00550845 -0.526068)
(0.865443 0.00566542 -0.521018)
(0.866886 0.0053924 -0.527711)
(0.8661 0.00554962 -0.52305)
(0.865266 0.0057148 -0.518209)
(0.864393 0.00586642 -0.513229)
)
;
    }
}


// ************************************************************************* //
