/*--------------------------------*- C++ -*----------------------------------*\
| =========                 |                                                 |
| \\      /  F ield         | OpenFOAM: The Open Source CFD Toolbox           |
|  \\    /   O peration     | Version:  2.4.0                                 |
|   \\  /    A nd           | Web:      www.OpenFOAM.org                      |
|    \\/     M anipulation  |                                                 |
\*---------------------------------------------------------------------------*/
FoamFile
{
    version     2.0;
    format      ascii;
    class       volVectorField;
    location    "0.01";
    object      A_Source;
}
// * * * * * * * * * * * * * * * * * * * * * * * * * * * * * * * * * * * * * //

dimensions      [1 -2 -2 0 0 0 0];

internalField   nonuniform List<vector> 
60
(
(-2.09252e-05 -2.66642e-05 4.08185e-05)
(-1.98647e-07 -2.53038e-07 3.87496e-07)
(-1.83667e-09 -2.33885e-09 3.58276e-09)
(-1.61057e-11 -2.05036e-11 3.14171e-11)
(-1.34174e-13 -1.70765e-13 2.61731e-13)
(-6.41026e-08 -8.17178e-08 1.25044e-07)
(-5.56164e-10 -7.08783e-10 1.0849e-09)
(-4.92927e-12 -6.27992e-12 9.61544e-12)
(-4.32288e-14 -5.50571e-14 8.43257e-14)
(-3.68723e-16 -4.6948e-16 7.19261e-16)
(-1.81025e-10 -2.30835e-10 3.53122e-10)
(-1.55531e-12 -1.98283e-12 3.03392e-12)
(-1.34487e-14 -1.71408e-14 2.62342e-14)
(-1.16327e-16 -1.48219e-16 2.26916e-16)
(-9.94913e-19 -1.26732e-18 1.94076e-18)
(-4.69093e-13 -5.98298e-13 9.15053e-13)
(-4.1477e-15 -5.28924e-15 8.09085e-15)
(-3.60465e-17 -4.59574e-17 7.03153e-17)
(-3.10725e-19 -3.96059e-19 6.06126e-19)
(-2.65546e-21 -3.38383e-21 5.17997e-21)
(-2.00308e-07 -2.55189e-07 3.90738e-07)
(-1.98602e-09 -2.52924e-09 3.8741e-09)
(-1.91441e-11 -2.43727e-11 3.7344e-11)
(-1.74643e-13 -2.2228e-13 3.40674e-13)
(-1.51077e-15 -1.92233e-15 2.94704e-15)
(-6.41527e-10 -8.17658e-10 1.25142e-09)
(-5.78712e-12 -7.37372e-12 1.12888e-11)
(-5.33128e-14 -6.79068e-14 1.03996e-13)
(-4.85471e-16 -6.18175e-16 9.46999e-16)
(-4.29387e-18 -5.46605e-18 8.37598e-18)
(-1.88887e-12 -2.4082e-12 3.6846e-12)
(-1.68343e-14 -2.14579e-14 3.28384e-14)
(-1.50925e-16 -1.92324e-16 2.94407e-16)
(-1.35265e-18 -1.72317e-18 2.63859e-18)
(-1.19767e-20 -1.52529e-20 2.33627e-20)
(-5.09115e-15 -6.49238e-15 9.93121e-15)
(-4.66276e-17 -5.94511e-17 9.09557e-17)
(-4.19409e-19 -5.34638e-19 8.18134e-19)
(-3.73935e-21 -4.76549e-21 7.29429e-21)
(-3.30291e-23 -4.20814e-23 6.44294e-23)
(-1.00354e-09 -1.2782e-09 1.95758e-09)
(-1.03743e-11 -1.32089e-11 2.0237e-11)
(-1.04097e-13 -1.32497e-13 2.0306e-13)
(-9.86547e-16 -1.25535e-15 1.92444e-15)
(-8.85061e-18 -1.1259e-17 1.72647e-17)
(-3.35431e-12 -4.27441e-12 6.5432e-12)
(-3.14165e-14 -4.00216e-14 6.12837e-14)
(-3.00419e-16 -3.82578e-16 5.86022e-16)
(-2.83694e-18 -3.61166e-18 5.53397e-18)
(-2.59889e-20 -3.30766e-20 5.06961e-20)
(-1.02812e-14 -1.31056e-14 2.00553e-14)
(-9.49304e-17 -1.20982e-16 1.85179e-16)
(-8.81361e-19 -1.12291e-18 1.71926e-18)
(-8.17545e-21 -1.04129e-20 1.59477e-20)
(-7.48588e-23 -9.53182e-23 1.46026e-22)
(-2.87835e-17 -3.66997e-17 5.61475e-17)
(-2.72744e-19 -3.47698e-19 5.32037e-19)
(-2.53641e-21 -3.23273e-21 4.94772e-21)
(-2.33657e-23 -2.97726e-23 4.5579e-23)
(-2.13106e-25 -2.71466e-25 4.15703e-25)
)
;

boundaryField
{
    inlet
    {
        type            zeroGradient;
    }
    outlet
    {
        type            zeroGradient;
    }
    bottom
    {
        type            zeroGradient;
    }
    top
    {
        type            symmetryPlane;
    }
    side1
    {
        type            symmetryPlane;
    }
    side2
    {
        type            symmetryPlane;
    }
    procBoundary34to18
    {
        type            processor;
        value           nonuniform List<vector> 
15
(
(-0.0158103 -0.0201341 0.0308409)
(-0.00012867 -0.00016382 0.000250995)
(-1.00915e-06 -1.28447e-06 1.96853e-06)
(-7.6941e-09 -9.79033e-09 1.50088e-08)
(-5.73462e-11 -7.29454e-11 1.11864e-10)
(-0.000147417 -0.000187685 0.000287563)
(-1.25076e-06 -1.59202e-06 2.43984e-06)
(-1.02114e-08 -1.2994e-08 1.99191e-08)
(-8.09361e-11 -1.0296e-10 1.57881e-10)
(-6.26345e-13 -7.96513e-13 1.2218e-12)
(-7.19916e-07 -9.16329e-07 1.40433e-06)
(-6.3577e-09 -8.09028e-09 1.24018e-08)
(-5.39509e-11 -6.86349e-11 1.05241e-10)
(-4.43931e-13 -5.64583e-13 8.65968e-13)
(-3.56252e-15 -4.5292e-15 6.94935e-15)
)
;
    }
    procBoundary34to33
    {
        type            processor;
        value           nonuniform List<vector> 
12
(
(-0.00487453 -0.00621179 0.00950866)
(-1.19902e-05 -1.52847e-05 2.33892e-05)
(-2.80343e-08 -3.57469e-08 5.4686e-08)
(-6.30814e-11 -8.04551e-11 1.23052e-10)
(-4.54364e-05 -5.78882e-05 8.86321e-05)
(-1.1649e-07 -1.48466e-07 2.27235e-07)
(-2.83487e-10 -3.61411e-10 5.52993e-10)
(-6.6314e-13 -8.45638e-13 1.29358e-12)
(-2.21826e-07 -2.82553e-07 4.32713e-07)
(-5.91822e-10 -7.54125e-10 1.15446e-09)
(-1.49685e-12 -1.90795e-12 2.91988e-12)
(-3.63506e-15 -4.63467e-15 7.09086e-15)
)
;
    }
    procBoundary34to35
    {
        type            processor;
        value           nonuniform List<vector> 
12
(
(-3.92364e-16 -4.99388e-16 7.65377e-16)
(-1.42746e-18 -1.8177e-18 2.78452e-18)
(-4.67149e-21 -5.95076e-21 9.1126e-21)
(-1.40101e-23 -1.78523e-23 2.73292e-23)
(-4.50693e-18 -5.73496e-18 8.79158e-18)
(-1.70123e-20 -2.16587e-20 3.31856e-20)
(-5.76439e-23 -7.34159e-23 1.12445e-22)
(-1.78708e-25 -2.2768e-25 3.48603e-25)
(-2.69215e-20 -3.42492e-20 5.25154e-20)
(-1.05314e-22 -1.3405e-22 2.05433e-22)
(-3.69079e-25 -4.69976e-25 7.19955e-25)
(-1.18169e-27 -1.50526e-27 2.3051e-27)
)
;
    }
    procBoundary34to50
    {
        type            processor;
        value           nonuniform List<vector> 
15
(
(-4.05634e-16 -5.17488e-16 7.91263e-16)
(-4.47981e-18 -5.71398e-18 8.73868e-18)
(-4.68721e-20 -5.9774e-20 9.14327e-20)
(-4.59814e-22 -5.86268e-22 8.96951e-22)
(-4.27815e-24 -5.45359e-24 8.34531e-24)
(-4.49132e-18 -5.72897e-18 8.76115e-18)
(-5.15071e-20 -6.56873e-20 1.00474e-19)
(-5.58709e-22 -7.12389e-22 1.08986e-21)
(-5.67278e-24 -7.23176e-24 1.10658e-23)
(-5.45533e-26 -6.95314e-26 1.06416e-25)
(-2.58919e-20 -3.30219e-20 5.05069e-20)
(-3.07955e-22 -3.92678e-22 6.00722e-22)
(-3.4592e-24 -4.41003e-24 6.74779e-24)
(-3.63146e-26 -4.62874e-26 7.08382e-26)
(-3.60617e-28 -4.59556e-28 7.03449e-28)
)
;
    }
    procBoundary34to98
    {
        type            processor;
        value           nonuniform List<vector> 
20
(
(-1.54393e-12 -1.96632e-12 3.01173e-12)
(-1.58057e-14 -2.01231e-14 3.08319e-14)
(-1.56426e-16 -1.99094e-16 3.05137e-16)
(-1.47697e-18 -1.8793e-18 2.88109e-18)
(-1.33427e-20 -1.69725e-20 2.60273e-20)
(-4.98802e-15 -6.35549e-15 9.73005e-15)
(-4.95024e-17 -6.30559e-17 9.65635e-17)
(-4.89559e-19 -6.23421e-19 9.54974e-19)
(-4.70812e-21 -5.99384e-21 9.18405e-21)
(-4.37057e-23 -5.56264e-23 8.52559e-23)
(-1.5019e-17 -1.9143e-17 2.92973e-17)
(-1.50716e-19 -1.92057e-19 2.93999e-19)
(-1.50782e-21 -1.92093e-21 2.94127e-21)
(-1.47503e-23 -1.87869e-23 2.87731e-23)
(-1.39997e-25 -1.78265e-25 2.7309e-25)
(-4.21358e-20 -5.37201e-20 8.21935e-20)
(-4.34992e-22 -5.54478e-22 8.48531e-22)
(-4.45286e-24 -5.67482e-24 8.68612e-24)
(-4.4482e-26 -5.66763e-26 8.67703e-26)
(-4.31214e-28 -5.49302e-28 8.41162e-28)
)
;
    }
}


// ************************************************************************* //
