/*--------------------------------*- C++ -*----------------------------------*\
| =========                 |                                                 |
| \\      /  F ield         | OpenFOAM: The Open Source CFD Toolbox           |
|  \\    /   O peration     | Version:  2.4.0                                 |
|   \\  /    A nd           | Web:      www.OpenFOAM.org                      |
|    \\/     M anipulation  |                                                 |
\*---------------------------------------------------------------------------*/
FoamFile
{
    version     2.0;
    format      ascii;
    class       volVectorField;
    location    "0.01";
    object      U;
}
// * * * * * * * * * * * * * * * * * * * * * * * * * * * * * * * * * * * * * //

dimensions      [0 1 -1 0 0 0 0];

internalField   nonuniform List<vector> 
60
(
(3.56995e+11 4.79758e+11 1.55894e+11)
(3.17196e+11 4.04833e+11 1.15874e+11)
(4.21479e+11 3.90894e+11 8.86056e+10)
(4.66016e+11 4.67895e+11 7.02093e+10)
(4.89369e+11 4.97613e+11 1.00001e+11)
(1.36793e+11 2.94026e+11 6.52813e+10)
(1.61149e+11 3.19907e+11 7.63468e+10)
(1.56594e+11 1.97412e+11 6.85622e+10)
(2.05277e+11 2.40477e+11 6.9107e+10)
(2.25881e+11 2.45821e+11 1.1664e+11)
(7.60573e+10 2.28648e+11 5.63685e+10)
(2.21848e+10 1.86593e+11 4.09762e+10)
(3.6158e+10 1.4503e+11 4.13163e+10)
(2.48238e+10 1.54534e+11 3.71163e+10)
(4.07048e+10 1.57085e+11 3.29449e+10)
(3.08019e+10 2.0171e+11 4.1914e+10)
(1.84215e+10 1.85569e+11 4.73722e+10)
(2.14389e+10 7.88146e+10 1.86591e+10)
(2.25647e+10 1.02103e+11 2.05199e+10)
(1.91195e+10 7.80047e+10 2.30517e+10)
(1.48611e+11 3.36257e+11 3.97373e+11)
(1.83988e+11 3.61003e+11 3.82015e+11)
(2.27496e+11 4.39014e+11 3.12451e+11)
(2.43568e+11 3.21964e+11 2.41814e+11)
(2.2667e+11 2.20864e+11 2.46726e+11)
(9.35976e+10 3.11133e+11 1.73699e+11)
(9.00592e+10 2.67639e+11 2.01515e+11)
(1.17263e+11 3.09477e+11 2.70911e+11)
(1.10466e+11 2.18389e+11 2.19844e+11)
(9.29623e+10 1.69361e+11 2.14982e+11)
(7.25431e+09 1.63845e+11 1.65757e+11)
(2.34795e+10 1.40874e+11 1.43414e+11)
(5.69959e+10 2.12048e+11 1.44954e+11)
(5.81604e+10 1.66183e+11 1.39972e+11)
(4.31556e+10 1.2262e+11 1.2249e+11)
(-2.12541e+10 1.36161e+11 1.06607e+11)
(-2.07335e+10 9.56544e+10 1.17654e+11)
(-8.21e+09 1.24217e+11 7.30167e+10)
(2.59224e+09 1.10292e+11 5.77793e+10)
(-5.40617e+08 8.21578e+10 5.43875e+10)
(4.6218e+09 3.89086e+10 4.26613e+11)
(2.61867e+10 4.91173e+10 4.48089e+11)
(2.57923e+10 8.24491e+10 4.30347e+11)
(2.97239e+10 6.6771e+10 3.62242e+11)
(3.49462e+09 -7.33352e+09 3.72218e+11)
(-2.60279e+10 4.70674e+10 2.26e+11)
(-7.40242e+09 3.71582e+10 2.98606e+11)
(-3.20266e+10 4.88779e+09 3.60886e+11)
(-1.96234e+08 6.39841e+10 3.22994e+11)
(-1.80217e+10 1.59075e+10 2.88833e+11)
(-5.46693e+10 2.75991e+10 1.57961e+11)
(-4.29214e+10 4.51981e+10 1.74422e+11)
(-5.21791e+10 5.13687e+10 2.1591e+11)
(-4.70646e+10 6.55911e+10 2.41192e+11)
(-4.31642e+10 4.39014e+10 2.37569e+11)
(-5.21245e+10 2.04402e+10 1.22972e+11)
(-4.29647e+10 3.19747e+10 1.32245e+11)
(-4.16852e+10 3.05274e+10 1.16951e+11)
(-3.80616e+10 3.47963e+10 9.48181e+10)
(-4.02377e+10 2.64536e+10 9.91612e+10)
)
;

boundaryField
{
    inlet
    {
        type            calculated;
        value           nonuniform 0();
    }
    outlet
    {
        type            calculated;
        value           nonuniform 0();
    }
    bottom
    {
        type            calculated;
        value           uniform (0 0 0);
    }
    top
    {
        type            symmetryPlane;
    }
    side1
    {
        type            symmetryPlane;
    }
    side2
    {
        type            symmetryPlane;
    }
    procBoundary34to18
    {
        type            processor;
        value           nonuniform List<vector> 
15
(
(6.77227e+11 6.07278e+11 1.91518e+11)
(6.42502e+11 6.66567e+11 1.74757e+11)
(6.03509e+11 6.33653e+11 1.59653e+11)
(6.74067e+11 6.40188e+11 9.78564e+10)
(7.04689e+11 6.18283e+11 9.74655e+10)
(2.90778e+11 5.0536e+11 4.49221e+11)
(3.40146e+11 5.6719e+11 4.8884e+11)
(3.37368e+11 5.26669e+11 5.01774e+11)
(3.72302e+11 3.9336e+11 3.23903e+11)
(3.64351e+11 3.25106e+11 3.29748e+11)
(3.05137e+10 6.87076e+10 4.2756e+11)
(2.30427e+10 3.63919e+10 5.54782e+11)
(2.55985e+10 7.32378e+10 5.07546e+11)
(6.69832e+10 5.13544e+10 4.01548e+11)
(2.97043e+10 1.35356e+10 4.75927e+11)
)
;
    }
    procBoundary34to33
    {
        type            processor;
        value           nonuniform List<vector> 
12
(
(3.44525e+11 5.30652e+11 1.39073e+11)
(1.39396e+11 2.77436e+11 7.64764e+10)
(8.05178e+10 1.85773e+11 5.22862e+10)
(2.0181e+10 1.13915e+11 2.6567e+10)
(1.51415e+11 3.17359e+11 2.97685e+11)
(7.87586e+10 2.72887e+11 1.89941e+11)
(9.52892e+09 1.77707e+11 1.40619e+11)
(-3.40417e+10 1.12556e+11 9.55567e+10)
(-3.43316e+09 6.07556e+10 2.60232e+11)
(-4.48349e+10 4.46794e+10 2.08537e+11)
(-7.94103e+10 2.57261e+10 1.69505e+11)
(-7.02153e+10 1.24152e+10 1.1384e+11)
)
;
    }
    procBoundary34to35
    {
        type            processor;
        value           nonuniform List<vector> 
12
(
(5.29966e+11 5.55282e+11 1.58585e+11)
(2.57435e+11 2.47838e+11 6.9463e+10)
(5.74104e+10 1.4206e+11 3.3165e+10)
(1.74477e+10 7.61339e+10 3.04936e+10)
(1.92569e+11 2.33023e+11 3.00022e+11)
(8.9925e+10 2.25414e+11 2.49305e+11)
(4.16977e+10 1.5326e+11 1.31356e+11)
(-1.00343e+10 1.15716e+11 8.35962e+10)
(-2.0329e+10 5.8402e+09 2.80144e+11)
(-4.41925e+10 2.21144e+10 3.06419e+11)
(-9.88593e+10 2.46371e+10 2.82903e+11)
(-6.80158e+10 2.74174e+10 1.53659e+11)
)
;
    }
    procBoundary34to50
    {
        type            processor;
        value           nonuniform List<vector> 
15
(
(-2.36284e+10 1.4844e+11 3.24057e+10)
(-1.08967e+10 1.35891e+11 3.60027e+10)
(-4.8616e+09 6.39577e+10 2.09442e+10)
(-6.56003e+09 8.23555e+10 2.44898e+10)
(-1.10532e+10 6.04619e+10 2.64267e+10)
(-4.33401e+10 7.92681e+10 7.77583e+10)
(-4.33007e+10 1.0675e+11 7.68279e+10)
(-4.20788e+10 1.0349e+11 6.25855e+10)
(-3.79218e+10 7.6776e+10 5.2342e+10)
(-3.5742e+10 7.93209e+10 5.57739e+10)
(-7.69841e+10 -3.32056e+09 8.51169e+10)
(-6.34676e+10 2.59566e+09 7.98867e+10)
(-4.92341e+10 8.9567e+09 6.99678e+10)
(-4.31051e+10 1.52337e+10 6.39098e+10)
(-4.45124e+10 2.02216e+10 6.34042e+10)
)
;
    }
    procBoundary34to98
    {
        type            processor;
        value           nonuniform List<vector> 
20
(
(-1.52501e+11 -2.15628e+11 3.41171e+11)
(-3.15363e+11 -4.16609e+11 4.53794e+11)
(-3.21141e+11 -2.84582e+11 3.70718e+11)
(-2.01888e+11 -1.47624e+11 2.26356e+11)
(-2.1385e+11 -2.60192e+11 2.80034e+11)
(-9.55167e+10 -1.33963e+11 2.35305e+11)
(-1.2174e+11 -1.2898e+11 1.82124e+11)
(-1.34989e+11 -1.38795e+11 2.41524e+11)
(-1.35918e+11 -1.22576e+11 2.29455e+11)
(-1.27356e+11 -2.07397e+11 2.30332e+11)
(-1.09069e+11 -9.23317e+10 1.17793e+11)
(-1.15095e+11 -1.14212e+11 1.413e+11)
(-1.27529e+11 -1.19771e+11 2.08573e+11)
(-1.37335e+11 -8.47512e+10 2.13512e+11)
(-1.48397e+11 -1.36679e+11 2.13667e+11)
(-1.61517e+11 -6.07041e+10 1.14931e+11)
(-1.81633e+11 -6.69789e+10 1.54878e+11)
(-1.85282e+11 -4.0986e+10 1.60436e+11)
(-1.90229e+11 -3.56226e+10 1.27235e+11)
(-1.73575e+11 -6.15492e+10 1.13121e+11)
)
;
    }
}


// ************************************************************************* //
