/*--------------------------------*- C++ -*----------------------------------*\
| =========                 |                                                 |
| \\      /  F ield         | OpenFOAM: The Open Source CFD Toolbox           |
|  \\    /   O peration     | Version:  2.4.0                                 |
|   \\  /    A nd           | Web:      www.OpenFOAM.org                      |
|    \\/     M anipulation  |                                                 |
\*---------------------------------------------------------------------------*/
FoamFile
{
    version     2.0;
    format      ascii;
    class       volVectorField;
    location    "0.02";
    object      Ua;
}
// * * * * * * * * * * * * * * * * * * * * * * * * * * * * * * * * * * * * * //

dimensions      [0 1 -1 0 0 0 0];

internalField   nonuniform List<vector> 
200
(
(0.196089 0.13957 0.0046942)
(0.202233 0.143944 0.00484113)
(0.208703 0.14855 0.00499589)
(0.215559 0.153431 0.00515989)
(0.222831 0.158608 0.00533387)
(0.230555 0.164107 0.00551867)
(0.23877 0.169956 0.00571526)
(0.247524 0.176188 0.00592474)
(0.256873 0.182846 0.00614849)
(0.266892 0.189982 0.00638832)
(0.217717 0.154855 0.0052178)
(0.224552 0.159716 0.00538169)
(0.231727 0.16482 0.00555373)
(0.239293 0.170202 0.00573518)
(0.247268 0.175874 0.00592642)
(0.255664 0.181847 0.00612777)
(0.264492 0.188129 0.0063395)
(0.273763 0.194727 0.00656184)
(0.283493 0.201653 0.00679518)
(0.293718 0.208934 0.00704038)
(0.237833 0.169063 0.00570574)
(0.245019 0.174172 0.00587834)
(0.25253 0.17951 0.00605874)
(0.260417 0.185117 0.00624821)
(0.268695 0.191001 0.00644707)
(0.277378 0.197173 0.00665565)
(0.28648 0.203645 0.00687433)
(0.29603 0.210436 0.00710378)
(0.306088 0.217591 0.00734546)
(0.316794 0.225209 0.0076027)
(0.254676 0.180946 0.00611519)
(0.26207 0.186199 0.00629301)
(0.269802 0.191692 0.00647898)
(0.277927 0.197464 0.00667443)
(0.286457 0.203524 0.00687966)
(0.295399 0.209877 0.0070948)
(0.304756 0.216524 0.00731993)
(0.314541 0.223478 0.0075554)
(0.324816 0.230782 0.00780267)
(0.335776 0.238577 0.00806648)
(0.216237 0.153868 0.00520441)
(0.222969 0.158659 0.00536609)
(0.230046 0.163696 0.00553608)
(0.237524 0.169018 0.00571572)
(0.245424 0.17464 0.00590551)
(0.253764 0.180576 0.00610593)
(0.262566 0.186841 0.00631744)
(0.271849 0.19345 0.00654057)
(0.281647 0.200426 0.00677609)
(0.292021 0.207814 0.00702546)
(0.235833 0.167708 0.00567323)
(0.243066 0.172851 0.00584718)
(0.250649 0.178244 0.00602956)
(0.258633 0.183922 0.00622163)
(0.267029 0.189894 0.00642364)
(0.275842 0.196162 0.00663571)
(0.285071 0.202727 0.00685783)
(0.294716 0.209589 0.00709001)
(0.304793 0.216761 0.00733265)
(0.31537 0.224293 0.0075874)
(0.253697 0.180314 0.0061037)
(0.261169 0.185625 0.00628364)
(0.268983 0.191178 0.00647185)
(0.277193 0.197013 0.00666963)
(0.285808 0.203136 0.00687721)
(0.294832 0.20955 0.00709469)
(0.304266 0.216256 0.00732207)
(0.314119 0.223261 0.00755961)
(0.324446 0.230605 0.00780863)
(0.335426 0.238418 0.00807345)
(0.268589 0.190808 0.00646412)
(0.276182 0.196202 0.00664718)
(0.284135 0.201852 0.00683897)
(0.29251 0.207801 0.00704097)
(0.301317 0.214056 0.00725345)
(0.310555 0.220618 0.00747636)
(0.32021 0.227477 0.00770941)
(0.330276 0.234627 0.0079524)
(0.340798 0.242105 0.00820648)
(0.352014 0.250082 0.0084774)
(0.234608 0.166897 0.00567352)
(0.241789 0.172007 0.0058467)
(0.249336 0.177376 0.00602873)
(0.257303 0.183045 0.00622092)
(0.265704 0.189023 0.00642363)
(0.274547 0.195315 0.00663704)
(0.283831 0.201921 0.00686114)
(0.293553 0.20884 0.00709589)
(0.303721 0.216079 0.00734147)
(0.31439 0.223676 0.00759921)
(0.252322 0.1794 0.00609074)
(0.259853 0.184755 0.00627242)
(0.267748 0.190369 0.00646293)
(0.276062 0.19628 0.0066636)
(0.284802 0.202495 0.00687461)
(0.293965 0.209011 0.00709591)
(0.303537 0.215819 0.00732718)
(0.313504 0.222908 0.00756809)
(0.323875 0.230288 0.0078189)
(0.334753 0.238032 0.00808212)
(0.268178 0.190579 0.00646933)
(0.275863 0.19604 0.00665493)
(0.283911 0.20176 0.00684935)
(0.292381 0.207779 0.00705403)
(0.301282 0.214104 0.0072692)
(0.31061 0.220732 0.00749476)
(0.320351 0.227655 0.00773038)
(0.330493 0.234863 0.00797577)
(0.341076 0.242388 0.00823196)
(0.352321 0.250389 0.00850431)
(0.281368 0.199862 0.00678653)
(0.289119 0.205368 0.0069739)
(0.297255 0.211147 0.00717063)
(0.305843 0.217247 0.00737838)
(0.314898 0.223677 0.0075975)
(0.324413 0.230435 0.00782784)
(0.33436 0.237499 0.00806872)
(0.344705 0.244846 0.00831932)
(0.355475 0.252499 0.00858034)
(0.36695 0.260658 0.00885857)
(0.251326 0.178745 0.00610425)
(0.258825 0.18408 0.00628585)
(0.26671 0.189689 0.00647683)
(0.275039 0.195614 0.00667862)
(0.283824 0.201864 0.00689153)
(0.293064 0.208437 0.00711554)
(0.302743 0.215323 0.0073503)
(0.312835 0.222503 0.00759515)
(0.323321 0.229965 0.00784971)
(0.334253 0.237749 0.00811527)
(0.267279 0.189999 0.00647242)
(0.275029 0.195509 0.00666)
(0.28316 0.20129 0.00685688)
(0.291733 0.207385 0.00706456)
(0.300757 0.213801 0.00728323)
(0.310222 0.22053 0.00751272)
(0.320103 0.227555 0.00775241)
(0.330364 0.234852 0.00800152)
(0.341003 0.24242 0.00826002)
(0.352156 0.250359 0.00853132)
(0.281374 0.199926 0.00680481)
(0.289223 0.205504 0.00699497)
(0.297458 0.211356 0.00719453)
(0.306145 0.217528 0.00740515)
(0.315295 0.22403 0.00762712)
(0.324902 0.230855 0.00786025)
(0.334934 0.237983 0.00810383)
(0.345355 0.245387 0.00835698)
(0.356186 0.253087 0.00862028)
(0.367691 0.261271 0.00890013)
(0.293092 0.208163 0.00708417)
(0.300978 0.213765 0.00727535)
(0.30927 0.219654 0.00747647)
(0.318048 0.225888 0.00768945)
(0.32733 0.232479 0.00791478)
(0.337107 0.239422 0.00815227)
(0.347338 0.246686 0.00840089)
(0.357959 0.254228 0.00865913)
(0.368973 0.262051 0.00892709)
(0.380702 0.27039 0.00921264)
(0.266606 0.189565 0.00645344)
(0.274325 0.195056 0.00664065)
(0.282447 0.200833 0.00683771)
(0.291039 0.206945 0.00704629)
(0.300116 0.213401 0.00726681)
(0.309674 0.220199 0.00749924)
(0.319685 0.227319 0.00774299)
(0.330098 0.234725 0.00799692)
(0.340869 0.242388 0.00826005)
(0.352048 0.250346 0.00853367)
(0.280939 0.199672 0.00677318)
(0.288854 0.205299 0.00696499)
(0.297168 0.211209 0.00716659)
(0.305951 0.217453 0.00737971)
(0.315214 0.224037 0.00760469)
(0.324947 0.230956 0.00784134)
(0.33511 0.23818 0.00808881)
(0.345647 0.245671 0.00834583)
(0.356536 0.253415 0.00861195)
(0.367949 0.261538 0.00889134)
(0.293501 0.208511 0.00706184)
(0.301487 0.214186 0.00725546)
(0.309878 0.220148 0.00745901)
(0.318751 0.226452 0.00767443)
(0.328124 0.233111 0.0079022)
(0.337987 0.240118 0.00814214)
(0.348296 0.24744 0.00839328)
(0.358986 0.255034 0.00865414)
(0.370056 0.262901 0.00892469)
(0.381809 0.27126 0.00921218)
(0.303946 0.215844 0.00730516)
(0.311955 0.221533 0.00749945)
(0.320389 0.227523 0.00770416)
(0.329338 0.233877 0.00792152)
(0.338828 0.240616 0.00815224)
(0.348853 0.247733 0.00839622)
(0.359356 0.255189 0.0086522)
(0.370245 0.262919 0.00891804)
(0.381493 0.270907 0.00919312)
(0.393467 0.279417 0.0094861)
)
;

boundaryField
{
    inlet
    {
        type            calculated;
        value           uniform (0 0 0);
    }
    outlet
    {
        type            calculated;
        value           nonuniform 0();
    }
    bottom
    {
        type            calculated;
        value           uniform (0 0 0);
    }
    top
    {
        type            symmetryPlane;
    }
    side1
    {
        type            symmetryPlane;
    }
    side2
    {
        type            symmetryPlane;
    }
    procBoundary8to0
    {
        type            processor;
        value           nonuniform List<vector> 
50
(
(0.173653 0.123699 0.00415484)
(0.179111 0.127591 0.00428488)
(0.184876 0.131702 0.00442224)
(0.191005 0.136073 0.00456829)
(0.197534 0.140729 0.00472391)
(0.204503 0.145699 0.00489005)
(0.211961 0.151017 0.00506784)
(0.219959 0.156722 0.00525854)
(0.228558 0.162855 0.0054636)
(0.237828 0.169468 0.00568469)
(0.195813 0.139427 0.00472418)
(0.201895 0.143761 0.00486992)
(0.208301 0.148327 0.00502346)
(0.21509 0.153166 0.00518624)
(0.222297 0.158303 0.00535905)
(0.229958 0.163764 0.0055428)
(0.238119 0.169582 0.00573857)
(0.246831 0.175793 0.00594761)
(0.256162 0.182447 0.00617153)
(0.266202 0.189608 0.00641249)
(0.216368 0.154005 0.00525736)
(0.223025 0.158748 0.00541788)
(0.23002 0.163731 0.00558659)
(0.237411 0.168997 0.0057649)
(0.245223 0.174563 0.0059534)
(0.253483 0.180448 0.00615278)
(0.262224 0.186678 0.00636384)
(0.271491 0.193282 0.00658764)
(0.28135 0.200311 0.00682583)
(0.291924 0.207851 0.00708132)
(0.23517 0.167329 0.00575058)
(0.242302 0.172409 0.00592361)
(0.249787 0.17774 0.00610527)
(0.25768 0.183361 0.00629688)
(0.265997 0.189284 0.00649887)
(0.274753 0.195521 0.00671162)
(0.283964 0.202083 0.00693554)
(0.293662 0.208991 0.00717138)
(0.303911 0.216296 0.00742074)
(0.314871 0.224111 0.00768752)
(0.252345 0.17949 0.00616225)
(0.259838 0.184825 0.00634473)
(0.267699 0.190422 0.00653631)
(0.275986 0.196322 0.0067384)
(0.284707 0.202531 0.0069513)
(0.293867 0.209053 0.00717513)
(0.303465 0.215887 0.00740996)
(0.313511 0.223042 0.00765607)
(0.324066 0.230561 0.00791492)
(0.335333 0.238593 0.00819143)
)
;
    }
    procBoundary8to9
    {
        type            processor;
        value           nonuniform List<vector> 
20
(
(0.280891 0.200005 0.00672246)
(0.307601 0.218859 0.00737237)
(0.331853 0.23597 0.0079636)
(0.351592 0.249873 0.00844611)
(0.306289 0.218036 0.00736783)
(0.330137 0.234852 0.00794229)
(0.351222 0.249705 0.00845352)
(0.368561 0.261898 0.00887611)
(0.329213 0.234296 0.00795732)
(0.350327 0.249167 0.00845849)
(0.368855 0.2622 0.00890392)
(0.384231 0.272994 0.00927672)
(0.349788 0.248877 0.00849364)
(0.368511 0.26205 0.00892893)
(0.384955 0.2736 0.00931949)
(0.3987 0.283232 0.00965014)
(0.368365 0.262028 0.00893525)
(0.385058 0.273762 0.00930972)
(0.399781 0.284089 0.00965077)
(0.41215 0.292742 0.00994196)
)
;
    }
    procBoundary8to16
    {
        type            processor;
        value           nonuniform List<vector> 
50
(
(0.26735 0.189844 0.00642485)
(0.274687 0.195053 0.00660156)
(0.2824 0.200527 0.00678736)
(0.290563 0.206321 0.00698404)
(0.299205 0.212453 0.00719232)
(0.30834 0.218934 0.00741254)
(0.317961 0.225759 0.00764452)
(0.328034 0.232905 0.0078875)
(0.338522 0.240344 0.00814055)
(0.349457 0.248102 0.00840446)
(0.279321 0.198322 0.00672568)
(0.28676 0.203603 0.00690526)
(0.294595 0.209165 0.00709448)
(0.302916 0.215069 0.00729548)
(0.311761 0.221346 0.00750923)
(0.321152 0.228008 0.00773625)
(0.331075 0.235047 0.00797625)
(0.341473 0.242421 0.0082278)
(0.352255 0.250067 0.00848875)
(0.363394 0.257967 0.00875845)
(0.290481 0.206222 0.00700758)
(0.298013 0.211569 0.00718988)
(0.305957 0.217207 0.00738221)
(0.314413 0.223208 0.00758705)
(0.323434 0.229609 0.00780568)
(0.333052 0.236432 0.00803888)
(0.343254 0.243667 0.00828636)
(0.35396 0.251258 0.00854618)
(0.36503 0.259106 0.00881499)
(0.37638 0.267154 0.00909073)
(0.300821 0.213537 0.00727029)
(0.308449 0.218952 0.00745538)
(0.316498 0.224665 0.00765079)
(0.32508 0.230755 0.00785927)
(0.334262 0.237269 0.00808244)
(0.344087 0.244238 0.0083214)
(0.354547 0.251655 0.00857596)
(0.365545 0.259452 0.00884376)
(0.376894 0.267497 0.0091203)
(0.388453 0.27569 0.00940212)
(0.310473 0.220363 0.00745611)
(0.318203 0.225849 0.00764385)
(0.326358 0.231637 0.00784199)
(0.335063 0.237814 0.00805356)
(0.344394 0.244433 0.00828051)
(0.35441 0.251537 0.00852433)
(0.365109 0.259123 0.00878509)
(0.376382 0.267113 0.0090603)
(0.387997 0.275344 0.00934457)
(0.399756 0.283679 0.00963316)
)
;
    }
}


// ************************************************************************* //
