/*--------------------------------*- C++ -*----------------------------------*\
| =========                 |                                                 |
| \\      /  F ield         | OpenFOAM: The Open Source CFD Toolbox           |
|  \\    /   O peration     | Version:  2.4.0                                 |
|   \\  /    A nd           | Web:      www.OpenFOAM.org                      |
|    \\/     M anipulation  |                                                 |
\*---------------------------------------------------------------------------*/
FoamFile
{
    version     2.0;
    format      ascii;
    class       volVectorField;
    location    "0.02";
    object      Ub;
}
// * * * * * * * * * * * * * * * * * * * * * * * * * * * * * * * * * * * * * //

dimensions      [0 1 -1 0 0 0 0];

internalField   nonuniform List<vector> 
200
(
(6.00445 -0.0202719 0.0558261)
(5.87005 -0.0275693 -0.0259158)
(6.05421 -0.142874 -0.154126)
(6.21117 0.0213033 0.446882)
(6.02263 0.17065 0.770747)
(5.80199 0.0578287 0.198721)
(5.91093 -0.0288259 2.78742)
(6.53497 0.748655 -6.34033)
(5.33366 0.520172 -1.73582)
(5.06498 -0.333798 2.16016)
(5.98282 -0.0503249 0.0715136)
(5.97738 -0.0102809 0.0211079)
(5.98268 -0.0693214 0.0517396)
(5.98107 -0.191957 -0.0121359)
(5.9635 -0.134717 0.125674)
(6.0323 -0.174917 0.30197)
(5.50689 0.26275 0.382487)
(5.85954 -0.128987 0.320447)
(5.71179 -0.34279 0.675138)
(5.67189 -0.744239 1.05346)
(5.97567 0.0328643 0.070709)
(6.0616 -0.13741 0.0790213)
(6.13949 -0.254378 0.0649964)
(6.21126 -0.274451 0.00887926)
(6.17977 -0.366758 0.0696637)
(6.70533 0.193014 -0.177366)
(6.33054 -0.892481 0.261732)
(5.66118 -0.45562 0.61572)
(5.2838 0.071178 -0.0475635)
(6.32811 -0.360201 0.758124)
(6.02593 -0.184813 0.0628639)
(6.11369 -0.257737 0.067713)
(6.18809 -0.618531 0.0574532)
(5.96565 -0.330018 0.00320263)
(6.02213 -0.316168 -0.0209323)
(6.33771 -1.08263 0.180573)
(6.441 -1.50178 0.37472)
(6.28228 -0.945961 0.583294)
(6.57042 -0.58544 0.48715)
(5.78695 -2.43629 2.13007)
(6.00498 -0.214733 0.0329716)
(5.85048 -0.159165 0.125323)
(6.49588 -2.13612 -0.436298)
(3.98876 11.3606 0.493633)
(7.2729 0.559908 0.612364)
(6.44299 -1.24741 0.511692)
(6.76083 -1.382 0.66272)
(6.62618 -0.553165 0.0896032)
(6.20857 -2.95703 1.15882)
(3.7828 7.92119 -10.1764)
(6.04975 -0.0669537 -0.0232198)
(5.93859 -0.112522 0.0268381)
(5.58893 -0.146591 0.09366)
(6.17826 -1.18749 0.274824)
(7.42431 -1.17461 -0.0918415)
(6.24827 0.541987 0.915878)
(6.47064 -0.999235 0.340916)
(6.29703 -1.05302 0.464532)
(5.57612 1.07085 0.297188)
(5.11801 -3.8179 -1.17533)
(5.96964 0.0344059 -0.0164231)
(6.02264 -0.385338 -0.0639265)
(6.06584 -0.231917 0.125693)
(6.24583 0.0854968 0.107258)
(6.20796 -0.152789 0.328235)
(6.39214 -0.218527 -2.1628)
(4.53154 2.46696 11.8964)
(7.46283 -0.386647 1.60867)
(7.18635 -0.484182 0.462899)
(4.69076 -2.36642 -1.86422)
(6.3497 -0.19279 0.000664296)
(5.48594 0.58319 0.0588724)
(6.25041 -0.214481 0.02305)
(6.42308 -0.363613 0.0147641)
(6.20843 -0.319914 -0.0142668)
(6.11053 0.507448 0.544941)
(7.14637 -0.912408 0.00471763)
(7.35325 -0.924537 0.322464)
(7.97209 1.99991 -1.20299)
(7.95445 -0.517271 0.51382)
(5.96439 0.102787 -0.0184848)
(6.11121 -0.270827 -0.11224)
(6.21947 -0.316581 -0.0873994)
(6.48088 -0.0518037 0.223254)
(6.55143 0.972287 0.444562)
(7.31829 -1.16694 -1.14165)
(6.96008 -1.90506 -1.78108)
(6.7909 -1.16143 0.222834)
(7.31551 -1.05014 -0.538852)
(7.04675 -1.37811 -1.81236)
(6.02253 -0.122564 -0.0721126)
(5.88469 -0.371385 -0.362546)
(6.18303 -0.44991 -0.282121)
(6.23226 0.196728 0.68746)
(6.77844 0.397116 3.17726)
(7.48283 -1.20031 -0.563039)
(7.01201 -1.49426 -1.31101)
(7.41878 -1.82002 -3.41762)
(7.06382 0.522832 2.32871)
(7.10574 -1.89613 -0.468316)
(5.99543 0.136317 0.17905)
(6.14649 -0.256706 -0.103973)
(6.09661 -0.381606 -0.584083)
(5.99131 -0.556918 -0.515385)
(6.25621 -0.069252 0.678613)
(5.98345 -1.66851 0.663651)
(7.38124 -0.865413 -1.74018)
(7.67647 0.612086 -0.967117)
(8.76864 1.17107 -0.287827)
(8.83674 -1.69868 -1.89456)
(5.99885 0.0721907 0.267474)
(6.02831 -0.36823 -0.052482)
(6.19688 -0.508114 -0.472411)
(6.36112 -0.299705 -0.330589)
(6.65824 -0.590935 -0.0208662)
(6.62621 -0.793675 0.872586)
(6.15615 -3.02075 -0.726529)
(7.4281 -1.95227 -2.18101)
(8.33898 1.15368 0.696374)
(9.43641 -0.416846 -1.00207)
(5.8364 0.0810229 0.0788396)
(6.03259 -0.31693 -0.263965)
(6.27656 -0.514306 -0.693272)
(6.38384 0.443257 -0.199097)
(6.36035 -1.31655 -1.75109)
(6.91989 4.18733 4.68043)
(6.28579 -0.784223 -2.06788)
(6.93466 -1.30422 -2.07343)
(7.06695 -0.245842 -1.95039)
(7.44907 0.278584 -1.68333)
(6.01541 0.299272 0.2025)
(6.08442 -0.281994 -0.328963)
(6.04763 -0.80677 -0.801535)
(6.22345 -0.85206 -1.48989)
(5.68542 0.392748 -0.298159)
(7.01931 1.84539 1.41311)
(8.37975 -0.413727 1.76517)
(7.2289 -1.25383 -2.16514)
(8.37389 -0.962306 -3.35786)
(9.50139 -0.732332 -2.8477)
(6.00781 -0.0786132 -0.166765)
(6.13373 -1.06023 -1.0292)
(6.43756 0.802715 3.37848)
(5.67448 0.387108 -0.221081)
(6.06929 -0.351685 -1.42394)
(6.37304 -1.16261 -2.2074)
(6.49597 -0.902797 -1.06313)
(8.37154 -0.778805 -2.51936)
(8.38214 -1.05032 -2.85967)
(9.02425 -1.76673 -4.20889)
(6.0553 0.0144972 -0.0444023)
(5.87836 -0.150934 -0.185362)
(6.05642 -0.347169 -0.547948)
(6.38568 -0.256617 -0.691354)
(6.62597 -0.709719 -1.15439)
(6.27054 0.103118 -1.49243)
(6.61688 -4.63038 -2.98165)
(6.18283 -1.89851 -4.76588)
(7.73402 -1.21138 -3.75911)
(7.93491 -1.17488 -2.206)
(5.97761 -0.0742833 -0.221742)
(5.94733 -0.0195993 -0.0496182)
(5.62855 0.0928664 -1.0639)
(5.53195 0.869625 1.89691)
(5.07282 -0.661749 0.539041)
(6.24963 -1.81137 -3.17326)
(6.19289 -1.06529 -2.21308)
(5.2155 -1.44775 -1.35316)
(4.83627 -1.15957 -1.40176)
(4.71096 -2.08636 -0.236046)
(5.98157 -0.049302 -0.13575)
(6.00719 -0.207654 -0.320741)
(5.16829 0.178109 -1.11233)
(6.48283 0.156403 4.2951)
(5.40038 -0.663109 0.370896)
(5.08357 -0.89614 -1.55447)
(5.08533 -1.34551 -2.00133)
(4.54609 -1.22597 -1.90989)
(3.40396 -2.31687 -0.695872)
(2.667 -1.81583 -2.2366)
(6.00201 -0.0740658 0.0571804)
(5.84552 -0.228366 -0.121549)
(5.83503 -0.0649218 -0.819182)
(5.70517 0.939558 -2.46526)
(6.06208 -0.00355124 2.65701)
(4.92984 -0.661133 1.72092)
(4.50108 -0.53509 -1.54261)
(3.63979 -1.03345 -1.76466)
(1.84175 -0.889248 -2.34246)
(0.369247 0.952883 4.6314)
(6.04841 0.00757834 0.0769637)
(5.86499 -0.0843457 -0.305747)
(5.63759 -0.0743254 -0.304641)
(5.8685 -0.197568 -0.242052)
(4.75297 0.938923 1.28723)
(6.11346 0.489211 6.12335)
(7.15667 -1.8844 -0.239059)
(3.58039 -0.172232 -2.56742)
(2.058 0.43647 -1.18526)
(1.0527 0.931984 -2.19669)
)
;

boundaryField
{
    inlet
    {
        type            fixedValue;
        value           uniform (6 0 0);
    }
    outlet
    {
        type            zeroGradient;
    }
    bottom
    {
        type            fixedValue;
        value           uniform (0 0 0);
    }
    top
    {
        type            symmetryPlane;
    }
    side1
    {
        type            symmetryPlane;
    }
    side2
    {
        type            symmetryPlane;
    }
    procBoundary8to0
    {
        type            processor;
        value           nonuniform List<vector> 
50
(
(6.08131 -0.18903 0.0491889)
(5.99237 0.175197 0.160111)
(5.76218 0.265798 0.359904)
(5.76694 0.282548 1.10226)
(5.98778 -0.522662 0.627562)
(6.12411 0.838619 0.867848)
(5.89421 0.710895 0.448121)
(6.02375 1.03441 1.43449)
(5.41305 -11.9161 -16.8423)
(6.79165 2.2531 1.1388)
(6.15489 -0.0281468 0.108682)
(5.87244 -0.125472 0.198307)
(8.67778 -0.881367 1.2032)
(5.15993 -0.355847 -3.80951)
(5.15478 0.380502 -0.437968)
(7.44397 -0.196139 1.13032)
(7.64512 -0.32988 1.2817)
(7.96894 -1.28685 0.124493)
(7.98484 -0.118277 0.612774)
(5.30812 -3.97147 -2.79502)
(6.03626 -0.0806802 -0.0814533)
(5.94832 -0.233983 -0.153184)
(6.69648 -0.197963 -0.2784)
(5.60785 0.376038 -0.604224)
(7.43031 -0.0822393 -1.0701)
(3.1959 3.67317 -4.62491)
(7.57976 -5.93078 3.74705)
(7.27315 -1.60495 0.767718)
(7.34551 -0.6705 -1.42816)
(7.10968 -0.830548 -2.05715)
(6.0284 -0.0237733 -0.192721)
(6.13176 -0.13232 -0.351082)
(6.31928 -0.201151 -0.559912)
(6.45176 0.151164 0.138188)
(6.60181 1.1124 -0.304804)
(5.76321 -0.334969 -1.77216)
(6.00357 -1.63522 -2.50194)
(7.18309 -0.222808 -1.94441)
(7.22943 -1.11401 -0.435967)
(7.45868 2.81055 -1.20361)
(6.01199 0.00314592 -0.12244)
(5.79973 -0.334121 -0.241054)
(6.05882 -0.183034 -0.125567)
(5.31201 -1.33367 -0.114217)
(6.501 1.34852 0.731842)
(5.48082 0.48042 -2.17667)
(5.23606 -0.711312 -1.16902)
(5.50871 -0.958926 -0.960331)
(5.14043 -1.38967 -1.38826)
(5.3448 -1.33618 -0.521969)
)
;
    }
    procBoundary8to9
    {
        type            processor;
        value           nonuniform List<vector> 
20
(
(5.96419 0.314448 2.28226)
(5.9176 0.103148 1.69011)
(5.51616 -3.69981 3.84988)
(7.01931 -0.501315 -0.249061)
(7.90719 -2.16285 -0.0083195)
(8.78407 -2.03044 0.183384)
(6.84032 -1.00565 -0.952284)
(6.06595 -3.97643 2.09082)
(6.49119 -1.06247 -0.104291)
(7.45058 -1.89192 -1.96256)
(8.06227 -5.25556 -5.66253)
(9.41372 -3.16527 -5.09832)
(8.41531 1.16698 -1.98816)
(9.38346 0.146065 -2.44904)
(9.97964 -0.850067 -2.23299)
(7.49718 -2.65794 -3.00044)
(3.66236 -1.26783 -0.818613)
(0.0213993 3.51879 14.709)
(0.619914 0.952904 -1.15757)
(-0.766647 5.33125 9.16604)
)
;
    }
    procBoundary8to16
    {
        type            processor;
        value           nonuniform List<vector> 
50
(
(6.1094 -0.173113 0.135487)
(5.65203 -0.74718 -0.0488263)
(6.28939 0.479603 -0.229916)
(6.63048 0.162395 0.177418)
(6.15199 -0.876101 0.159257)
(5.90935 -1.52996 0.139129)
(6.28647 -1.36365 0.273091)
(6.73142 -1.24576 0.122562)
(7.4008 1.14117 -0.457573)
(6.59918 -1.70839 1.1348)
(6.00293 -0.139789 0.0367661)
(6.05729 -0.562537 -0.0170287)
(6.22913 -0.83488 -0.0398247)
(5.88967 0.516916 -0.12376)
(6.47628 -0.384668 0.0310556)
(6.95206 -1.32688 0.151543)
(6.90932 -1.67262 0.269358)
(7.16929 0.295548 -0.928381)
(7.57411 -1.94873 -0.228456)
(7.8168 3.47203 -2.90939)
(5.97924 -0.0116428 -0.0761958)
(6.05519 -0.279082 0.169832)
(6.27463 -0.736649 -0.0925769)
(6.35312 -0.788973 -0.463915)
(6.89037 -0.891691 -2.83226)
(6.51941 2.62987 4.91649)
(7.58069 -0.659494 1.34519)
(7.24452 -1.0364 -1.4158)
(7.84156 -1.08592 -1.43012)
(8.60947 -1.79096 -1.28343)
(5.99899 -0.104731 -0.140376)
(6.0993 -0.123117 -0.480593)
(6.13502 0.00496641 0.53985)
(6.19002 -0.488765 -0.44951)
(6.1184 -0.442359 -0.980646)
(6.47248 -0.56039 -1.71902)
(6.10701 -0.560671 -2.21404)
(6.64007 -0.685414 -2.43068)
(5.55074 -1.77321 -3.33564)
(6.9998 -2.10313 -4.28588)
(5.99871 0.0220358 0.0763029)
(5.91952 -0.179737 -0.153466)
(5.84986 -0.120858 -0.477109)
(5.90079 -0.104667 -0.411251)
(5.65303 0.186141 -0.74728)
(5.82726 -0.654457 -0.00252213)
(4.99647 -0.388396 -0.491754)
(4.28571 0.804919 0.234258)
(4.93344 -0.464454 -1.55439)
(2.0561 1.82612 -0.435908)
)
;
    }
}


// ************************************************************************* //
