/*--------------------------------*- C++ -*----------------------------------*\
| =========                 |                                                 |
| \\      /  F ield         | OpenFOAM: The Open Source CFD Toolbox           |
|  \\    /   O peration     | Version:  2.4.0                                 |
|   \\  /    A nd           | Web:      www.OpenFOAM.org                      |
|    \\/     M anipulation  |                                                 |
\*---------------------------------------------------------------------------*/
FoamFile
{
    version     2.0;
    format      ascii;
    class       volVectorField;
    location    "0.02";
    object      Ua;
}
// * * * * * * * * * * * * * * * * * * * * * * * * * * * * * * * * * * * * * //

dimensions      [0 1 -1 0 0 0 0];

internalField   nonuniform List<vector> 
200
(
(1.07883 -0.0895527 -0.139502)
(2.23063 -0.0708762 -0.168635)
(2.24355 -0.0706483 -0.168962)
(2.24641 -0.0705837 -0.169034)
(2.24744 -0.0705487 -0.169061)
(2.24787 -0.0703097 -0.169039)
(2.07305 0.737503 -0.0386195)
(1.95951 1.22609 0.0423567)
(1.95237 1.22506 0.044524)
(1.94549 1.22476 0.0471132)
(1.07827 -0.0895746 -0.139488)
(2.22839 -0.0709185 -0.168579)
(2.24293 -0.0706662 -0.168947)
(2.24613 -0.0705978 -0.169028)
(2.24728 -0.0705626 -0.169057)
(2.24737 -0.0696946 -0.168901)
(1.72365 0.925428 0.0331571)
(1.64805 1.07527 0.0661095)
(1.6513 1.08322 0.0702239)
(1.65813 1.09406 0.0748684)
(1.07749 -0.0895992 -0.139468)
(2.22605 -0.0709619 -0.16852)
(2.24229 -0.0706834 -0.168931)
(2.24585 -0.0706107 -0.169021)
(2.24713 -0.0705747 -0.169053)
(2.24537 -0.0675479 -0.168352)
(1.47749 0.9394 0.0732577)
(1.45921 0.994235 0.0877561)
(1.47507 1.01149 0.0931324)
(1.49433 1.03185 0.0992485)
(1.07664 -0.0896238 -0.139446)
(2.2236 -0.0710064 -0.168458)
(2.24165 -0.0707 -0.168914)
(2.24557 -0.0706225 -0.169014)
(2.24698 -0.0705847 -0.169049)
(2.2388 -0.0610939 -0.166552)
(1.35334 0.928412 0.0961657)
(1.36404 0.962667 0.105117)
(1.39007 0.987004 0.111217)
(1.41982 1.01475 0.118124)
(2.2483 -0.07059 -0.169082)
(2.24888 -0.0706062 -0.169096)
(2.24888 -0.0705893 -0.169096)
(2.24888 -0.0705724 -0.169096)
(2.24888 -0.0705556 -0.169095)
(2.24883 -0.0705247 -0.169089)
(1.89246 0.0626226 -0.111731)
(0.706194 0.550342 0.0903772)
(0.748978 0.584213 0.0959939)
(0.797584 0.622144 0.102236)
(2.2482 -0.0705975 -0.16908)
(2.24887 -0.0706127 -0.169095)
(2.24887 -0.0705974 -0.169095)
(2.24886 -0.0705821 -0.169095)
(2.24886 -0.0705668 -0.169095)
(2.24846 -0.0703855 -0.169027)
(1.15978 0.41865 0.0268751)
(0.806234 0.628772 0.103358)
(0.852588 0.665006 0.109319)
(0.904466 0.705503 0.115973)
(2.24811 -0.0706044 -0.169078)
(2.24886 -0.0706176 -0.169095)
(2.24886 -0.0706037 -0.169095)
(2.24885 -0.0705897 -0.169095)
(2.24885 -0.0705757 -0.169095)
(2.24675 -0.0695392 -0.168697)
(0.942361 0.613793 0.0904737)
(0.893956 0.697153 0.114633)
(0.943078 0.735504 0.120936)
(0.997757 0.778193 0.127948)
(2.24802 -0.0706106 -0.169075)
(2.24885 -0.0706216 -0.169095)
(2.24884 -0.0706087 -0.169095)
(2.24884 -0.0705959 -0.169095)
(2.24884 -0.0705826 -0.169095)
(2.24091 -0.0661874 -0.167462)
(0.94781 0.704287 0.11283)
(0.968956 0.75556 0.124261)
(1.01995 0.795363 0.130802)
(1.07655 0.839559 0.138059)
(2.24851 -0.070568 -0.169087)
(2.24888 -0.0705892 -0.169096)
(2.24888 -0.0705724 -0.169096)
(2.24888 -0.0705555 -0.169095)
(2.24887 -0.0705387 -0.169095)
(2.24883 -0.0705035 -0.169088)
(1.90099 0.0857614 -0.106496)
(0.80665 0.628631 0.103288)
(0.852637 0.665031 0.109316)
(0.904506 0.705522 0.11597)
(2.24845 -0.0705768 -0.169086)
(2.24887 -0.0705973 -0.169095)
(2.24886 -0.070582 -0.169095)
(2.24886 -0.0705668 -0.169095)
(2.24886 -0.0705516 -0.169095)
(2.24844 -0.0703317 -0.169015)
(1.21651 0.470195 0.0360052)
(0.893987 0.697129 0.114625)
(0.943073 0.7355 0.120935)
(0.997752 0.77819 0.127947)
(2.24839 -0.0705845 -0.169085)
(2.24885 -0.0706036 -0.169095)
(2.24885 -0.0705897 -0.169095)
(2.24885 -0.0705758 -0.169095)
(2.24885 -0.0705618 -0.169095)
(2.24667 -0.0693479 -0.168648)
(1.01073 0.666801 0.0991929)
(0.968953 0.75555 0.12426)
(1.01994 0.795358 0.130802)
(1.07654 0.839554 0.138059)
(2.24834 -0.0705914 -0.169084)
(2.24884 -0.0706086 -0.169095)
(2.24884 -0.0705959 -0.169095)
(2.24884 -0.0705831 -0.169095)
(2.24883 -0.0705697 -0.169094)
(2.24078 -0.0655992 -0.167309)
(1.01015 0.752154 0.120668)
(1.03356 0.805845 0.132553)
(1.08597 0.846756 0.139276)
(1.14402 0.892083 0.146717)
(2.24857 -0.0705486 -0.169089)
(2.24888 -0.0705723 -0.169096)
(2.24888 -0.0705555 -0.169095)
(2.24887 -0.0705387 -0.169095)
(2.24887 -0.0705219 -0.169095)
(2.24882 -0.0704824 -0.169086)
(1.91569 0.104034 -0.102898)
(0.894405 0.696957 0.114546)
(0.943123 0.735525 0.120932)
(0.997792 0.778209 0.127944)
(2.24852 -0.070559 -0.169088)
(2.24886 -0.0705819 -0.169095)
(2.24886 -0.0705668 -0.169095)
(2.24886 -0.0705516 -0.169095)
(2.24886 -0.0705364 -0.169095)
(2.24842 -0.070281 -0.169005)
(1.27095 0.511852 0.0428084)
(0.968998 0.75553 0.12425)
(1.01995 0.795361 0.130801)
(1.07655 0.839556 0.138058)
(2.24848 -0.070568 -0.169087)
(2.24885 -0.0705896 -0.169095)
(2.24885 -0.0705757 -0.169095)
(2.24885 -0.0705619 -0.169095)
(2.24884 -0.0705479 -0.169095)
(2.24664 -0.0691761 -0.168606)
(1.07115 0.711644 0.106399)
(1.03357 0.80584 0.132551)
(1.08598 0.846757 0.139276)
(1.14402 0.892083 0.146717)
(2.24844 -0.070576 -0.169086)
(2.24884 -0.0705957 -0.169095)
(2.24884 -0.070583 -0.169095)
(2.24884 -0.0705703 -0.169095)
(2.24883 -0.0705568 -0.169094)
(2.24075 -0.0650873 -0.167181)
(1.06499 0.7937 0.127424)
(1.09001 0.849769 0.139798)
(1.14361 0.891601 0.146672)
(1.20281 0.93784 0.154262)
(2.2486 -0.07053 -0.168464)
(2.24888 -0.0705554 -0.168504)
(2.24887 -0.0705386 -0.168469)
(2.24887 -0.0705219 -0.168435)
(2.24887 -0.0705051 -0.1684)
(2.24882 -0.0704617 -0.168355)
(1.93359 0.117342 -0.100324)
(0.969585 0.755448 0.123576)
(1.02015 0.795507 0.13021)
(1.07674 0.839692 0.137466)
(2.24855 -0.070542 -0.168429)
(2.24886 -0.0705666 -0.168469)
(2.24886 -0.0705515 -0.168434)
(2.24886 -0.0705364 -0.1684)
(2.24886 -0.0705213 -0.168365)
(2.24841 -0.0702341 -0.168233)
(1.32227 0.545063 0.0474228)
(1.03378 0.805944 0.131889)
(1.08614 0.846882 0.138622)
(1.14417 0.892201 0.146063)
(2.24852 -0.0705525 -0.168394)
(2.24885 -0.0705756 -0.168434)
(2.24885 -0.0705618 -0.168399)
(2.24884 -0.070548 -0.168365)
(2.24884 -0.070534 -0.16833)
(2.24663 -0.0690246 -0.167774)
(1.12519 0.74999 0.11178)
(1.09018 0.849887 0.139081)
(1.14376 0.891719 0.145956)
(1.20295 0.937952 0.153546)
(2.24849 -0.0705615 -0.168358)
(2.24884 -0.0705829 -0.168399)
(2.24884 -0.0705702 -0.168365)
(2.24883 -0.0705576 -0.16833)
(2.24883 -0.0705439 -0.168295)
(2.24081 -0.0646476 -0.166255)
(1.11402 0.830332 0.13258)
(1.14018 0.888795 0.145441)
(1.19478 0.93141 0.152444)
(1.25493 0.978392 0.160155)
)
;

boundaryField
{
    inlet
    {
        type            calculated;
        value           nonuniform 0();
    }
    outlet
    {
        type            calculated;
        value           nonuniform 0();
    }
    bottom
    {
        type            calculated;
        value           uniform (0 0 0);
    }
    top
    {
        type            symmetryPlane;
    }
    side1
    {
        type            symmetryPlane;
    }
    side2
    {
        type            symmetryPlane;
    }
    procBoundary21to13
    {
        type            processor;
        value           nonuniform List<vector> 
50
(
(1.07809 -0.0895682 -0.139483)
(2.23268 -0.0708374 -0.168687)
(2.24419 -0.070631 -0.168978)
(2.24673 -0.07057 -0.169042)
(2.24765 -0.0705354 -0.169066)
(2.24808 -0.0704656 -0.169071)
(2.248 0.285671 -0.120745)
(2.24709 1.37507 0.0271018)
(2.24711 1.37548 0.0271514)
(2.24713 1.37555 0.0271516)
(2.2484 -0.0705828 -0.169085)
(2.24892 -0.0706006 -0.169097)
(2.24892 -0.070582 -0.169097)
(2.24892 -0.0705634 -0.169097)
(2.24892 -0.0705448 -0.169097)
(2.24892 -0.0705262 -0.169097)
(2.24889 -0.0704713 -0.169089)
(2.0374 0.249448 -0.102381)
(1.53349 0.99313 0.0564219)
(1.52296 0.992908 0.0604259)
(2.2486 -0.0705597 -0.16909)
(2.24892 -0.0705819 -0.169097)
(2.24892 -0.0705634 -0.169097)
(2.24892 -0.0705448 -0.169097)
(2.24892 -0.0705262 -0.169097)
(2.24892 -0.0705076 -0.169097)
(2.24889 -0.0704631 -0.169091)
(2.02975 0.159645 -0.111955)
(1.3327 0.900017 0.0747485)
(1.33568 0.910085 0.0802497)
(2.24865 -0.0705389 -0.169091)
(2.24892 -0.0705633 -0.169097)
(2.24892 -0.0705448 -0.169097)
(2.24892 -0.0705262 -0.169097)
(2.24892 -0.0705076 -0.169097)
(2.24892 -0.070489 -0.169097)
(2.24889 -0.0704469 -0.169091)
(2.03673 0.129459 -0.115254)
(1.26604 0.879995 0.0884455)
(1.2794 0.897413 0.094712)
(2.24868 -0.0705187 -0.1685)
(2.24892 -0.0705446 -0.16854)
(2.24892 -0.0705261 -0.168506)
(2.24892 -0.0705076 -0.168471)
(2.24892 -0.070489 -0.168436)
(2.24892 -0.0704704 -0.168402)
(2.24889 -0.0704289 -0.16836)
(2.04837 0.114178 -0.116806)
(1.24904 0.88566 0.0990052)
(1.26985 0.908298 0.10576)
)
;
    }
    procBoundary21to20
    {
        type            processor;
        value           nonuniform List<vector> 
20
(
(0.965204 -0.0914595 -0.136627)
(0.96521 -0.0914698 -0.136627)
(0.965217 -0.0914777 -0.136627)
(0.965226 -0.0914841 -0.136627)
(1.86862 -0.0767273 -0.159481)
(1.86367 -0.0768182 -0.159355)
(1.85918 -0.0769004 -0.159242)
(1.85515 -0.0769738 -0.159139)
(2.02421 -0.0741742 -0.163417)
(2.02075 -0.0742425 -0.163329)
(2.01764 -0.0743035 -0.16325)
(2.01488 -0.0743575 -0.16318)
(2.08872 -0.0731049 -0.165049)
(2.08607 -0.0731615 -0.164982)
(2.08373 -0.0732115 -0.164922)
(2.08166 -0.0732555 -0.16487)
(2.12409 -0.0725103 -0.165307)
(2.12194 -0.0725604 -0.16522)
(2.12006 -0.0726044 -0.16514)
(2.11842 -0.0726426 -0.165065)
)
;
    }
    procBoundary21to22
    {
        type            processor;
        value           nonuniform List<vector> 
20
(
(1.94223 1.22732 0.0500333)
(1.6701 1.10885 0.0800708)
(1.51962 1.05723 0.106292)
(1.45719 1.04882 0.126197)
(0.852694 0.665147 0.109311)
(0.962861 0.751125 0.123462)
(1.06041 0.827175 0.13598)
(1.14261 0.891221 0.146527)
(0.962895 0.751142 0.123459)
(1.06041 0.827172 0.13598)
(1.14261 0.891217 0.146527)
(1.21277 0.945858 0.155528)
(1.06044 0.827188 0.135976)
(1.14261 0.891218 0.146526)
(1.21277 0.945857 0.155528)
(1.27371 0.993308 0.163348)
(1.14278 0.891342 0.145934)
(1.21291 0.945965 0.154874)
(1.27384 0.99341 0.162631)
(1.32755 1.03521 0.16946)
)
;
    }
    procBoundary21to29
    {
        type            processor;
        value           nonuniform List<vector> 
50
(
(1.07894 -0.0895707 -0.139505)
(2.22154 -0.0710326 -0.168407)
(2.2409 -0.0707053 -0.168897)
(2.24517 -0.070623 -0.169005)
(2.2467 -0.0705809 -0.169042)
(2.2214 -0.0448686 -0.161777)
(1.29122 0.922438 0.111408)
(1.31543 0.953428 0.118894)
(1.34835 0.982687 0.125596)
(1.38567 1.01556 0.132982)
(2.24789 -0.0706055 -0.169073)
(2.24875 -0.070614 -0.169094)
(2.24875 -0.0706018 -0.169094)
(2.24874 -0.0705897 -0.169093)
(2.24873 -0.0705757 -0.169093)
(2.22586 -0.0565927 -0.164048)
(0.990211 0.759333 0.123841)
(1.02967 0.802685 0.13206)
(1.08231 0.843732 0.138812)
(1.13983 0.888601 0.14619)
(2.24823 -0.0705866 -0.169082)
(2.24875 -0.0706017 -0.169094)
(2.24874 -0.0705897 -0.169093)
(2.24874 -0.0705777 -0.169093)
(2.24873 -0.0705634 -0.169092)
(2.22624 -0.0555113 -0.163804)
(1.04388 0.800387 0.130555)
(1.08468 0.84548 0.139121)
(1.13876 0.88765 0.146057)
(1.19734 0.933343 0.153571)
(2.24833 -0.0705716 -0.169085)
(2.24874 -0.0705896 -0.169093)
(2.24874 -0.0705776 -0.169093)
(2.24873 -0.0705657 -0.169093)
(2.24873 -0.0705512 -0.169092)
(2.22679 -0.0546539 -0.163629)
(1.09166 0.836699 0.136476)
(1.13341 0.883378 0.145375)
(1.18868 0.926475 0.152464)
(1.24812 0.972839 0.160088)
(2.24838 -0.0705578 -0.168322)
(2.24874 -0.0705775 -0.168363)
(2.24873 -0.0705656 -0.168329)
(2.24873 -0.0705537 -0.168294)
(2.24872 -0.0705389 -0.168258)
(2.22748 -0.0539937 -0.162675)
(1.13486 0.869297 0.140925)
(1.17726 0.917469 0.150132)
(1.23351 0.961332 0.157345)
(1.29365 1.00823 0.165063)
)
;
    }
}


// ************************************************************************* //
