/*--------------------------------*- C++ -*----------------------------------*\
| =========                 |                                                 |
| \\      /  F ield         | OpenFOAM: The Open Source CFD Toolbox           |
|  \\    /   O peration     | Version:  2.4.0                                 |
|   \\  /    A nd           | Web:      www.OpenFOAM.org                      |
|    \\/     M anipulation  |                                                 |
\*---------------------------------------------------------------------------*/
FoamFile
{
    version     2.0;
    format      ascii;
    class       volVectorField;
    location    "0.02";
    object      Uc;
}
// * * * * * * * * * * * * * * * * * * * * * * * * * * * * * * * * * * * * * //

dimensions      [0 1 -1 0 0 0 0];

internalField   nonuniform List<vector> 
200
(
(1.31136e-26 -1.08854e-27 -1.69569e-27)
(3.94161e-26 -1.25241e-27 -2.97985e-27)
(2.47532e-27 -7.79466e-29 -1.86416e-28)
(8.33004e-29 -2.61735e-30 -6.26806e-30)
(1.98767e-30 -6.23942e-32 -1.49519e-31)
(3.76846e-32 -1.17871e-33 -2.83386e-33)
(1.473e-33 5.24029e-34 -2.74409e-35)
(1.36166e-31 8.52008e-32 2.94337e-33)
(2.07748e-29 1.30357e-29 4.73772e-31)
(3.07723e-27 1.93723e-27 7.45201e-29)
(2.43583e-29 -2.0235e-30 -3.15105e-30)
(6.89423e-29 -2.19409e-30 -5.21552e-30)
(4.61263e-30 -1.45327e-31 -3.47442e-31)
(1.64834e-31 -5.18089e-33 -1.24043e-32)
(4.16279e-33 -1.30708e-34 -3.13156e-34)
(8.33117e-35 -2.58363e-36 -6.2613e-36)
(8.49871e-36 4.56296e-36 1.63486e-37)
(1.08664e-33 7.08983e-34 4.35895e-35)
(1.62558e-31 1.06634e-31 6.91299e-33)
(2.36876e-29 1.56294e-29 1.06955e-30)
(4.33194e-32 -3.60223e-33 -5.60714e-33)
(1.15754e-31 -3.68999e-33 -8.76298e-33)
(8.21927e-33 -2.59094e-34 -6.19226e-34)
(3.10848e-34 -9.77324e-36 -2.33942e-35)
(8.28364e-36 -2.60161e-37 -6.23185e-37)
(1.74689e-37 -5.2552e-39 -1.30977e-38)
(5.26873e-38 3.3499e-38 2.61237e-39)
(7.44319e-36 5.07144e-36 4.4763e-37)
(1.08885e-33 7.4665e-34 6.87477e-35)
(1.54482e-31 1.06672e-31 1.02602e-32)
(7.42421e-35 -6.18022e-36 -9.61582e-36)
(1.87732e-34 -5.99486e-36 -1.42224e-35)
(1.40987e-35 -4.44662e-37 -1.06237e-36)
(5.62594e-37 -1.76934e-38 -4.23438e-38)
(1.5777e-38 -4.95607e-40 -1.18697e-39)
(3.50599e-40 -9.56736e-42 -2.60823e-41)
(3.02742e-40 2.07686e-40 2.15123e-41)
(4.34682e-38 3.06776e-38 3.3498e-39)
(6.21202e-36 4.41077e-36 4.97012e-37)
(8.59066e-34 6.13977e-34 7.14712e-35)
(3.99101e-25 -1.25306e-26 -3.00142e-26)
(6.84113e-24 -2.14785e-25 -5.14391e-25)
(4.03409e-25 -1.26625e-26 -3.03327e-26)
(1.27573e-26 -4.0034e-28 -9.59237e-28)
(2.86964e-28 -9.00312e-30 -2.15771e-29)
(5.14441e-30 -1.61332e-31 -3.86807e-31)
(8.48636e-32 2.80819e-33 -5.01034e-33)
(1.24671e-30 9.71569e-31 1.59551e-31)
(2.26309e-28 1.76524e-28 2.90052e-29)
(4.03255e-26 3.14553e-26 5.16899e-27)
(6.97214e-28 -2.18937e-29 -5.24351e-29)
(1.12271e-26 -3.52522e-28 -8.4418e-28)
(7.09156e-28 -2.22621e-29 -5.33224e-29)
(2.39191e-29 -7.50718e-31 -1.79851e-30)
(5.71637e-31 -1.79373e-32 -4.29822e-32)
(1.0851e-32 -3.39678e-34 -8.15717e-34)
(3.36786e-34 1.21571e-34 7.80422e-36)
(2.85038e-32 2.22298e-32 3.65414e-33)
(4.88884e-30 3.81323e-30 6.26846e-31)
(8.19637e-28 6.39334e-28 1.05096e-28)
(1.16915e-30 -3.67183e-32 -8.79302e-32)
(1.77677e-29 -5.57932e-31 -1.33598e-30)
(1.1968e-30 -3.75739e-32 -8.99892e-32)
(4.28858e-32 -1.34615e-33 -3.22466e-33)
(1.08515e-33 -3.40553e-35 -8.15943e-35)
(2.17519e-35 -6.73243e-37 -1.63324e-36)
(2.31558e-36 1.50822e-36 2.22313e-37)
(3.26064e-34 2.54282e-34 4.18114e-35)
(5.33415e-32 4.16009e-32 6.84026e-33)
(8.50033e-30 6.62978e-30 1.09004e-30)
(1.89366e-33 -5.94802e-35 -1.42424e-34)
(2.72674e-32 -8.56292e-34 -2.05029e-33)
(1.95095e-33 -6.12556e-35 -1.46696e-34)
(7.40153e-35 -2.3235e-36 -5.56536e-36)
(1.97677e-36 -6.20434e-38 -1.48637e-37)
(4.17817e-38 -1.23406e-39 -3.12232e-39)
(1.63317e-38 1.21356e-38 1.94418e-39)
(2.50546e-36 1.95368e-36 3.21306e-37)
(3.92925e-34 3.06405e-34 5.03899e-35)
(5.98473e-32 4.66725e-32 7.67494e-33)
(2.46267e-27 -7.72892e-29 -1.85192e-28)
(3.94775e-26 -1.23914e-27 -2.96836e-27)
(2.49359e-27 -7.82516e-29 -1.87495e-28)
(8.41069e-29 -2.63874e-30 -6.32409e-30)
(2.01006e-30 -6.30481e-32 -1.51139e-31)
(3.81532e-32 -1.19615e-33 -2.86871e-33)
(6.75204e-34 3.04612e-35 -3.78257e-35)
(1.11452e-32 8.68557e-33 1.42709e-33)
(1.91019e-30 1.48989e-30 2.44903e-31)
(3.20241e-28 2.49791e-28 4.10594e-29)
(4.58712e-30 -1.43985e-31 -3.44957e-31)
(6.9416e-29 -2.17913e-30 -5.21948e-30)
(4.67573e-30 -1.46751e-31 -3.51575e-31)
(1.6755e-31 -5.25753e-33 -1.25983e-32)
(4.23958e-33 -1.33005e-34 -3.1878e-34)
(8.49474e-35 -2.65718e-36 -6.38551e-36)
(2.95565e-36 1.14239e-36 8.74782e-38)
(2.54763e-34 1.98663e-34 3.2665e-35)
(4.16743e-32 3.25017e-32 5.34411e-33)
(6.64107e-30 5.17966e-30 8.5162e-31)
(8.1704e-33 -2.56496e-34 -6.14435e-34)
(1.17181e-31 -3.67894e-33 -8.81105e-33)
(8.38414e-33 -2.63172e-34 -6.30418e-34)
(3.18079e-34 -9.98228e-36 -2.39169e-35)
(8.49515e-36 -2.66551e-37 -6.38765e-37)
(1.7926e-37 -5.5332e-39 -1.34562e-38)
(2.14469e-38 1.41489e-38 2.10478e-39)
(2.9361e-36 2.28945e-36 3.76529e-37)
(4.60457e-34 3.59067e-34 5.90509e-35)
(7.01332e-32 5.46942e-32 8.99409e-33)
(1.4009e-35 -4.39843e-37 -1.05353e-36)
(1.91077e-34 -5.99939e-36 -1.43675e-35)
(1.44714e-35 -4.54287e-37 -1.08813e-36)
(5.79459e-37 -1.81872e-38 -4.35707e-38)
(1.62897e-38 -5.11179e-40 -1.22485e-39)
(3.61621e-40 -1.05865e-41 -2.70006e-41)
(1.54838e-40 1.15292e-40 1.84962e-41)
(2.29328e-38 1.78803e-38 2.94112e-39)
(3.46099e-36 2.6986e-36 4.43871e-37)
(5.05915e-34 3.94504e-34 6.48824e-35)
(8.10597e-30 -2.54323e-31 -6.09556e-31)
(1.22046e-28 -3.82995e-30 -9.1768e-30)
(8.22082e-30 -2.57917e-31 -6.18133e-31)
(2.94587e-31 -9.24008e-33 -2.21503e-32)
(7.45411e-33 -2.33752e-34 -5.60483e-34)
(1.49344e-34 -4.68072e-36 -1.1229e-35)
(2.81727e-36 1.52995e-37 -1.51325e-37)
(4.9807e-35 3.88117e-35 6.37877e-36)
(8.14177e-33 6.34962e-33 1.04398e-33)
(1.2974e-30 1.01189e-30 1.66362e-31)
(1.60365e-32 -5.03228e-34 -1.20594e-33)
(2.28913e-31 -7.18456e-33 -1.72123e-32)
(1.63783e-32 -5.13934e-34 -1.23151e-33)
(6.21367e-34 -1.94936e-35 -4.67215e-35)
(1.65954e-35 -5.20522e-37 -1.24783e-36)
(3.50016e-37 -1.09408e-38 -2.63094e-38)
(1.33386e-38 5.37189e-39 4.49274e-40)
(1.14708e-36 8.94384e-37 1.47085e-37)
(1.79879e-34 1.40271e-34 2.30682e-35)
(2.73976e-32 2.13663e-32 3.51351e-33)
(3.02359e-35 -9.48947e-37 -2.27376e-36)
(4.10586e-34 -1.2888e-35 -3.08727e-35)
(3.10959e-35 -9.75885e-37 -2.33816e-36)
(1.24514e-36 -3.90687e-38 -9.36244e-38)
(3.50034e-38 -1.09808e-39 -2.63197e-39)
(7.75598e-40 -2.38814e-41 -5.8207e-41)
(1.01191e-40 6.72287e-41 1.00514e-41)
(1.34379e-38 1.04771e-38 1.72337e-39)
(2.028e-36 1.58127e-36 2.60089e-37)
(2.96445e-34 2.31162e-34 3.80182e-35)
(5.47125e-38 -1.71736e-39 -4.11447e-39)
(7.08903e-37 -2.22539e-38 -5.33039e-38)
(5.66549e-38 -1.7782e-39 -4.26e-39)
(2.38772e-39 -7.49286e-41 -1.79538e-40)
(7.04758e-41 -2.21117e-42 -5.29922e-42)
(1.63942e-42 -4.76205e-44 -1.22317e-43)
(7.49682e-43 5.58712e-43 8.96978e-44)
(1.07366e-40 8.37023e-41 1.37701e-41)
(1.56422e-38 1.21952e-38 2.00617e-39)
(2.20165e-36 1.71664e-36 2.82364e-37)
(1.89366e-32 -5.9397e-34 -1.41872e-33)
(2.6879e-31 -8.43292e-33 -2.01399e-32)
(1.92334e-32 -6.0328e-34 -1.44083e-33)
(7.29765e-34 -2.28845e-35 -5.46575e-35)
(1.94927e-35 -6.11122e-37 -1.45965e-36)
(4.11124e-37 -1.28816e-38 -3.07783e-38)
(8.2163e-39 4.98613e-40 -4.263e-40)
(1.49873e-37 1.16773e-37 1.91016e-38)
(2.34828e-35 1.83117e-35 2.99729e-36)
(3.57616e-33 2.78887e-33 4.56567e-34)
(3.96581e-35 -1.24416e-36 -2.97061e-36)
(5.35721e-34 -1.68103e-35 -4.01325e-35)
(4.0577e-35 -1.27299e-36 -3.03913e-36)
(1.62496e-36 -5.09675e-38 -1.21681e-37)
(4.56858e-38 -1.43265e-39 -3.42036e-39)
(1.01184e-39 -3.16069e-41 -7.57085e-41)
(4.14464e-41 1.7085e-41 1.48647e-42)
(3.50893e-39 2.7356e-39 4.47667e-40)
(5.29447e-37 4.12819e-37 6.75725e-38)
(7.73823e-35 6.03412e-35 9.87851e-36)
(7.89162e-38 -2.47618e-39 -5.9101e-39)
(1.01753e-36 -3.19333e-38 -7.62112e-38)
(8.13283e-38 -2.55183e-39 -6.09007e-39)
(3.42794e-39 -1.07537e-40 -2.5664e-40)
(1.0119e-40 -3.17377e-42 -7.57424e-42)
(2.34925e-42 -7.21776e-44 -1.75438e-43)
(3.26793e-43 2.17822e-43 3.24646e-44)
(4.20532e-41 3.27841e-41 5.36499e-42)
(6.12586e-39 4.77596e-39 7.81728e-40)
(8.62108e-37 6.72192e-37 1.1004e-37)
(1.50305e-40 -4.71685e-42 -1.12543e-41)
(1.85466e-39 -5.82112e-41 -1.38882e-40)
(1.55991e-40 -4.89511e-42 -1.16786e-41)
(6.90291e-42 -2.1658e-43 -5.16697e-43)
(2.13458e-43 -6.69601e-45 -1.59745e-44)
(5.19282e-45 -1.49814e-46 -3.85277e-46)
(2.4888e-45 1.85502e-45 2.96193e-46)
(3.4515e-43 2.69052e-43 4.40273e-44)
(4.8665e-41 3.79375e-41 6.20925e-42)
(6.61264e-39 5.15547e-39 8.4391e-40)
)
;

boundaryField
{
    inlet
    {
        type            calculated;
        value           nonuniform 0();
    }
    outlet
    {
        type            calculated;
        value           nonuniform 0();
    }
    bottom
    {
        type            calculated;
        value           uniform (0 0 0);
    }
    top
    {
        type            symmetryPlane;
    }
    side1
    {
        type            symmetryPlane;
    }
    side2
    {
        type            symmetryPlane;
    }
    procBoundary21to13
    {
        type            processor;
        value           nonuniform List<vector> 
50
(
(6.824e-24 -5.66941e-25 -8.82885e-25)
(2.15615e-23 -6.84092e-25 -1.62905e-24)
(1.26676e-24 -3.98687e-26 -9.5382e-26)
(4.00341e-26 -1.25748e-27 -3.01214e-27)
(9.00443e-28 -2.82575e-29 -6.77303e-29)
(1.61437e-29 -5.06023e-31 -1.21412e-30)
(3.25274e-31 4.13351e-32 -1.74712e-32)
(1.29886e-29 7.94815e-30 1.56653e-31)
(2.05139e-27 1.25568e-27 2.47866e-29)
(3.14545e-25 1.92544e-25 3.80058e-27)
(2.18574e-22 -6.86158e-24 -1.64373e-23)
(3.99068e-21 -1.2528e-22 -3.00061e-22)
(2.18564e-22 -6.85962e-24 -1.6434e-23)
(6.45162e-24 -2.0243e-25 -4.851e-25)
(1.3606e-25 -4.26797e-27 -1.02304e-26)
(2.29574e-27 -7.19945e-29 -1.72617e-28)
(3.29279e-29 -1.03183e-30 -2.47578e-30)
(5.39522e-31 6.6056e-32 -2.71113e-32)
(1.89954e-29 1.2302e-29 6.98901e-31)
(2.8556e-27 1.86173e-27 1.133e-28)
(1.26089e-24 -3.95661e-26 -9.48163e-26)
(2.13837e-23 -6.71124e-25 -1.60785e-24)
(1.26095e-24 -3.95644e-26 -9.48116e-26)
(3.98765e-26 -1.25086e-27 -2.99833e-27)
(8.96993e-28 -2.81298e-29 -6.74453e-29)
(1.60805e-29 -5.04152e-31 -1.2091e-30)
(2.44204e-31 -7.65149e-33 -1.83613e-32)
(3.86833e-33 3.04253e-34 -2.13365e-34)
(9.17593e-32 6.19682e-32 5.1466e-33)
(1.35003e-29 9.19866e-30 8.11121e-31)
(3.8969e-27 -1.22244e-28 -2.93034e-28)
(6.1701e-26 -1.93596e-27 -4.63932e-27)
(3.8973e-27 -1.22252e-28 -2.93039e-28)
(1.31454e-28 -4.1224e-30 -9.88408e-30)
(3.14164e-30 -9.84962e-32 -2.36221e-31)
(5.9632e-32 -1.86908e-33 -4.48375e-33)
(9.55886e-34 -2.99433e-35 -7.18715e-35)
(1.54765e-35 9.83724e-37 -8.7578e-37)
(3.00629e-34 2.0896e-34 2.10019e-35)
(4.31141e-32 3.02417e-32 3.19167e-33)
(8.5797e-30 -2.6906e-31 -6.42904e-31)
(1.27381e-28 -3.99573e-30 -9.54632e-30)
(8.58093e-30 -2.69098e-31 -6.42948e-31)
(3.07524e-31 -9.64144e-33 -2.30373e-32)
(7.78237e-33 -2.43927e-34 -5.82873e-34)
(1.55937e-34 -4.88631e-36 -1.16767e-35)
(2.6314e-36 -8.24081e-38 -1.96997e-37)
(4.40694e-38 2.45646e-39 -2.513e-39)
(7.50086e-37 5.31866e-37 5.94556e-38)
(1.04636e-34 7.4844e-35 8.71464e-36)
)
;
    }
    procBoundary21to20
    {
        type            processor;
        value           nonuniform List<vector> 
20
(
(3.48411e-25 -3.30143e-26 -4.93184e-26)
(6.12722e-28 -5.80657e-29 -8.67317e-29)
(1.03448e-30 -9.80416e-32 -1.4643e-31)
(1.68704e-33 -1.59897e-34 -2.38799e-34)
(1.4041e-26 -5.76538e-28 -1.19836e-27)
(2.59267e-29 -1.06866e-30 -2.21689e-30)
(4.58511e-32 -1.89652e-33 -3.92722e-33)
(7.8175e-35 -3.24364e-36 -6.70606e-36)
(8.48343e-29 -3.10862e-30 -6.84876e-30)
(1.66187e-31 -6.10574e-33 -1.34323e-32)
(3.10843e-34 -1.14474e-35 -2.51507e-35)
(5.58936e-37 -2.06271e-38 -4.52669e-38)
(2.86775e-31 -1.00371e-32 -2.26608e-32)
(5.94421e-34 -2.08472e-35 -4.70112e-35)
(1.17314e-36 -4.12182e-38 -9.28515e-38)
(2.22002e-39 -7.81244e-41 -1.75828e-40)
(6.95397e-34 -2.37389e-35 -5.41195e-35)
(1.52094e-36 -5.2009e-38 -1.18425e-37)
(3.1594e-39 -1.08198e-40 -2.46098e-40)
(6.27803e-42 -2.15279e-43 -4.89178e-43)
)
;
    }
    procBoundary21to22
    {
        type            processor;
        value           nonuniform List<vector> 
20
(
(4.45655e-25 2.81613e-25 1.14804e-26)
(3.35582e-27 2.22807e-27 1.6089e-28)
(2.13202e-29 1.4833e-29 1.49128e-30)
(1.16085e-31 8.35525e-32 1.00533e-32)
(7.02608e-24 5.48072e-24 9.00704e-25)
(1.33843e-25 1.0441e-25 1.71618e-26)
(1.32148e-27 1.03082e-27 1.69458e-28)
(8.92207e-30 6.95907e-30 1.14415e-30)
(5.22929e-26 4.0793e-26 6.70482e-27)
(1.03244e-27 8.05352e-28 1.32393e-28)
(1.04555e-29 8.15512e-30 1.3408e-30)
(7.26338e-32 5.66484e-32 9.31476e-33)
(2.01694e-28 1.57329e-28 2.58624e-29)
(4.08443e-30 3.18578e-30 5.23778e-31)
(4.25601e-32 3.31933e-32 5.45801e-33)
(3.05301e-34 2.3809e-34 3.91536e-35)
(5.33055e-31 4.1577e-31 6.80714e-32)
(1.11081e-32 8.66337e-33 1.41837e-33)
(1.19531e-34 9.32168e-35 1.52605e-35)
(8.8756e-37 6.9211e-37 1.13295e-37)
)
;
    }
    procBoundary21to29
    {
        type            processor;
        value           nonuniform List<vector> 
50
(
(1.14171e-37 -9.47817e-39 -1.47621e-38)
(2.85797e-37 -9.13822e-39 -2.16652e-38)
(2.25839e-38 -7.12571e-40 -1.70215e-39)
(9.46244e-40 -2.97646e-41 -7.12283e-41)
(2.78002e-41 -8.73355e-43 -2.0917e-42)
(6.51973e-43 -1.31688e-44 -4.74811e-44)
(1.43345e-42 1.02405e-42 1.2368e-43)
(2.02298e-40 1.46626e-40 1.82845e-41)
(2.80858e-38 2.04691e-38 2.61613e-39)
(3.78865e-36 2.7767e-36 3.63596e-37)
(2.87928e-36 -9.04373e-38 -2.16563e-37)
(4.03869e-35 -1.26821e-36 -3.03687e-36)
(3.05698e-36 -9.59771e-38 -2.29868e-37)
(1.22339e-37 -3.84031e-39 -9.19923e-39)
(3.43742e-39 -1.07882e-40 -2.58475e-40)
(7.66384e-41 -1.94853e-42 -5.64831e-42)
(9.00567e-41 6.90591e-41 1.1263e-41)
(1.36688e-38 1.06556e-38 1.75309e-39)
(2.05862e-36 1.60483e-36 2.6403e-37)
(3.01648e-34 2.35161e-34 3.8688e-35)
(2.24275e-38 -7.04145e-40 -1.6867e-39)
(2.99465e-37 -9.40201e-39 -2.25181e-38)
(2.39212e-38 -7.50903e-40 -1.79874e-39)
(1.00766e-39 -3.16258e-41 -7.57705e-41)
(2.97282e-41 -9.32849e-43 -2.2354e-42)
(6.94789e-43 -1.73246e-44 -5.11219e-44)
(8.51926e-43 6.53207e-43 1.06548e-43)
(1.24712e-40 9.72098e-41 1.59955e-41)
(1.81246e-38 1.41279e-38 2.32467e-39)
(2.56568e-36 1.99998e-36 3.29073e-37)
(9.19859e-41 -2.8873e-42 -6.91776e-42)
(1.17207e-39 -3.6792e-41 -8.81331e-41)
(9.85276e-41 -3.09233e-42 -7.40876e-42)
(4.35767e-42 -1.36745e-43 -3.27675e-43)
(1.34682e-43 -4.2255e-45 -1.01274e-44)
(3.29239e-45 -8.08077e-47 -2.41932e-46)
(4.14026e-45 3.17328e-45 5.17603e-46)
(5.85775e-43 4.56551e-43 7.51334e-44)
(8.23329e-41 6.41715e-41 1.05603e-41)
(1.12833e-38 8.79466e-39 1.44723e-39)
(2.64787e-43 -8.30944e-45 -1.98229e-44)
(3.22642e-42 -1.01263e-43 -2.41563e-43)
(2.84737e-43 -8.9351e-45 -2.1314e-44)
(1.31935e-44 -4.13946e-46 -9.874e-46)
(4.26344e-46 -1.33738e-47 -3.19008e-47)
(1.08805e-47 -2.63743e-49 -7.94619e-49)
(1.38515e-47 1.06102e-47 1.72006e-48)
(1.8976e-45 1.47884e-45 2.41994e-46)
(2.58443e-43 2.01416e-43 3.29666e-44)
(3.43503e-41 2.67717e-41 4.38294e-42)
)
;
    }
}


// ************************************************************************* //
