/*--------------------------------*- C++ -*----------------------------------*\
| =========                 |                                                 |
| \\      /  F ield         | OpenFOAM: The Open Source CFD Toolbox           |
|  \\    /   O peration     | Version:  2.4.0                                 |
|   \\  /    A nd           | Web:      www.OpenFOAM.org                      |
|    \\/     M anipulation  |                                                 |
\*---------------------------------------------------------------------------*/
FoamFile
{
    version     2.0;
    format      ascii;
    class       volVectorField;
    location    "0.1";
    object      gradp;
}
// * * * * * * * * * * * * * * * * * * * * * * * * * * * * * * * * * * * * * //

dimensions      [1 -2 -2 0 0 0 0];

internalField   nonuniform List<vector> 
200
(
(-1.17899e+18 7.69776e+16 -9.74399e+16)
(-1.17377e+18 6.12705e+16 -1.55454e+17)
(-1.16313e+18 4.85752e+16 -1.45572e+17)
(-1.10864e+18 9.02615e+16 -2.17526e+17)
(-1.14029e+18 4.17857e+16 -2.12705e+17)
(-1.03734e+18 2.18657e+17 -3.04038e+17)
(-9.52788e+17 1.15131e+17 -3.6266e+17)
(-9.60914e+17 2.36861e+17 -5.0408e+17)
(-1.42655e+18 1.29044e+17 -7.15483e+17)
(-1.54485e+18 4.34439e+17 -8.13914e+17)
(-1.33509e+18 4.88379e+17 -2.56564e+17)
(-1.23057e+18 3.5769e+17 -2.04409e+17)
(-1.10514e+18 2.48799e+17 -2.61512e+17)
(-1.12222e+18 4.28153e+17 -2.64472e+17)
(-8.83504e+17 5.64996e+17 -2.99135e+17)
(-8.90651e+17 6.54194e+17 -4.26219e+17)
(-9.1638e+17 8.52473e+17 -5.24753e+17)
(-9.33089e+17 1.00833e+18 -8.18882e+17)
(-1.03139e+18 1.2563e+18 -9.9522e+17)
(-1.87091e+18 1.81284e+18 -1.21199e+18)
(-1.63403e+18 2.60935e+17 -4.61071e+17)
(-1.65293e+18 3.5046e+17 -4.32953e+17)
(-1.0222e+18 5.53168e+17 -2.73086e+17)
(-4.76248e+17 5.32534e+17 -4.04684e+17)
(-6.88212e+17 7.39747e+17 -5.02943e+17)
(-4.62388e+17 1.23103e+18 -6.05551e+17)
(-2.44513e+17 1.32398e+18 -8.12232e+17)
(-1.53261e+17 1.85932e+18 -1.04149e+18)
(1.82477e+17 2.27246e+18 -1.55938e+18)
(7.10435e+17 2.75256e+18 -1.54727e+18)
(-1.41475e+18 -3.27947e+17 -4.85999e+17)
(-6.46105e+17 -1.36296e+17 -4.63679e+17)
(-7.40996e+17 3.80427e+17 -5.68648e+17)
(-7.49061e+17 5.2509e+17 -4.37626e+17)
(5.13496e+17 9.7714e+17 -4.80363e+17)
(2.77808e+17 1.4315e+18 -7.02732e+17)
(3.40198e+17 1.62598e+18 -7.355e+17)
(9.63881e+17 1.88795e+18 -1.19689e+18)
(7.55079e+17 2.38873e+18 -1.35402e+18)
(2.0607e+18 2.90364e+18 -1.44356e+18)
(-1.29611e+18 -1.77621e+17 -2.59064e+17)
(-1.32779e+18 -1.70572e+16 -3.02877e+17)
(-1.36176e+18 -1.36929e+17 -4.56556e+17)
(-1.32347e+18 1.51482e+16 -4.92649e+17)
(-1.41713e+18 -9.6501e+16 -6.8202e+17)
(-1.5172e+18 2.31681e+16 -7.11788e+17)
(-1.59292e+18 -1.44217e+17 -1.04499e+18)
(-2.08995e+18 -2.66823e+17 -9.48102e+17)
(-2.41801e+18 -3.18535e+17 -1.70473e+18)
(-1.43879e+17 -2.02477e+17 -4.23093e+17)
(-1.20223e+18 -9.34305e+16 -2.52716e+17)
(-1.2464e+18 -8.6309e+16 -4.37464e+17)
(-1.29735e+18 4.47779e+16 -4.25421e+17)
(-1.24261e+18 1.28701e+17 -7.44642e+17)
(-1.40109e+18 1.00616e+17 -7.67317e+17)
(-1.61263e+18 1.71773e+17 -1.22924e+18)
(-2.1729e+18 1.33157e+17 -1.34803e+18)
(-2.43859e+18 1.48468e+17 -2.05004e+18)
(-2.28932e+18 -9.39296e+16 -2.15065e+18)
(-4.3059e+18 6.3948e+17 -3.20173e+18)
(-1.40564e+18 -1.0616e+17 -6.57785e+17)
(-1.05137e+18 -6.43714e+16 -4.98975e+17)
(-9.31737e+17 6.17502e+16 -6.61494e+17)
(-1.21179e+18 2.55489e+17 -7.68907e+17)
(-1.33099e+18 4.49782e+17 -1.15599e+18)
(-1.45211e+18 7.88613e+17 -1.34931e+18)
(-1.63953e+18 9.86782e+17 -1.77669e+18)
(-2.54412e+18 1.25451e+18 -2.12054e+18)
(-1.43599e+18 1.69839e+18 -2.66828e+18)
(-7.82001e+16 2.38204e+18 -3.15032e+18)
(-5.31453e+17 -4.1548e+17 -5.6326e+17)
(-9.10583e+17 -4.06766e+17 -7.36517e+17)
(-6.57627e+17 -1.76995e+17 -9.7229e+17)
(-4.66549e+17 2.14172e+17 -1.22564e+18)
(-3.34845e+17 8.13273e+17 -1.3373e+18)
(-5.3863e+17 9.82381e+17 -1.99934e+18)
(-1.2411e+18 1.5341e+18 -2.16008e+18)
(-1.01537e+18 1.95129e+18 -2.9199e+18)
(-3.42814e+16 2.83825e+18 -3.25694e+18)
(3.51107e+17 3.39202e+18 -3.98302e+18)
(-1.55167e+18 8.71334e+16 -1.54342e+17)
(-1.80574e+18 -1.54067e+17 -1.92208e+17)
(-1.77039e+18 9.83912e+16 -2.33656e+17)
(-1.83013e+18 -3.12928e+17 -3.429e+17)
(-1.84154e+18 -9.46891e+16 -4.7061e+17)
(-2.19883e+18 -6.09273e+17 -7.31651e+17)
(-1.70899e+18 -3.69732e+17 -1.07809e+18)
(-3.0721e+18 -1.52624e+18 -1.77179e+18)
(2.53482e+17 -5.84425e+17 -1.9626e+18)
(-6.81304e+18 -4.01138e+18 -3.30021e+18)
(-1.54494e+18 -1.49575e+17 -2.17616e+17)
(-1.78322e+18 4.39336e+16 -2.21357e+17)
(-2.08812e+18 -7.91018e+16 -4.26762e+17)
(-2.21629e+18 -1.38591e+16 -5.13915e+17)
(-2.43423e+18 -1.93359e+17 -8.53731e+17)
(-2.74892e+18 -3.65837e+17 -1.02548e+18)
(-3.54294e+18 -3.18258e+17 -1.57657e+18)
(-3.50149e+18 -8.67567e+17 -1.86385e+18)
(-4.71679e+18 -2.8538e+17 -2.79324e+18)
(-5.64862e+18 -2.55073e+18 -3.54724e+18)
(-1.58851e+18 -2.35935e+17 -1.93798e+17)
(-1.66479e+18 -1.28025e+17 -4.80521e+17)
(-1.88598e+18 -3.21822e+17 -5.53584e+17)
(-2.05864e+18 -2.37062e+17 -8.07174e+17)
(-2.54549e+18 -1.72231e+17 -9.76457e+17)
(-2.44863e+18 -1.12594e+15 -1.31581e+18)
(-2.71245e+18 2.46902e+16 -1.58795e+18)
(-3.00635e+18 4.67557e+17 -1.96127e+18)
(-3.11284e+18 5.02403e+17 -2.08212e+18)
(-3.66181e+18 1.50249e+18 -2.74911e+18)
(-1.23657e+18 -6.03691e+17 -5.05908e+17)
(-1.955e+18 -7.3081e+17 -7.46202e+17)
(-2.30619e+18 -5.61097e+17 -9.31298e+17)
(-1.9171e+18 -7.84588e+17 -1.29299e+18)
(-1.96236e+18 -5.03718e+17 -1.5548e+18)
(-2.35507e+18 -4.04129e+17 -1.97968e+18)
(-2.60557e+18 -1.52185e+16 -2.39232e+18)
(-2.54606e+18 -1.25687e+16 -2.72265e+18)
(-2.64691e+18 7.33974e+16 -3.09971e+18)
(-3.65354e+18 -3.09747e+17 -3.82117e+18)
(-1.50186e+18 -2.7886e+17 -1.07284e+16)
(-1.5816e+18 -6.36966e+16 2.18832e+15)
(-1.84397e+18 -4.45897e+17 1.25718e+16)
(-2.08172e+18 -2.58476e+17 1.19244e+15)
(-2.66114e+18 -7.09494e+17 1.03354e+17)
(-3.46114e+18 -4.46961e+17 1.97461e+17)
(-4.92135e+18 -9.41786e+17 4.5024e+17)
(-4.92036e+18 -4.14133e+17 2.30635e+17)
(-7.30896e+18 -1.64757e+18 1.14643e+17)
(-6.80551e+18 -5.97728e+17 -2.95814e+18)
(-1.82415e+18 -1.5656e+17 7.32392e+15)
(-1.91567e+18 -5.4761e+17 -8.10642e+16)
(-2.23353e+18 -4.67107e+17 -7.04743e+16)
(-2.60891e+18 -6.14138e+17 -1.41878e+17)
(-3.03811e+18 -7.0874e+17 -2.00368e+17)
(-3.92573e+18 -7.62887e+17 -3.18289e+17)
(-4.8557e+18 -6.82615e+17 -4.48004e+17)
(-6.33193e+18 -1.54711e+17 -6.60692e+17)
(-7.67615e+18 -2.85164e+17 -1.14011e+18)
(-9.60792e+18 1.52123e+18 -3.15947e+18)
(-1.83041e+18 -5.67428e+17 -9.50682e+16)
(-2.20269e+18 -9.04122e+17 -1.95701e+17)
(-1.97703e+18 -7.45508e+17 -1.86158e+17)
(-2.56499e+18 -9.91026e+17 -2.5963e+17)
(-2.95863e+18 -6.71928e+17 -3.86517e+17)
(-3.40889e+18 -7.38104e+17 -4.72369e+17)
(-3.705e+18 -3.18414e+17 -9.21332e+17)
(-4.12546e+18 -1.19558e+17 -1.37277e+18)
(-3.95707e+18 1.20804e+18 -2.29004e+18)
(-3.96501e+18 1.94375e+18 -3.92619e+18)
(-2.1766e+18 -1.04506e+18 -3.76373e+17)
(-2.27183e+18 -7.30884e+17 -1.27335e+17)
(-2.40734e+18 -1.56508e+18 -3.17387e+17)
(-2.46175e+18 -1.30254e+18 -1.47641e+17)
(-2.53226e+18 -1.72158e+18 -4.88774e+17)
(-3.2187e+18 -1.24349e+18 -6.37891e+17)
(-3.6186e+18 -9.76912e+17 -8.92624e+17)
(-3.27902e+18 -8.54366e+17 -1.15047e+18)
(-3.54954e+18 -1.25414e+18 -1.67595e+18)
(-2.44301e+18 -1.92644e+18 -1.91687e+18)
(-1.67882e+18 1.16017e+17 -1.80104e+16)
(-1.73118e+18 -2.87271e+17 4.69725e+16)
(-1.77358e+18 -3.44827e+16 -6.47556e+16)
(-1.53962e+18 -5.41841e+17 6.89697e+16)
(-1.21348e+18 -5.80644e+17 1.04649e+17)
(-1.0888e+18 -1.43447e+18 5.21363e+17)
(-1.60284e+18 -1.80692e+18 8.46007e+17)
(-4.14601e+18 -2.95237e+18 1.5584e+18)
(-9.9506e+18 -2.59202e+18 1.08799e+18)
(-1.81455e+19 -4.33351e+18 7.32887e+17)
(-1.70929e+18 -2.84519e+17 2.28788e+17)
(-2.03218e+18 -2.7269e+17 -9.27618e+16)
(-2.28272e+18 -3.9707e+17 1.92378e+17)
(-2.63195e+18 -4.31174e+17 -1.08134e+17)
(-2.99874e+18 -9.77152e+17 1.8518e+17)
(-3.54135e+18 -1.43757e+18 -9.58332e+16)
(-4.63862e+18 -2.51277e+18 3.05298e+17)
(-5.71622e+18 -3.43302e+18 -2.79978e+16)
(-1.27129e+19 -4.13287e+18 4.97709e+17)
(-1.75671e+19 -4.09961e+18 -1.60198e+18)
(-1.92446e+18 -8.4985e+17 -9.79849e+16)
(-1.95628e+18 -2.02059e+17 2.18798e+17)
(-2.09055e+18 -7.16883e+17 -2.09825e+16)
(-2.69979e+18 -2.46282e+17 1.83322e+17)
(-3.22626e+18 -6.33681e+17 -6.31085e+16)
(-4.16004e+18 -5.12489e+17 9.96888e+16)
(-5.59374e+18 -6.86703e+17 -2.97842e+17)
(-7.3862e+18 -3.16095e+17 -4.90543e+17)
(-1.12838e+19 -3.54952e+17 -1.31682e+18)
(-1.52061e+19 3.49065e+18 -2.78014e+18)
(-1.89499e+18 -1.98674e+17 5.22736e+16)
(-1.76624e+18 -7.44442e+17 3.46028e+17)
(-2.37117e+18 -3.54674e+17 2.10269e+17)
(-2.46554e+18 -7.56146e+17 3.57332e+17)
(-3.53116e+18 -4.23591e+17 2.09084e+17)
(-3.64739e+18 -7.62204e+17 4.51762e+16)
(-4.24584e+18 -2.57146e+17 7.51173e+16)
(-5.05272e+18 6.49307e+16 -1.50834e+17)
(-5.09939e+18 1.1243e+18 -4.79161e+17)
(-6.00117e+18 3.32461e+18 -6.3516e+17)
)
;

boundaryField
{
    inlet
    {
        type            zeroGradient;
    }
    outlet
    {
        type            zeroGradient;
    }
    bottom
    {
        type            zeroGradient;
    }
    top
    {
        type            symmetryPlane;
    }
    side1
    {
        type            symmetryPlane;
    }
    side2
    {
        type            symmetryPlane;
    }
    procBoundary4to3
    {
        type            processor;
        value           nonuniform List<vector> 
20
(
(-1.22381e+18 1.3932e+17 -1.18855e+17)
(-1.26733e+18 5.8521e+17 -2.45926e+17)
(-9.07204e+17 3.90294e+17 -5.04324e+17)
(-1.36882e+18 -6.55177e+17 -7.3971e+17)
(-1.17887e+18 -6.39952e+16 -1.86415e+17)
(-1.4798e+18 -3.15414e+16 -3.71884e+17)
(-8.68475e+17 -3.9976e+17 -5.13201e+17)
(-9.80867e+17 -3.95355e+17 -7.92199e+17)
(-1.33196e+18 -1.5743e+17 -1.2791e+17)
(-1.40145e+18 6.23525e+16 -2.70087e+16)
(-1.41087e+18 -2.8221e+17 -3.47781e+17)
(-1.5091e+18 -7.96095e+17 -2.32093e+17)
(-1.40457e+18 9.74474e+16 4.19231e+16)
(-1.57167e+18 -3.83335e+17 -2.9707e+16)
(-2.00211e+18 -7.27895e+17 -9.07168e+16)
(-2.07213e+18 -4.12028e+17 7.84213e+16)
(-1.4902e+18 -2.72038e+17 1.02273e+17)
(-1.5765e+18 -1.49871e+17 -1.28656e+17)
(-1.67806e+18 -1.09205e+17 2.48187e+17)
(-1.80627e+18 -6.15596e+17 2.58025e+17)
)
;
    }
    procBoundary4to5
    {
        type            processor;
        value           nonuniform List<vector> 
20
(
(-5.02417e+18 -3.39856e+16 -2.7768e+17)
(-2.7263e+18 2.38394e+18 -1.75615e+18)
(6.33114e+17 4.23827e+18 -1.80582e+18)
(2.78165e+18 3.46589e+18 -1.88827e+18)
(-2.16884e+18 -2.39954e+18 -3.35104e+18)
(-3.93813e+18 -6.10902e+16 -3.33118e+18)
(-2.09571e+17 4.02689e+18 -4.03461e+18)
(-5.14923e+16 3.32272e+18 -5.04264e+18)
(-9.98863e+18 -2.214e+15 -4.04436e+18)
(-1.01057e+19 1.29023e+18 -4.45013e+18)
(-3.90415e+18 1.49994e+18 -3.29675e+18)
(-3.62291e+18 -1.91372e+17 -3.97287e+18)
(-1.36994e+19 -3.04878e+18 -3.42674e+18)
(-5.55099e+18 1.13508e+18 -4.86465e+18)
(1.9144e+17 4.7905e+18 -5.89762e+18)
(-7.44944e+18 -3.03334e+18 -2.40959e+18)
(-1.55647e+19 -2.30286e+18 -2.45575e+18)
(-1.53418e+19 -2.66318e+18 -1.98955e+18)
(-8.9554e+18 5.42803e+18 -4.82966e+18)
(-2.61097e+18 6.89839e+18 -1.59109e+18)
)
;
    }
    procBoundary4to12
    {
        type            processor;
        value           nonuniform List<vector> 
50
(
(-5.96267e+17 -2.88469e+17 -5.15779e+17)
(-2.36177e+17 -2.55327e+16 -6.01996e+17)
(3.00574e+17 2.64845e+17 -6.21474e+17)
(7.17178e+17 8.01802e+17 -5.99008e+17)
(1.12461e+18 1.12917e+18 -6.0536e+17)
(8.35287e+17 1.16095e+18 -8.86252e+17)
(6.68384e+17 1.92087e+18 -8.69653e+17)
(1.37224e+18 1.97656e+18 -1.00191e+18)
(2.21386e+18 2.52979e+18 -1.27843e+18)
(2.86477e+18 3.28906e+18 -1.24203e+18)
(-1.42846e+18 -1.88494e+17 -8.30125e+17)
(-5.74401e+17 -1.84547e+17 -8.70546e+17)
(3.10138e+17 2.53086e+16 -1.24995e+18)
(7.68743e+17 -5.13184e+15 -1.58746e+18)
(2.05429e+17 4.94563e+17 -2.08153e+18)
(-1.04509e+16 6.60471e+17 -2.49658e+18)
(2.98287e+17 1.26758e+18 -2.80244e+18)
(6.41609e+16 1.2627e+18 -3.30836e+18)
(1.44546e+18 2.30905e+18 -4.11536e+18)
(8.90746e+17 2.71519e+18 -5.15869e+18)
(-1.45794e+18 -8.57841e+17 -5.87283e+17)
(-1.57961e+18 -6.98892e+17 -6.83095e+17)
(-1.99354e+18 -8.08322e+17 -1.42114e+18)
(-1.94388e+18 -5.45258e+17 -1.75512e+18)
(-1.78457e+18 -7.78737e+17 -2.56074e+18)
(-1.47163e+18 -1.17649e+17 -2.70698e+18)
(-1.92933e+18 -2.35077e+17 -3.15734e+18)
(-2.82912e+18 -5.39377e+16 -3.71481e+18)
(-3.7072e+18 -5.92627e+17 -4.63986e+18)
(-4.19135e+18 -8.2012e+17 -6.07314e+18)
(-2.46812e+18 -3.14839e+17 1.58068e+17)
(-3.24274e+18 -9.19528e+17 -2.04221e+17)
(-3.12035e+18 -8.89171e+17 -5.71439e+16)
(-2.87799e+18 -8.74155e+17 -2.41853e+17)
(-2.84053e+18 -1.0101e+18 -3.36437e+17)
(-1.91956e+18 -9.63667e+17 -6.96166e+17)
(-2.92675e+18 -8.25427e+17 -1.07254e+18)
(-4.67991e+18 -1.18762e+18 -1.32434e+18)
(-6.10121e+18 -1.92524e+18 -1.63322e+18)
(-7.52342e+18 -2.46604e+18 -1.65471e+18)
(-2.18215e+18 -1.07848e+16 4.31005e+17)
(-2.26828e+18 -4.48659e+17 2.10324e+17)
(-2.11396e+18 -5.14468e+17 7.35522e+17)
(-2.83762e+18 -9.12632e+17 5.2482e+17)
(-3.23838e+18 -7.39061e+17 7.48135e+17)
(-3.82715e+18 -6.24541e+17 4.00493e+17)
(-3.93947e+18 -6.21617e+17 1.52012e+17)
(-4.62332e+18 -4.73152e+17 8.40167e+16)
(-4.76441e+18 -7.44094e+17 1.69699e+17)
(-3.6579e+18 -1.13888e+18 5.01768e+17)
)
;
    }
}


// ************************************************************************* //
