/*--------------------------------*- C++ -*----------------------------------*\
| =========                 |                                                 |
| \\      /  F ield         | OpenFOAM: The Open Source CFD Toolbox           |
|  \\    /   O peration     | Version:  2.4.0                                 |
|   \\  /    A nd           | Web:      www.OpenFOAM.org                      |
|    \\/     M anipulation  |                                                 |
\*---------------------------------------------------------------------------*/
FoamFile
{
    version     2.0;
    format      ascii;
    class       volScalarField;
    location    "0.01";
    object      nut;
}
// * * * * * * * * * * * * * * * * * * * * * * * * * * * * * * * * * * * * * //

dimensions      [0 2 -1 0 0 0 0];

internalField   nonuniform List<scalar> 
60
(
49257.4
53597.7
55617.7
72591.9
75327.4
77566.5
67900.3
63043.9
53282.5
56848.9
92153.8
55662.8
69988.3
30399.6
56959.3
94056.5
92804.1
50898
39064
67872.8
63830.7
92182.2
51743.9
53844.6
85041.2
51436.4
85778.1
88872.5
79397.6
145676
62507.4
90893.3
67699.1
134294
136534
115649
63183.6
93120.9
122599
127976
210841
107334
178721
171758
102144
146811
52113.5
65746.1
108729
158240
119262
99872.4
60382.5
110243
128029
74434.7
34220.6
34484.8
145308
115439
)
;

boundaryField
{
    inlet
    {
        type            calculated;
        value           nonuniform 0();
    }
    outlet
    {
        type            calculated;
        value           nonuniform 0();
    }
    bottom
    {
        type            calculated;
        value           nonuniform 0();
    }
    top
    {
        type            symmetryPlane;
    }
    side1
    {
        type            symmetryPlane;
    }
    side2
    {
        type            symmetryPlane;
    }
    procBoundary90to26
    {
        type            processor;
        value           nonuniform List<scalar> 
20
(
42138.5
16306.6
47760.5
74697.8
52837
52592.5
37182.7
60782.2
58267.8
46073.7
67245.2
79550.1
63895.2
46417
40493.1
41725.1
83902
94977.4
50532.5
36878.5
)
;
    }
    procBoundary90to74
    {
        type            processor;
        value           nonuniform List<scalar> 
15
(
95019.5
88271.5
57105.5
65803.6
74783.4
60945.3
70199.2
91357.5
121703
123000
119695
188369
238548
180640
159489
)
;
    }
    procBoundary90to89
    {
        type            processor;
        value           nonuniform List<scalar> 
12
(
59246.1
99995.1
59770.6
55445.2
87285.7
154824
138691
143932
364275
337108
240083
137556
)
;
    }
    procBoundary90to91
    {
        type            processor;
        value           nonuniform List<scalar> 
12
(
76099.2
75185.4
109565
86851
74613.7
167942
131747
89504.2
67217.5
120476
105361
79632.6
)
;
    }
    procBoundary90to106
    {
        type            processor;
        value           nonuniform List<scalar> 
15
(
76222.5
120263
41180.9
37340.2
56405.4
114480
67967.5
115382
108044
106001
111433
57259.1
72711.4
132098
71769.9
)
;
    }
}


// ************************************************************************* //
