/*--------------------------------*- C++ -*----------------------------------*\
| =========                 |                                                 |
| \\      /  F ield         | OpenFOAM: The Open Source CFD Toolbox           |
|  \\    /   O peration     | Version:  2.4.0                                 |
|   \\  /    A nd           | Web:      www.OpenFOAM.org                      |
|    \\/     M anipulation  |                                                 |
\*---------------------------------------------------------------------------*/
FoamFile
{
    version     2.0;
    format      ascii;
    class       volVectorField;
    location    "0.07";
    object      U;
}
// * * * * * * * * * * * * * * * * * * * * * * * * * * * * * * * * * * * * * //

dimensions      [0 1 -1 0 0 0 0];

internalField   nonuniform List<vector> 
200
(
(23727.2 145029 -72956.9)
(172340 -7629.56 67834.6)
(-12979.3 312621 36940.5)
(148816 74759.6 122429)
(-62453.3 479315 211617)
(-83772.3 182022 124130)
(-354840 -576096 321826)
(-394378 -52202.6 389079)
(-894074 -602860 537616)
(-703259 538346 239252)
(136281 -22864.8 70568.9)
(-7420.46 246988 -58393.7)
(172028 -8725.65 69423.4)
(-48765.1 416805 39813.3)
(154255 43236.2 132561)
(-103425 519713 212486)
(-145479 146578 129969)
(-362677 -135247 516375)
(-1.463e+06 1.17646e+06 1.30033e+06)
(-1.58577e+06 -1.44569e+06 505250)
(71361.7 93969 -129498)
(142202 7561.91 62925.5)
(43094.1 292785 -91942.3)
(176409 19504.5 79575.3)
(12437.6 440552 12248.1)
(173825 68048.8 111693)
(-45722.3 573744 151081)
(-24190 227921 145820)
(-141301 720686 577511)
(-889007 1.22122e+06 979517)
(161451 73327.7 13771.1)
(112984 140792 -102908)
(179719 70218.2 39833.5)
(147957 259584 -70704.5)
(233384 63994.7 56641.5)
(188823 413637 -35014.5)
(306724 116209 69842.3)
(275723 565705 66883.6)
(453417 305165 87842)
(709717 827908 271718)
(71720.6 -52394 31651.4)
(-189687 417262 79357)
(123968 64245.6 15808.7)
(-63893.4 444033 182380)
(115469 26320.9 440677)
(25055.1 504405 391831)
(-44322.1 189240 296371)
(-206668 -586836 347730)
(-132945 63118.3 486495)
(-477804 -443998 653584)
(-199240 365546 11441.2)
(132854 -34959.6 -3219.68)
(-164540 436919 74787.4)
(194209 75460.4 4998.01)
(-39718.7 460349 209818)
(196964 39399.5 357534)
(20712 494671 379032)
(29020.1 89853.5 358037)
(-89704.3 228344 636714)
(-321146 811229 877760)
(144142 -28206.9 66286.5)
(-124268 393834 4287.23)
(203806 -7047.96 -10886.3)
(-93391.4 448583 71685.5)
(271751 85052.2 7514.03)
(481.512 512304 200230)
(321174 74277.5 215827)
(107541 539323 339153)
(347450 194788 355485)
(495039 678228 550016)
(43580.7 178467 -62213.5)
(179236 31745 53947)
(20316.6 318687 -35535.8)
(249655 31152.5 17997)
(52827.8 426876 41686.1)
(357267 69432.1 11633.7)
(151239 497008 132784)
(457687 82343 100860)
(302642 536453 195814)
(625073 101143 104241)
(-83293.2 204079 -64385.3)
(68167.6 55158.8 -239276)
(102591 236526 -167989)
(84005.6 -57058 -67250.3)
(-764.577 169185 -40638.5)
(134048 -49106.1 482624)
(90952.4 378657 339674)
(-19832.4 41984.6 299873)
(7717.64 -367675 125072)
(75602.5 -19959.7 362806)
(6759.24 -129310 41402.9)
(-31540.7 232717 -43609.2)
(152621 184013 -285794)
(93275.3 248116 -93772)
(168104 186508 -247106)
(77095.6 259779 43373.2)
(173810 63973 266659)
(107282 375988 275373)
(97341.1 56968 329354)
(134484 241400 402548)
(56244.5 405960 -145694)
(49032.2 -73404.1 45463.4)
(58205.3 314195 -49899.3)
(200530 183698 -201786)
(120485 253316 16659.9)
(313740 335046 -308245)
(173863 306149 65014)
(303003 214347 -4963.77)
(230273 322048 178723)
(328192 178959 92718.3)
(121334 -4798.97 72908.4)
(126638 327952 -95262.6)
(142969 3666.8 40637.7)
(186675 384009 -57852.2)
(237893 223618 -169908)
(194253 336534 23907.9)
(349731 295454 -247773)
(256668 319381 28193.2)
(376767 252502 -186374)
(300371 330561 3491.31)
(-108324 103764 -321017)
(5378.34 307177 -376296)
(-57934.6 267159 -535264)
(-182830 -26135.1 -323257)
(-140651 112477 196579)
(-339591 770534 9969.65)
(-440487 -57858.3 476489)
(-327876 540312 -102685)
(-410576 226556 -144251)
(-101769 572384 -468791)
(-39323.7 405351 -246039)
(15354.2 273887 -392370)
(-56082 259276 -194595)
(-51215 412079 -516971)
(-78249.2 226260 -197091)
(-117582 235733 226767)
(-186296 722540 -10414.5)
(-309470 39965.2 379189)
(-197233 539904 -86349.1)
(-268046 280354 -46716.2)
(-110871 -153756 164325)
(57587.6 483149 -239784)
(102256 497034 -465640)
(-65963.9 258381 -76274.8)
(77178 588551 -559449)
(16837.1 293097 -105568)
(-46445.4 311941 154775)
(-68642.3 678789 -65287.8)
(-198353 135548 244586)
(-49317.2 560246 -109735)
(58555.4 389078 -204884)
(1232.56 -22807 67524.2)
(150008 509431 -211441)
(188256 504489 -416049)
(3084.05 174567 79158)
(204562 759054 -660426)
(48981.4 317347 -40143.7)
(55804.8 455429 -151912)
(63515.4 546929 -20140.6)
(-150969 222054 164631)
(-389842 426974 -143528)
(-427911 1.15089e+06 -738359)
(-497281 518033 -213621)
(-477091 1.07998e+06 -653220)
(-802103 1.19295e+06 -426105)
(-1.48297e+06 -1.27946e+06 2.90766e+06)
(-313932 740277 -312204)
(-685619 250110 531493)
(-238182 1.07202e+06 -335398)
(-452568 969658 -125239)
(-320630 408042 -92489.7)
(-335511 385695 -628.905)
(-334588 962726 -553169)
(-344841 537060 -97101.7)
(-306806 985282 -486588)
(-474204 1.06065e+06 -231138)
(-1.06907e+06 -820066 1.96593e+06)
(-207488 785085 -388469)
(-547758 353852 362689)
(-175809 1.00434e+06 -283116)
(-10837.5 700268 -313925)
(-114261 421891 -84706.2)
(-231895 340195 137332)
(-111404 788471 -400076)
(-232760 508769 -17317.4)
(-207596 881890 -406652)
(-287981 919531 -120413)
(-755806 -424330 1.31542e+06)
(-131916 832691 -410116)
(-448733 467545 173569)
(-112928 31136.1 276680)
(102341 748781 -348782)
(-340.835 472480 -136659)
(-108145 476219 34284)
(21630.5 790803 -451078)
(-109410 461024 29032.5)
(-120514 807959 -366821)
(-163128 801333 -52714.2)
(-518701 -23318 670830)
(-107792 866852 -339007)
)
;

boundaryField
{
    inlet
    {
        type            calculated;
        value           nonuniform 0();
    }
    outlet
    {
        type            calculated;
        value           nonuniform 0();
    }
    bottom
    {
        type            calculated;
        value           uniform (0 0 0);
    }
    top
    {
        type            symmetryPlane;
    }
    side1
    {
        type            symmetryPlane;
    }
    side2
    {
        type            symmetryPlane;
    }
    procBoundary12to4
    {
        type            processor;
        value           nonuniform List<vector> 
50
(
(137678 13673.9 85915.5)
(35627.2 180888 -30375.8)
(143005 78422.3 82885.5)
(-25304.7 376086 195503)
(-123987 186107 129651)
(-131279 -155760 288593)
(-353380 40133 204489)
(-417658 -653406 361466)
(-446799 253840 312708)
(-706461 -348516 370754)
(-149626 366662 101895)
(61870.2 62687.9 40091)
(-65234.6 380929 177377)
(30503.9 -4378.98 525909)
(-49584.2 479026 373625)
(-152922 175487 328935)
(-163363 -604931 163794)
(-159091 -31908 335369)
(-262019 -618945 434498)
(-177827 208168 484123)
(36548.4 -45660.4 -211711)
(150186 155591 -210336)
(83080.9 -141925 -72770.1)
(-95249 -114957 31937.3)
(19176.8 -105510 573392)
(-31423.4 389884 387979)
(-162640 19520.5 328690)
(-75642.2 -341332 -20109.4)
(68373.9 -40469.8 114221)
(272942 -556646 52387.9)
(74852.3 351148 -506306)
(-27786.1 256393 -646201)
(-272161 -326711 -419735)
(-194950 -259564 342356)
(-516353 552637 -41896.3)
(-596407 -160520 547061)
(-515691 575183 -132616)
(-591121 218245 -221273)
(-212810 699895 -566452)
(-231966 612292 -491406)
(-601017 1.26242e+06 -890296)
(-775626 639536 -345701)
(-658379 1.27495e+06 -842783)
(-1.22368e+06 1.25952e+06 -578186)
(-1.68594e+06 -1.33772e+06 3.69908e+06)
(-523040 791074 -253859)
(-856971 178842 750231)
(-325335 1.20216e+06 -403988)
(-556543 1.12198e+06 -204222)
(-351789 1.25397e+06 -492403)
)
;
    }
    procBoundary12to11
    {
        type            processor;
        value           nonuniform List<vector> 
20
(
(146198 -26442.9 80494.8)
(49410.3 35721.8 -151408)
(134167 46240.6 33352.7)
(98384.5 33530.8 -72593.3)
(-239868 354947 19431.6)
(104193 -55041.7 60063.6)
(-56941.5 173506 -80410.8)
(134158 35930.5 54328.7)
(-67811.5 -175748 40149.5)
(-5851.51 380322 -144754)
(43505.3 -154636 97008.8)
(70678.8 205879 -52743.8)
(-129801 400258 -284262)
(-197546 -210786 131026)
(49913.1 569273 -312736)
(48605.9 53785.7 28363.8)
(-513195 288558 -33963.2)
(-168138 648701 -301860)
(-261210 46977.5 230828)
(12998.6 487749 -247121)
)
;
    }
    procBoundary12to13
    {
        type            processor;
        value           nonuniform List<vector> 
20
(
(-1.0631e+06 -573400 509382)
(-1.84527e+06 743944 -274308)
(-1.49447e+06 -945678 885109)
(832212 642272 234042)
(-208427 713322 305489)
(-832073 -1.09952e+06 679877)
(634450 646480 616034)
(667708 434241 128520)
(-49142.9 -580347 390268)
(154650 341438 410727)
(397181 380294 145653)
(404493 136885 -117742)
(-173890 449317 -341967)
(-14824 570055 -348316)
(-90447.5 343990 -72909)
(9419.99 635138 -108920)
(-276336 1.08422e+06 -346521)
(-394144 924100 -81640.4)
(-124875 948161 -258876)
(-357222 515552 26057)
)
;
    }
    procBoundary12to20
    {
        type            processor;
        value           nonuniform List<vector> 
50
(
(132887 55019.5 -18954.9)
(197862 95521.3 -13317.7)
(172219 111425 -29157.2)
(233978 76960.4 12569.8)
(235037 192468 -57701)
(316114 64024.8 15885.4)
(349950 275419 -34433.9)
(435685 37454.5 20461)
(494578 395397 17816.9)
(593667 -8778.75 15542.2)
(186435 65802.3 22978.8)
(129776 158405 -12692.3)
(228176 52800.4 26171.7)
(164754 261846 -10015.6)
(288089 40287.4 14096.5)
(216379 376652 -6765.92)
(382839 41456.8 1814.77)
(295346 432237 31001.2)
(479631 -6464.03 -1288.03)
(419428 366864 18927)
(156470 171906 33230.9)
(211846 50343.3 16034.2)
(226815 321938 -36202.5)
(185435 29345.5 42413.7)
(259066 567960 -90986.1)
(241009 209723 -120392)
(281919 485443 -51980.8)
(341916 234292 -164223)
(307784 410550 -63515.9)
(396566 137656 -82700.9)
(156326 118816 32.6951)
(187788 356090 -138258)
(130530 86798.8 5054.93)
(260980 620057 -202417)
(207842 563718 -433381)
(81573 236681 79501.8)
(227957 955965 -909458)
(135246 18904.1 66107.5)
(181330 498476 -409370)
(14589.2 528330 -100637)
(101061 423043 -172864)
(90259.3 129207 27758.2)
(208305 561847 -238404)
(173202 395384 -184701)
(109439 360453 73630.6)
(153300 832999 -562781)
(-36518 423635 36495.3)
(-42553.4 723031 -400583)
(-67707.7 648927 -45857.5)
(-291440 284783 147064)
)
;
    }
}


// ************************************************************************* //
