/*--------------------------------*- C++ -*----------------------------------*\
| =========                 |                                                 |
| \\      /  F ield         | OpenFOAM: The Open Source CFD Toolbox           |
|  \\    /   O peration     | Version:  2.4.0                                 |
|   \\  /    A nd           | Web:      www.OpenFOAM.org                      |
|    \\/     M anipulation  |                                                 |
\*---------------------------------------------------------------------------*/
FoamFile
{
    version     2.0;
    format      ascii;
    class       volScalarField;
    location    "0.09";
    object      nut;
}
// * * * * * * * * * * * * * * * * * * * * * * * * * * * * * * * * * * * * * //

dimensions      [0 2 -1 0 0 0 0];

internalField   nonuniform List<scalar> 
200
(
33176.4
4612.9
62601.2
8669.13
12560.1
15449.9
12635.3
9895.68
11318.2
7828.29
6652.25
65163.7
29996.3
72332.8
12579.7
11948.7
6283.3
13811.8
14941.6
13873.1
14428.3
13106.4
29470.9
14820.8
12322.4
9182.4
16609.4
7633.7
17810.4
7598.27
12292.9
13085
20459.9
21669.8
14351.9
20642.6
19508.5
22085.3
20999.3
25861.9
9042.9
51577.2
25588.8
17784.8
8869.71
5466
6481.16
10436.1
11773.3
11209.2
13410.1
17211.2
18276.3
15929.2
10977
17179.7
10336.3
10060.9
18027.2
17851.6
18978.7
7706.24
18076.8
11269.7
16709.9
16900.6
8815.61
13609.8
8945.35
16817.1
9812.05
10260.6
11032.7
19027.3
9078.75
19823.2
21974.3
22498
24616.2
43858.4
12566.2
25649.7
11258
24111.1
4201.87
20908
9488.03
21663.2
19874.7
26684.9
26446.2
10821.8
33193.1
10876.7
27782.6
9695.38
20786
21263.3
16247
26331.3
18408.5
22611.1
10397.8
27327.3
7325.71
25918.4
16416
13828.2
21064.2
47880.8
15582.7
15486.6
14781.7
38046.2
31762.1
17018.7
31648.7
30417.7
37041.3
57271.7
28368.1
9939.72
29378.1
8852.29
32943.3
20982.9
24168.8
20255.7
19348.9
34073.1
9149.88
19269.7
12502.2
26791.8
12474.5
30352.6
22895.7
22287.6
18519
74720.1
15438.9
6916.99
14342
31754.3
18702.1
7359.19
22167
18961.6
21544.1
61246.5
11582.3
16530.3
17392.1
16523.4
50884.2
40405.5
31010.3
42550.3
40088.6
97686.2
21783.1
22227.5
64120.6
45751.2
6334.06
50958.6
20316.5
40113.5
16898.9
106563
16370.8
20856.2
19728.6
69271.2
44219.5
11658
50140
27747.1
46515.3
100362
13956.2
12204.1
20522.6
16316.7
70583.1
39673.3
25545.5
47519.5
35717.6
141424
19489.7
21066.6
21463.5
32101.1
30746.1
81197.2
70540.5
64182.8
76298.8
122051
)
;

boundaryField
{
    inlet
    {
        type            calculated;
        value           nonuniform 0();
    }
    outlet
    {
        type            calculated;
        value           nonuniform List<scalar> 
20
(
3.51385e-21
4.29494e-21
3.67286e-21
1.53198e-20
3.18298e-21
2.63742e-21
7.23726e-21
2.40654e-20
5.22432e-21
6.95363e-21
1.0775e-20
2.71151e-20
6.40065e-21
1.55127e-20
1.4937e-20
4.17805e-20
3.36646e-20
2.18371e-20
4.91573e-20
6.65352e-20
)
;
    }
    bottom
    {
        type            calculated;
        value           nonuniform List<scalar> 
40
(
9.4909e-21
2.6793e-20
1.03024e-20
3.21171e-20
1.25096e-20
4.42893e-20
4.05339e-20
2.15746e-20
4.66488e-20
9.03155e-20
2.28659e-20
2.83923e-20
7.94536e-21
5.21347e-20
1.7891e-20
2.17003e-20
1.12445e-20
1.18801e-20
8.33795e-21
9.01757e-21
1.76538e-20
1.1053e-20
6.55815e-21
2.20515e-20
1.08279e-20
6.03426e-21
2.01922e-20
1.78929e-20
9.80443e-21
1.25308e-20
9.61204e-21
2.86672e-20
8.83714e-21
1.21924e-20
1.72786e-20
1.80063e-20
1.09355e-20
9.90801e-21
1.12091e-20
2.4421e-20
)
;
    }
    top
    {
        type            symmetryPlane;
    }
    side1
    {
        type            symmetryPlane;
    }
    side2
    {
        type            symmetryPlane;
    }
    procBoundary31to23
    {
        type            processor;
        value           nonuniform List<scalar> 
50
(
14415.9
51638.3
40000
45126.3
9041.88
5041.63
9101.54
10478.7
6593.95
6148.65
28836.5
52061.3
49801
41447.6
37931.9
8920.2
6140.64
4448.46
11161.5
10317.3
22566.7
9702.58
44324.3
6238.64
16467.9
7234.03
16547.7
13517.1
20216.6
14651.9
3624.07
28779.3
13360.1
30821.6
15841.1
33544.6
14029.2
26484.6
15755.5
44417.8
21451.8
44025.6
35848.5
5374.14
44754.2
15442.1
36453.1
13705
32294.8
60248.6
)
;
    }
    procBoundary31to30
    {
        type            processor;
        value           nonuniform List<scalar> 
20
(
3979.35
25336
19636
37599
43263.9
15430.8
24933.5
19517.3
18617.3
18588.8
26925.2
11779.3
12435
30368.6
12240.4
18444.7
15971.1
17744.9
12388.5
17473.5
)
;
    }
}


// ************************************************************************* //
