/*--------------------------------*- C++ -*----------------------------------*\
| =========                 |                                                 |
| \\      /  F ield         | OpenFOAM: The Open Source CFD Toolbox           |
|  \\    /   O peration     | Version:  2.4.0                                 |
|   \\  /    A nd           | Web:      www.OpenFOAM.org                      |
|    \\/     M anipulation  |                                                 |
\*---------------------------------------------------------------------------*/
FoamFile
{
    version     2.0;
    format      ascii;
    class       volVectorField;
    location    "0.09";
    object      U;
}
// * * * * * * * * * * * * * * * * * * * * * * * * * * * * * * * * * * * * * //

dimensions      [0 1 -1 0 0 0 0];

internalField   nonuniform List<vector> 
200
(
(2.83393e+08 4.78185e+07 1.3631e+08)
(2.17071e+08 -7.24297e+08 -1.98381e+07)
(2.9905e+08 1.80908e+08 1.94907e+08)
(3.31368e+08 1.00347e+08 1.78531e+08)
(2.19088e+08 1.47295e+08 6.68449e+06)
(1.59166e+08 2.58046e+08 -3.54427e+07)
(3.7674e+07 2.10887e+08 1.38675e+08)
(1.88465e+07 2.63261e+08 7.11331e+07)
(-1.04605e+08 1.14993e+08 1.46268e+08)
(-1.405e+08 2.92327e+08 5.07729e+07)
(3.14247e+08 -2.92026e+08 -3.37663e+08)
(2.59954e+08 2.00879e+08 5.06796e+07)
(8.72994e+07 -2.33848e+09 -5.5407e+08)
(2.30411e+08 4.31306e+07 1.83515e+08)
(1.26446e+08 1.77513e+08 3.92445e+07)
(1.06815e+08 1.50195e+08 7.82381e+07)
(1.70571e+08 1.20649e+08 1.84004e+08)
(3.89652e+07 1.28158e+08 4.97623e+07)
(-2.44496e+07 2.98847e+08 1.34391e+08)
(-1.79428e+08 8.19156e+07 1.5617e+08)
(5.366e+07 1.31983e+08 1.7456e+07)
(3.46456e+08 -2.59106e+08 -4.96591e+08)
(1.81525e+07 1.52113e+08 2.09946e+07)
(-3.5253e+07 -4.47099e+07 -1.38972e+08)
(-9.05594e+07 7.59737e+06 1.29241e+08)
(1.23474e+07 1.67291e+07 2.72521e+08)
(-1.38152e+08 1.67869e+08 -5.59573e+07)
(-1.69442e+08 3.38844e+08 4.12729e+08)
(-2.45698e+08 2.35919e+08 1.09567e+08)
(-3.26959e+08 4.36941e+08 2.21375e+08)
(2.7925e+08 -1.83e+08 -4.27259e+08)
(8.14976e+07 2.87639e+08 -1.36771e+08)
(2.22962e+08 -2.21063e+08 -2.46595e+08)
(-6.63488e+07 3.13003e+07 -2.7142e+07)
(-4.76594e+07 -8.95521e+07 2.90896e+08)
(-2.63509e+08 5.21052e+07 -9.84282e+07)
(-3.09373e+08 7.59344e+07 7.58849e+08)
(-3.48437e+08 1.71293e+08 -1.02223e+08)
(-3.38311e+08 3.41514e+08 5.44324e+08)
(-2.80901e+08 2.0013e+08 1.14439e+08)
(-1.44675e+08 -5.77938e+08 -1.22556e+09)
(2.95563e+08 -5.60373e+06 3.1804e+08)
(3.34081e+08 2.08351e+08 5.13685e+08)
(2.01351e+08 4.42496e+08 3.59675e+08)
(2.50934e+08 2.89659e+08 2.37147e+08)
(1.86052e+08 1.83996e+08 2.24899e+08)
(2.32599e+08 1.74569e+08 3.40984e+08)
(1.62269e+08 1.64185e+08 1.56873e+08)
(1.32642e+08 3.63904e+08 3.37647e+08)
(4.34811e+06 1.79743e+08 1.45333e+08)
(2.83141e+07 2.18328e+08 1.57562e+07)
(6.9521e+07 -8.03721e+07 -3.57961e+08)
(6.53285e+07 7.33122e+07 3.55408e+08)
(1.60823e+08 1.60906e+08 1.14008e+08)
(1.80365e+08 2.12168e+08 2.8642e+08)
(2.36728e+08 1.26178e+08 3.6509e+08)
(1.31306e+08 8.20433e+07 1.37566e+08)
(1.42747e+08 1.91147e+08 4.65521e+08)
(6.16483e+06 2.57863e+08 1.12678e+08)
(-1.32041e+08 5.92611e+08 4.43145e+08)
(-2.15801e+08 -5.70832e+07 -3.47017e+08)
(-1.99225e+08 -1.09836e+07 6.66728e+07)
(-1.88493e+08 -9.04518e+07 7.51948e+07)
(-2.25348e+08 1.00495e+08 1.01061e+08)
(-7.29536e+07 -2.09077e+07 4.25358e+08)
(-1.83468e+08 3.56441e+07 2.56965e+07)
(-1.53958e+08 1.83381e+08 9.26118e+08)
(-1.89177e+08 2.2501e+08 -5.13788e+07)
(-2.40907e+08 5.14372e+08 6.48165e+08)
(-1.84845e+08 3.0127e+08 1.10787e+08)
(-3.75594e+08 7.28598e+07 -9.36188e+07)
(-2.35265e+08 -1.23303e+08 6.9299e+07)
(-3.55699e+08 5.35643e+07 -1.75335e+08)
(-2.39097e+08 -9.78358e+07 7.78098e+08)
(-3.29202e+08 1.0431e+08 -1.00517e+08)
(-2.77188e+08 -7.48057e+07 8.47388e+08)
(-4.28166e+08 9.67112e+07 -1.82005e+08)
(-3.48056e+08 1.52039e+08 1.05169e+09)
(-2.90903e+08 2.06588e+08 -8.70395e+07)
(-2.45299e+08 3.72721e+08 7.27938e+08)
(2.61878e+08 -9.91731e+06 1.32691e+08)
(1.13785e+08 8.72861e+07 -1.08717e+08)
(2.42152e+08 1.28318e+08 6.37966e+07)
(1.99266e+08 1.05661e+08 4.23002e+08)
(2.96961e+08 8.48785e+07 7.83952e+07)
(2.20206e+08 7.87299e+07 5.13887e+08)
(2.26868e+08 1.01896e+08 6.484e+07)
(1.44544e+08 3.19804e+08 6.86135e+08)
(2.6067e+07 3.35609e+08 7.48806e+07)
(-1.38641e+08 7.42739e+08 6.5416e+08)
(-2.25211e+08 7.74096e+06 -1.44032e+08)
(3.7708e+07 1.59314e+07 -1.88236e+08)
(-5.12192e+07 -2.48485e+07 1.93513e+08)
(9.19411e+07 2.22944e+07 -7.80565e+07)
(6.54656e+07 -1.18892e+07 6.79902e+08)
(8.0977e+07 -1.37019e+07 1.68579e+07)
(5.10295e+07 1.26735e+08 8.58461e+08)
(-4.53065e+07 2.9839e+08 -8.15541e+06)
(-1.75272e+08 7.24922e+08 9.61285e+08)
(-1.48799e+08 3.85642e+08 7.81165e+07)
(-2.69836e+08 -4.60635e+07 -3.13781e+08)
(-3.93367e+08 -2.29895e+08 2.45107e+08)
(-1.95098e+08 -6.0108e+07 -4.0985e+08)
(-2.82752e+08 -1.6272e+08 7.81798e+08)
(-1.70658e+08 -4.43909e+07 -1.80125e+08)
(-1.89834e+08 -7.18339e+07 1.114e+09)
(-3.63922e+08 1.49854e+08 -1.88768e+08)
(-3.09908e+08 4.26111e+08 1.49055e+09)
(-3.2212e+08 3.46899e+08 -9.63779e+07)
(-3.61251e+08 7.08271e+08 1.15554e+09)
(-4.79947e+08 -8.45724e+07 -1.63447e+08)
(-5.27981e+08 -2.79633e+07 -4.28943e+08)
(-6.30731e+08 -6.99487e+07 4.88367e+07)
(-4.4146e+08 1.31912e+08 -5.97071e+08)
(-4.18321e+08 -6.44952e+07 1.2173e+09)
(-4.17499e+08 1.11742e+08 -3.23255e+08)
(-4.11842e+08 -2.48683e+07 1.40573e+09)
(-4.00533e+08 1.54868e+08 -2.19253e+08)
(-2.77903e+08 3.06405e+08 1.51878e+09)
(-1.59524e+08 2.59416e+08 -8.10176e+07)
(-1.22327e+08 -1.61307e+08 4.78923e+07)
(1.98639e+08 -1.44403e+08 -6.11862e+08)
(-2.19518e+08 -1.78125e+08 5.57552e+08)
(1.16234e+08 -8.17219e+07 -4.89838e+08)
(3.13009e+07 -2.4291e+06 8.26772e+08)
(-7.63781e+07 8.23863e+07 -2.91338e+08)
(-1.27716e+08 3.26368e+08 1.15887e+09)
(-1.48494e+08 3.38674e+08 -2.78005e+08)
(-2.96136e+08 9.05027e+08 1.29387e+09)
(-2.30494e+08 3.7284e+08 -1.74983e+08)
(-1.83062e+08 -8.03693e+07 -7.68231e+08)
(-4.71357e+08 -1.75877e+08 2.98494e+08)
(-6.75721e+07 -1.47177e+08 -7.45468e+08)
(-4.24749e+08 -1.43189e+08 1.1602e+09)
(-1.92118e+08 -2.63658e+07 -5.49048e+08)
(-2.61043e+08 -8.88075e+06 1.44897e+09)
(-3.00704e+08 1.97471e+08 -4.02518e+08)
(-3.21522e+08 6.50606e+08 1.77354e+09)
(-3.11676e+08 4.15335e+08 -2.98664e+08)
(-3.91728e+08 9.1151e+08 1.56388e+09)
(-6.55155e+08 -8.90644e+07 6.9666e+07)
(-4.14912e+08 -1.16499e+08 -7.25069e+08)
(-7.09181e+08 -1.70648e+08 2.28749e+08)
(-3.34203e+08 -9.62194e+06 -9.11974e+08)
(-5.51485e+08 -9.74043e+07 1.61699e+09)
(-3.78113e+08 -2.74116e+07 -6.09601e+08)
(-5.01168e+08 6.96195e+07 2.10197e+09)
(-3.79474e+08 2.19899e+08 -4.91082e+08)
(-3.22636e+08 6.54477e+08 2.11293e+09)
(-2.16529e+08 3.47487e+08 -3.33427e+08)
(-6.23055e+08 1.10772e+08 -5.9764e+08)
(-7.32332e+08 -8.16205e+07 -6.78475e+07)
(-6.44829e+08 -1.35126e+06 -7.61095e+08)
(-8.97191e+08 1.40184e+07 3.24432e+07)
(-5.06805e+08 1.84641e+08 -9.11678e+08)
(-5.50254e+08 8.07147e+07 1.41802e+09)
(-4.34052e+08 1.14593e+08 -6.27332e+08)
(-3.89965e+08 8.66158e+07 1.79333e+09)
(-2.00927e+08 1.81072e+08 -4.0774e+08)
(-5.38046e+07 3.42318e+08 1.85414e+09)
(-5.52602e+08 -1.0342e+08 -7.72846e+08)
(-1.06804e+09 -1.51418e+08 5.44275e+08)
(-8.00975e+08 1.20093e+08 -8.50667e+08)
(-1.06944e+09 2.98887e+08 2.84218e+09)
(-5.83077e+08 9.24576e+06 -7.88614e+08)
(-7.10164e+08 3.8543e+08 2.81786e+09)
(-2.89916e+08 7.07528e+07 -6.83679e+08)
(-3.07822e+08 6.75618e+08 2.33318e+09)
(2.42645e+07 2.16197e+08 -5.57511e+08)
(4.76346e+07 8.35451e+08 2.0965e+09)
(-8.93323e+08 -1.1004e+08 4.25959e+08)
(-7.32541e+08 3.00871e+07 -8.51472e+08)
(-1.20886e+09 1.26198e+08 5.9513e+08)
(-8.40139e+08 3.641e+08 -9.20377e+08)
(-1.0265e+09 4.18374e+08 2.84252e+09)
(-5.94969e+08 1.20927e+08 -8.55479e+08)
(-6.22168e+08 4.46428e+08 2.96224e+09)
(-1.84362e+08 2.16924e+08 -7.23701e+08)
(-1.85586e+07 7.94826e+08 2.69892e+09)
(2.94214e+08 3.25721e+08 -6.94469e+08)
(-6.91263e+08 9.73127e+07 -6.72593e+08)
(-9.96446e+08 -4.72858e+07 4.32956e+08)
(-8.01047e+08 9.7731e+07 -8.54363e+08)
(-1.22184e+09 2.27886e+08 5.66579e+08)
(-8.05859e+08 4.75226e+08 -9.23926e+08)
(-8.94577e+08 4.64802e+08 2.7089e+09)
(-5.00254e+08 1.75054e+08 -9.2751e+08)
(-3.70556e+08 4.31601e+08 2.94127e+09)
(1.13855e+08 2.89956e+08 -7.39807e+08)
(3.71096e+08 6.54179e+08 2.88818e+09)
(-8.56194e+08 -9.46052e+07 3.74691e+08)
(-8.28077e+08 1.56957e+08 -6.22595e+08)
(-1.05476e+09 -4.95529e+06 2.84683e+08)
(-9.26948e+08 1.62597e+08 -8.11388e+08)
(-1.2157e+09 2.98186e+08 4.07883e+08)
(-6.82867e+08 5.04549e+08 -8.75184e+08)
(-5.72413e+08 4.47252e+08 2.16165e+09)
(-2.05403e+08 2.22198e+08 -8.13933e+08)
(2.0055e+08 4.14835e+08 2.49781e+09)
(6.33528e+08 2.50117e+08 -6.53852e+08)
)
;

boundaryField
{
    inlet
    {
        type            calculated;
        value           nonuniform 0();
    }
    outlet
    {
        type            calculated;
        value           nonuniform List<vector> 
20
(
(-1.405e+08 2.92327e+08 5.07729e+07)
(-1.79428e+08 8.19156e+07 1.5617e+08)
(-3.26959e+08 4.36941e+08 2.21375e+08)
(-2.80901e+08 2.0013e+08 1.14439e+08)
(4.34811e+06 1.79743e+08 1.45333e+08)
(-1.32041e+08 5.92611e+08 4.43145e+08)
(-1.84845e+08 3.0127e+08 1.10787e+08)
(-2.45299e+08 3.72721e+08 7.27938e+08)
(-1.38641e+08 7.42739e+08 6.5416e+08)
(-1.48799e+08 3.85642e+08 7.81165e+07)
(-3.61251e+08 7.08271e+08 1.15554e+09)
(-1.59524e+08 2.59416e+08 -8.10176e+07)
(-2.30494e+08 3.7284e+08 -1.74983e+08)
(-3.91728e+08 9.1151e+08 1.56388e+09)
(-2.16529e+08 3.47487e+08 -3.33427e+08)
(-5.38046e+07 3.42318e+08 1.85414e+09)
(4.76346e+07 8.35451e+08 2.0965e+09)
(2.94214e+08 3.25721e+08 -6.94469e+08)
(3.71096e+08 6.54179e+08 2.88818e+09)
(6.33528e+08 2.50117e+08 -6.53852e+08)
)
;
    }
    bottom
    {
        type            calculated;
        value           uniform (0 0 0);
    }
    top
    {
        type            symmetryPlane;
    }
    side1
    {
        type            symmetryPlane;
    }
    side2
    {
        type            symmetryPlane;
    }
    procBoundary31to23
    {
        type            processor;
        value           nonuniform List<vector> 
50
(
(2.13562e+08 -2.70437e+08 -1.59731e+07)
(5.02317e+08 5.85124e+07 -7.33557e+08)
(7.50186e+08 -6.40164e+08 6.25649e+08)
(1.69999e+08 1.97521e+08 3.58681e+08)
(1.78448e+08 1.31876e+08 5.21976e+07)
(1.1254e+08 7.89844e+07 -1.55764e+07)
(9.35137e+07 1.62881e+08 2.56436e+07)
(-1.14726e+07 8.06447e+07 7.75795e+07)
(-8.00462e+07 2.85865e+08 4.36841e+07)
(-7.22332e+07 1.0049e+08 9.90236e+07)
(2.65449e+08 7.05246e+07 1.56423e+08)
(4.50404e+08 2.96347e+08 -4.42601e+08)
(-1.75195e+08 -4.22927e+08 1.6717e+09)
(4.33155e+08 3.20045e+07 1.176e+09)
(1.81108e+08 2.19268e+08 7.94113e+07)
(1.45896e+08 1.92866e+08 9.52161e+07)
(6.95231e+07 1.74238e+08 1.71257e+08)
(9.9407e+07 2.57525e+08 2.03986e+08)
(1.64967e+07 1.31337e+08 1.31516e+08)
(-5.36353e+07 3.88961e+08 1.95588e+08)
(3.24708e+08 7.28454e+07 -1.13104e+06)
(1.33829e+08 -6.13108e+07 3.11043e+08)
(2.53687e+08 8.61826e+06 3.76972e+08)
(3.76712e+08 1.14414e+08 7.03138e+07)
(3.12174e+08 2.42643e+07 3.54552e+08)
(2.93737e+08 1.26254e+08 1.04835e+08)
(2.20344e+08 1.48552e+08 4.67997e+08)
(2.20418e+08 1.75525e+08 6.87623e+07)
(8.27318e+07 4.62428e+08 4.97014e+08)
(-1.31237e+07 2.12081e+08 1.03381e+08)
(2.26964e+08 -1.0666e+08 -4.50889e+08)
(9.63497e+07 -2.3804e+08 2.37644e+08)
(2.88689e+08 -1.18336e+08 -4.93319e+08)
(-3.54507e+07 -8.1713e+07 8.89945e+08)
(1.56805e+08 -9.35338e+06 -3.74609e+08)
(-9.1532e+07 1.45304e+08 7.79333e+08)
(-4.61815e+07 2.17381e+08 -2.40924e+08)
(-1.45659e+08 5.76239e+08 9.80025e+08)
(-2.57031e+08 3.45426e+08 -1.64775e+08)
(-3.67846e+08 7.97206e+08 8.65688e+08)
(-6.93043e+08 -4.22616e+08 5.56025e+08)
(-5.80014e+08 -2.59301e+08 -7.90847e+08)
(-9.69101e+08 3.37641e+07 2.17732e+09)
(-5.45267e+08 -1.32645e+08 -7.66428e+08)
(-7.07605e+08 2.80085e+08 2.54044e+09)
(-3.68351e+08 -3.14678e+07 -6.53732e+08)
(-4.07434e+08 4.68187e+08 2.03888e+09)
(-1.35282e+08 9.18476e+07 -5.1453e+08)
(-1.69143e+08 7.59007e+08 1.77616e+09)
(6.90823e+07 1.70589e+08 -5.14934e+08)
)
;
    }
    procBoundary31to30
    {
        type            processor;
        value           nonuniform List<vector> 
20
(
(1.74021e+08 -2.25409e+08 -1.65669e+06)
(2.09079e+08 -1.15315e+06 1.22466e+08)
(2.05673e+08 -3.38911e+08 -1.05143e+09)
(-4.16713e+07 4.37792e+08 -1.85546e+08)
(3.56836e+08 7.98338e+07 1.42718e+08)
(7.52677e+07 7.13139e+07 -8.35869e+08)
(-2.67451e+08 2.29687e+08 4.58189e+07)
(-2.42237e+08 -1.01518e+08 -5.08827e+08)
(1.4469e+08 1.81899e+08 -3.844e+08)
(1.21235e+07 1.08339e+08 -1.67018e+08)
(-4.38933e+08 6.97771e+07 -4.59402e+08)
(-5.32892e+08 1.25965e+08 -3.03761e+08)
(1.5104e+08 -1.23767e+07 -4.75906e+08)
(-4.01914e+08 -1.14969e+08 2.09244e+08)
(-4.10526e+08 6.03243e+07 -7.18989e+08)
(-6.64389e+08 9.00445e+06 1.12377e+07)
(-6.6521e+08 -2.7406e+08 4.933e+08)
(-5.41796e+08 3.14414e+07 -6.39667e+08)
(-7.73266e+08 -4.96664e+07 5.38283e+08)
(-6.87112e+08 1.59986e+08 -4.72938e+08)
)
;
    }
}


// ************************************************************************* //
