/*--------------------------------*- C++ -*----------------------------------*\
| =========                 |                                                 |
| \\      /  F ield         | OpenFOAM: The Open Source CFD Toolbox           |
|  \\    /   O peration     | Version:  2.4.0                                 |
|   \\  /    A nd           | Web:      www.OpenFOAM.org                      |
|    \\/     M anipulation  |                                                 |
\*---------------------------------------------------------------------------*/
FoamFile
{
    version     2.0;
    format      ascii;
    class       volVectorField;
    location    "0.01";
    object      A_Source;
}
// * * * * * * * * * * * * * * * * * * * * * * * * * * * * * * * * * * * * * //

dimensions      [1 -2 -2 0 0 0 0];

internalField   nonuniform List<vector> 
40
(
(-1.79783e+08 -2.28647e+08 3.50699e+08)
(-2.29393e+06 -2.91588e+06 4.47474e+06)
(-27014.5 -34321.6 52696.7)
(-293.458 -372.658 572.443)
(-2.96761 -3.7668 5.78887)
(-710325 -904249 1.38562e+06)
(-9175.38 -11675.7 17898.3)
(-111.207 -141.451 216.93)
(-1.25472 -1.59529 2.44756)
(-0.0132371 -0.0168231 0.0258214)
(-2482.02 -3161.64 4841.63)
(-33.3086 -42.4167 64.9746)
(-0.417333 -0.531267 0.814084)
(-0.00486531 -0.00619128 0.00949067)
(-5.31071e-05 -6.75552e-05 0.000103595)
(-7.76896 -9.90076 15.1548)
(-0.109364 -0.139342 0.213335)
(-0.00142428 -0.00181419 0.00277831)
(-1.71638e-05 -2.18557e-05 3.34811e-05)
(-1.93232e-07 -2.45972e-07 3.76934e-07)
(-358476 -455675 696956)
(-4715.85 -5991 9167.1)
(-57.4469 -72.9414 111.654)
(-0.646686 -0.820705 1.25674)
(-0.00678872 -0.00861147 0.0131913)
(-1466.86 -1866.51 2851.44)
(-18.8028 -23.9153 36.5466)
(-0.230588 -0.293151 0.448143)
(-0.00266549 -0.00338718 0.00517976)
(-2.89879e-05 -3.68207e-05 5.63248e-05)
(-5.32059 -6.77497 10.3413)
(-0.0695701 -0.0885598 0.135208)
(-0.000869415 -0.00110633 0.00168956)
(-1.02986e-05 -1.31e-05 2.0012e-05)
(-1.1534e-07 -1.46659e-07 2.24105e-07)
(-0.0173271 -0.0220749 0.0336737)
(-0.000235331 -0.000299744 0.000457307)
(-3.03215e-06 -3.861e-06 5.89194e-06)
(-3.69538e-08 -4.70405e-08 7.18026e-08)
(-4.25895e-10 -5.41966e-10 8.27464e-10)
)
;

boundaryField
{
    inlet
    {
        type            zeroGradient;
    }
    outlet
    {
        type            zeroGradient;
    }
    bottom
    {
        type            zeroGradient;
    }
    top
    {
        type            symmetryPlane;
    }
    side1
    {
        type            symmetryPlane;
    }
    side2
    {
        type            symmetryPlane;
    }
    procBoundary81to17
    {
        type            processor;
        value           nonuniform List<vector> 
20
(
(-1.20831e+11 -1.53726e+11 2.35704e+11)
(-1.51536e+09 -1.92664e+09 2.95598e+09)
(-1.74891e+07 -2.22229e+07 3.41157e+07)
(-184675 -234542 360243)
(-1803.47 -2289.37 3517.99)
(-4.76992e+08 -6.07382e+08 9.30459e+08)
(-5.68951e+06 -7.2414e+06 1.10984e+07)
(-64890.8 -82547.3 126581)
(-698.625 -888.267 1362.79)
(-7.07726 -8.99418 13.8055)
(-1.6358e+06 -2.08412e+06 3.19092e+06)
(-19781.1 -25194.7 38586.6)
(-226.099 -287.86 441.047)
(-2.45687 -3.12659 4.79257)
(-0.0253891 -0.0322955 0.0495261)
(-4954.37 -6314.68 9664.41)
(-62.5512 -79.7094 122.018)
(-0.73168 -0.932107 1.42728)
(-0.00808169 -0.0102918 0.0157648)
(-8.49773e-05 -0.000108173 0.000165764)
)
;
    }
    procBoundary81to65
    {
        type            processor;
        value           nonuniform List<vector> 10((-6.57325e+10 -8.34609e+10 1.28223e+11) (-7.98007e+08 -1.01268e+09 1.55666e+09) (-9.00165e+06 -1.1417e+07 1.75594e+07) (-93775.9 -118874 182927) (-908.986 -1151.64 1773.14) (-1.28826e+08 -1.63477e+08 2.50495e+08) (-1.51462e+06 -1.92104e+06 2.94479e+06) (-16838.6 -21345.6 32736.6) (-176.89 -224.118 343.886) (-1.75733 -2.22532 3.41617));
    }
    procBoundary81to80
    {
        type            processor;
        value           nonuniform List<vector> 8((-2.08157e+10 -2.64787e+10 4.06048e+10) (-7.72574e+07 -9.83659e+07 1.50705e+08) (-256481 -326756 500313) (-765.487 -975.647 1493.22) (-3.98157e+07 -5.06156e+07 7.74216e+07) (-142109 -180836 276313) (-468.398 -596.482 910.713) (-1.42494 -1.81557 2.7704));
    }
    procBoundary81to82
    {
        type            processor;
        value           nonuniform List<vector> 8((-0.0144327 -0.0183173 0.0281536) (-7.02969e-05 -8.93251e-05 0.000137127) (-2.949e-07 -3.75052e-07 5.75257e-07) (-1.10464e-09 -1.40584e-09 2.1548e-09) (-3.44509e-05 -4.37065e-05 6.69363e-05) (-1.79838e-07 -2.28444e-07 3.49337e-07) (-7.9605e-10 -1.01212e-09 1.54606e-09) (-3.11866e-12 -3.96799e-12 6.05602e-12));
    }
    procBoundary81to97
    {
        type            processor;
        value           nonuniform List<vector> 10((-0.0114462 -0.0145941 0.0223279) (-0.000174917 -0.00022297 0.000341208) (-2.39208e-06 -3.04848e-06 4.66619e-06) (-2.97959e-08 -3.79619e-08 5.81224e-08) (-3.44374e-10 -4.38627e-10 6.71765e-10) (-2.58611e-05 -3.29641e-05 5.02563e-05) (-4.20386e-07 -5.35706e-07 8.16761e-07) (-6.06867e-09 -7.73144e-09 1.17885e-08) (-7.92384e-11 -1.00922e-10 1.53896e-10) (-9.55742e-13 -1.21694e-12 1.85595e-12));
    }
}


// ************************************************************************* //
