/*--------------------------------*- C++ -*----------------------------------*\
| =========                 |                                                 |
| \\      /  F ield         | OpenFOAM: The Open Source CFD Toolbox           |
|  \\    /   O peration     | Version:  2.4.0                                 |
|   \\  /    A nd           | Web:      www.OpenFOAM.org                      |
|    \\/     M anipulation  |                                                 |
\*---------------------------------------------------------------------------*/
FoamFile
{
    version     2.0;
    format      ascii;
    class       volVectorField;
    location    "0.01";
    object      A_Source_unsmoothed;
}
// * * * * * * * * * * * * * * * * * * * * * * * * * * * * * * * * * * * * * //

dimensions      [1 -2 -2 0 0 0 0];

internalField   uniform (0 -0 0);

boundaryField
{
    inlet
    {
        type            zeroGradient;
    }
    outlet
    {
        type            zeroGradient;
    }
    bottom
    {
        type            zeroGradient;
    }
    top
    {
        type            symmetryPlane;
    }
    side1
    {
        type            symmetryPlane;
    }
    side2
    {
        type            symmetryPlane;
    }
    procBoundary81to17
    {
        type            processor;
        value           uniform (0 0 0);
    }
    procBoundary81to65
    {
        type            processor;
        value           uniform (0 0 0);
    }
    procBoundary81to80
    {
        type            processor;
        value           uniform (0 0 0);
    }
    procBoundary81to82
    {
        type            processor;
        value           uniform (0 0 0);
    }
    procBoundary81to97
    {
        type            processor;
        value           uniform (0 0 0);
    }
}


// ************************************************************************* //
