/*--------------------------------*- C++ -*----------------------------------*\
| =========                 |                                                 |
| \\      /  F ield         | OpenFOAM: The Open Source CFD Toolbox           |
|  \\    /   O peration     | Version:  2.4.0                                 |
|   \\  /    A nd           | Web:      www.OpenFOAM.org                      |
|    \\/     M anipulation  |                                                 |
\*---------------------------------------------------------------------------*/
FoamFile
{
    version     2.0;
    format      ascii;
    class       volSymmTensorField;
    location    "0.01";
    object      B;
}
// * * * * * * * * * * * * * * * * * * * * * * * * * * * * * * * * * * * * * //

dimensions      [0 2 -2 0 0 0 0];

internalField   nonuniform List<symmTensor> 
40
(
(1.37885e+23 -1.18714e+19 1.98209e+18 1.37881e+23 4.97751e+18 1.37892e+23)
(1.10724e+23 -6.02781e+18 2.15894e+18 1.10721e+23 3.29399e+18 1.10728e+23)
(5.27813e+22 -1.2525e+18 1.88026e+18 5.2779e+22 2.79736e+18 5.27843e+22)
(5.29933e+22 3.18751e+18 2.53756e+16 5.29884e+22 2.7303e+18 5.29959e+22)
(4.49895e+22 -3.20149e+18 1.17552e+18 4.49936e+22 1.70276e+18 4.49959e+22)
(7.90479e+22 -3.92828e+18 1.67353e+18 7.90446e+22 1.98288e+18 7.90492e+22)
(4.56223e+22 -2.5235e+18 1.5563e+18 4.56217e+22 1.5209e+18 4.56246e+22)
(1.29403e+22 -2.11278e+17 2.06164e+17 1.29385e+22 1.48768e+18 1.29421e+22)
(2.26348e+22 1.33689e+18 -4.54705e+17 2.26297e+22 1.97087e+18 2.26356e+22)
(4.27199e+22 -5.55429e+17 -2.06589e+17 4.27148e+22 2.37915e+18 4.27201e+22)
(2.3353e+22 -3.95855e+17 9.86108e+16 2.33529e+22 6.5136e+17 2.33537e+22)
(1.8739e+22 -9.34968e+17 3.51266e+17 1.8739e+22 6.62582e+17 1.87403e+22)
(1.04309e+22 -7.46868e+17 5.84012e+17 1.043e+22 9.38631e+17 1.04322e+22)
(1.22005e+22 -5.93526e+16 4.60927e+17 1.21973e+22 1.37765e+18 1.22008e+22)
(2.41034e+22 -7.09653e+17 4.55925e+15 2.40991e+22 1.70723e+18 2.41034e+22)
(5.91116e+21 -3.1508e+17 -9.09547e+16 5.91133e+21 5.58821e+17 5.91265e+21)
(2.75716e+22 -2.04373e+18 3.92962e+17 2.75712e+22 6.43593e+17 2.75729e+22)
(7.18963e+21 -5.233e+17 4.20016e+17 7.18855e+21 7.82657e+17 7.1901e+21)
(4.67563e+21 -1.81716e+17 1.42655e+17 4.67451e+21 4.67184e+17 4.67595e+21)
(1.82945e+22 -2.08028e+16 -2.91167e+17 1.8293e+22 5.26434e+17 1.82941e+22)
(1.20165e+23 -1.06234e+19 -1.18022e+17 1.20141e+23 2.03536e+18 1.20161e+23)
(1.71009e+23 -6.05713e+18 3.84499e+17 1.71002e+23 7.25191e+17 1.71008e+23)
(8.74824e+22 -6.00506e+18 1.90747e+17 8.74745e+22 6.74714e+17 8.74814e+22)
(2.04984e+22 -1.68872e+18 -9.18352e+16 2.0496e+22 -4.94635e+17 2.05003e+22)
(3.97731e+22 -7.61029e+16 -2.95983e+16 3.97756e+22 -5.85468e+17 3.97766e+22)
(2.93802e+22 -1.41831e+18 3.45933e+17 2.93764e+22 7.83266e+16 2.93809e+22)
(2.72188e+22 -2.67224e+18 3.90039e+17 2.72167e+22 7.86815e+16 2.72198e+22)
(9.85128e+21 -1.44696e+18 -1.16472e+17 9.8493e+21 1.46847e+17 9.85239e+21)
(2.08405e+22 3.71293e+17 -5.03683e+16 2.08396e+22 1.20575e+16 2.08408e+22)
(3.50483e+22 1.39371e+18 -1.19761e+17 3.50477e+22 3.4115e+17 3.50497e+22)
(2.97512e+22 -7.7846e+17 -3.87965e+17 2.97448e+22 -1.61229e+16 2.97497e+22)
(1.78079e+22 -1.20262e+18 1.92581e+17 1.78053e+22 1.0945e+17 1.78081e+22)
(1.28156e+22 -6.94756e+17 1.12766e+17 1.2815e+22 9.41317e+16 1.28159e+22)
(1.35341e+22 -1.68104e+17 2.44979e+17 1.35314e+22 5.25638e+16 1.35338e+22)
(1.13848e+23 2.46722e+18 -1.11968e+15 1.13846e+23 1.816e+17 1.13848e+23)
(3.52461e+21 -1.54468e+17 -6.45496e+16 3.52406e+21 -4.9745e+17 3.52567e+21)
(3.34821e+21 -4.67013e+17 1.07419e+17 3.34755e+21 8.2521e+16 3.34871e+21)
(6.15945e+21 -5.93919e+17 -8.05731e+15 6.1587e+21 1.0298e+17 6.15949e+21)
(3.31617e+21 1.22286e+17 1.99426e+16 3.31476e+21 -5.95402e+16 3.31615e+21)
(1.67873e+23 2.96912e+18 -1.18464e+17 1.67872e+23 1.34776e+17 1.67873e+23)
)
;

boundaryField
{
    inlet
    {
        type            calculated;
        value           nonuniform 0();
    }
    outlet
    {
        type            calculated;
        value           nonuniform 0();
    }
    bottom
    {
        type            calculated;
        value           nonuniform 0();
    }
    top
    {
        type            symmetryPlane;
    }
    side1
    {
        type            symmetryPlane;
    }
    side2
    {
        type            symmetryPlane;
    }
    procBoundary81to17
    {
        type            processor;
        value           nonuniform List<symmTensor> 
20
(
(-5.47986e+18 -5.25987e+18 1.61253e+19 -5.42487e+18 2.11231e+19 1.65609e+19)
(-6.28121e+18 -2.05796e+18 1.42381e+19 -4.89394e+18 1.86787e+19 1.49956e+19)
(-1.73424e+18 -1.66997e+18 5.99634e+18 -2.57929e+18 7.83103e+18 5.57517e+18)
(4.69389e+17 -1.26203e+18 4.44282e+18 -1.41403e+18 7.16907e+18 3.14281e+18)
(8.19913e+17 -1.72684e+18 1.14711e+19 -8.59441e+17 1.18222e+19 2.39313e+18)
(-4.57651e+18 -2.77076e+18 1.00526e+19 -2.56772e+18 1.77299e+19 4.92636e+18)
(-3.49193e+18 -5.65336e+17 6.22941e+18 -3.01578e+18 9.52513e+18 3.21987e+18)
(-1.27256e+18 1.16784e+18 3.31791e+18 -1.25523e+18 5.70171e+18 1.38926e+18)
(5.51496e+17 9.44741e+17 2.89925e+18 -3.59064e+17 8.53211e+18 6.28218e+17)
(2.09337e+18 -7.27685e+17 3.50365e+18 -4.63887e+17 1.09312e+19 5.13062e+17)
(-3.00286e+18 -1.64024e+18 2.09829e+18 9.52551e+16 7.39225e+18 1.51396e+18)
(-1.88028e+18 -2.17346e+17 2.55425e+18 5.82209e+17 5.14036e+18 8.79651e+17)
(-8.55268e+17 1.61096e+18 4.05086e+18 2.40006e+17 4.9098e+18 5.64652e+17)
(-1.12682e+17 6.9198e+17 2.27492e+18 -1.55542e+17 4.61557e+18 4.46966e+17)
(4.9728e+17 -6.59524e+17 9.16123e+17 -5.19006e+17 7.44098e+18 1.19433e+18)
(-6.14974e+17 -4.57075e+17 9.85085e+17 4.33585e+17 4.83206e+18 1.81709e+17)
(-9.20498e+17 2.02524e+17 2.32219e+18 1.15324e+18 3.66092e+18 2.19883e+17)
(-8.18278e+17 4.8733e+17 1.65476e+18 3.86478e+17 2.4056e+18 3.06839e+17)
(-1.25916e+17 4.52407e+17 1.35174e+18 -3.05894e+17 2.88973e+18 7.35113e+17)
(-2.92715e+17 -1.35914e+17 3.13416e+17 -1.63844e+17 2.67434e+18 8.42889e+17)
)
;
    }
    procBoundary81to65
    {
        type            processor;
        value           nonuniform List<symmTensor> 10((5.38038e+18 -2.08449e+19 4.3443e+18 -5.95362e+18 8.76217e+18 7.35597e+18) (-1.0504e+18 -1.45273e+19 8.27777e+18 -4.64328e+18 6.84601e+18 6.41099e+18) (-7.39886e+18 -3.3097e+18 9.0165e+18 -2.77327e+18 5.68514e+18 5.56377e+18) (-1.07852e+19 -2.93265e+18 6.64553e+18 -4.83116e+18 6.09229e+18 5.12975e+18) (-1.09727e+19 -5.59347e+18 4.5749e+18 6.48135e+18 1.39568e+18 5.28924e+18) (6.13416e+18 -1.0314e+19 5.48264e+17 -6.5687e+18 1.02007e+18 3.84948e+18) (1.70707e+18 -7.09362e+18 8.57246e+17 -3.13888e+18 6.60548e+17 2.56213e+18) (7.26696e+17 -3.63648e+18 1.06505e+18 -2.2291e+18 7.21055e+17 1.50894e+18) (1.39767e+18 -3.47955e+18 2.33685e+18 -2.133e+18 4.69522e+17 1.41263e+18) (3.52283e+18 -3.75856e+18 2.69166e+18 -1.09265e+18 -6.76064e+16 2.46813e+17));
    }
    procBoundary81to80
    {
        type            processor;
        value           nonuniform List<symmTensor> 8((1.45308e+18 -2.19798e+19 5.98581e+18 -1.76706e+19 6.51403e+18 1.08842e+19) (2.81531e+18 -4.41066e+18 1.0767e+18 -7.7848e+18 3.03537e+18 3.71061e+18) (5.46443e+17 -1.57487e+18 3.95871e+17 -3.05639e+18 1.34817e+18 1.2969e+18) (2.42939e+17 3.22035e+17 1.66552e+17 -6.34027e+17 4.87611e+17 5.71025e+17) (3.72081e+18 -1.52639e+18 -4.74687e+17 -2.38533e+19 -1.38758e+18 7.96396e+18) (8.07967e+17 -2.14598e+17 -1.51448e+16 -3.63897e+18 -3.60997e+17 2.49021e+18) (7.55665e+17 -2.86934e+18 -2.31817e+17 -3.99908e+18 1.46855e+17 2.00095e+18) (8.83604e+16 -1.9259e+18 -3.1052e+16 -1.39829e+18 -1.34952e+16 9.11673e+17));
    }
    procBoundary81to82
    {
        type            processor;
        value           nonuniform List<symmTensor> 8((-2.63914e+18 -3.12842e+18 1.36899e+18 1.4761e+18 1.87744e+18 1.26851e+18) (-1.01271e+17 -1.29535e+18 5.65578e+17 -5.95209e+17 1.59264e+18 9.13629e+17) (7.66877e+17 3.753e+16 -2.55811e+17 -1.01412e+18 1.6116e+18 5.95223e+17) (3.36615e+17 -6.96888e+16 -2.73971e+17 -6.18237e+17 1.20321e+18 3.41054e+17) (-1.10038e+17 -7.63078e+17 -9.07233e+16 2.16803e+18 -2.08469e+17 1.15553e+18) (-5.87633e+17 -7.7625e+16 -8.82946e+16 1.08128e+17 2.694e+17 5.80434e+17) (-5.41678e+17 6.60004e+17 -2.72268e+17 3.52064e+17 8.16823e+17 5.97876e+17) (3.34485e+17 4.5744e+17 -2.84544e+17 -7.26169e+17 5.81033e+17 4.35534e+17));
    }
    procBoundary81to97
    {
        type            processor;
        value           nonuniform List<symmTensor> 10((-3.00359e+17 -7.88071e+17 2.50292e+17 -1.47832e+18 4.60196e+17 6.73278e+17) (-1.04688e+17 -1.11046e+18 3.7193e+17 -6.61183e+17 5.19526e+17 5.4597e+17) (-1.67128e+17 -3.40228e+17 1.74763e+17 -1.1714e+17 3.17487e+17 3.45971e+17) (9.43128e+15 -1.62312e+17 4.64313e+16 -3.79228e+17 1.44967e+17 1.97598e+17) (6.96718e+16 -7.93622e+16 -1.45928e+17 -2.2359e+17 1.45033e+17 1.50498e+17) (-3.99742e+17 2.43755e+17 1.84024e+17 1.18539e+17 -1.86605e+17 4.41424e+17) (-1.45862e+17 -2.46105e+16 6.02267e+15 3.6759e+16 6.54511e+16 1.76748e+17) (-9.90674e+16 -4.60613e+17 -3.23038e+16 -2.3156e+17 2.29318e+16 1.66777e+17) (2.28991e+17 2.74632e+15 2.12432e+16 -4.33181e+17 -5.79472e+16 3.32073e+17) (4.17583e+17 2.20817e+18 -3.39617e+17 -5.57192e+17 7.13336e+16 1.79275e+17));
    }
}


// ************************************************************************* //
