/*--------------------------------*- C++ -*----------------------------------*\
| =========                 |                                                 |
| \\      /  F ield         | OpenFOAM: The Open Source CFD Toolbox           |
|  \\    /   O peration     | Version:  2.4.0                                 |
|   \\  /    A nd           | Web:      www.OpenFOAM.org                      |
|    \\/     M anipulation  |                                                 |
\*---------------------------------------------------------------------------*/
FoamFile
{
    version     2.0;
    format      ascii;
    class       surfaceScalarField;
    location    "0.01";
    object      phib;
}
// * * * * * * * * * * * * * * * * * * * * * * * * * * * * * * * * * * * * * //

dimensions      [0 3 -1 0 0 0 0];

internalField   nonuniform List<scalar> 
82
(
-2.08602e+06
-1.43768e+06
266055
-2.04834e+06
-1.03713e+06
248205
-1.99962e+06
-779699
214405
-2.12216e+06
-1.3456e+06
311409
-1.75729e+06
475155
-1.34316e+06
-1.04924e+06
301216
-1.21619e+06
-903302
190841
-1.15154e+06
-595985
179490
-1.2517e+06
-934491
274372
-996936
352358
-837512
-1.00515e+06
178707
-786559
-700080
186723
-727907
-439541
150380
-797096
-637613
143496
-540709
193175
-535078
124184
-535031
91846.8
-501768
62772.8
-597916
69743.4
88637.5
-2.23253e+06
-1.41644e+06
-2.63953e+06
-1.09477e+06
-2.87627e+06
-889243
-2.858e+06
-1.14801e+06
-1.70752e+06
-1.44987e+06
-956708
-1.43809e+06
-915702
-1.47037e+06
-677468
-1.61056e+06
-733453
-1.39529e+06
-850339
-470756
-958965
-620353
-999742
-486312
-1.16738e+06
-422315
-695799
-342045
-363145
-432998
-549405
)
;

boundaryField
{
    inlet
    {
        type            fixedValue;
        value           nonuniform 0();
    }
    outlet
    {
        type            calculated;
        value           nonuniform 0();
    }
    bottom
    {
        type            fixedValue;
        value           nonuniform 0();
    }
    top
    {
        type            symmetryPlane;
        value           nonuniform List<scalar> 
20
(
-2.29263e-17
-2.99939e-17
-3.39888e-17
-2.96019e-17
-2.83739e-17
-2.32115e-17
-6.04256e-17
-4.80394e-17
-3.16403e-17
-3.68032e-17
-5.44796e-17
-3.37144e-17
-7.12319e-17
-7.34513e-17
-8.47372e-17
-7.43457e-17
-8.67888e-17
-1.65199e-16
-3.28839e-16
-2.08255e-16
)
;
    }
    side1
    {
        type            symmetryPlane;
        value           nonuniform 0();
    }
    side2
    {
        type            symmetryPlane;
        value           nonuniform 0();
    }
    procBoundary81to17
    {
        type            processor;
        value           nonuniform List<scalar> 
20
(
-683315
-669280
-610914
-820619
-890530
-619031
-451649
-427849
-585319
-634082
-432996
-440898
-365476
-371185
-347831
-423799
-317058
-237933
-239555
-200313
)
;
    }
    procBoundary81to65
    {
        type            processor;
        value           nonuniform List<scalar> 10(1.71976e+06 1.42053e+06 1.12748e+06 1.97735e+06 1.82443e+06 2.36136e+06 1.74998e+06 1.34039e+06 1.44115e+06 1.31848e+06);
    }
    procBoundary81to80
    {
        type            processor;
        value           nonuniform List<scalar> 8(2.2212e+06 1.27254e+06 1.04771e+06 750454 1.55366e+06 1.29135e+06 543094 392213);
    }
    procBoundary81to82
    {
        type            processor;
        value           nonuniform List<scalar> 8(-1.77393e+06 -1.73033e+06 -1.09867e+06 -758383 -1.9938e+06 -1.57044e+06 -1.6737e+06 -746871);
    }
    procBoundary81to97
    {
        type            processor;
        value           nonuniform List<scalar> 10(-920915 -474916 -297643 -371653 -268567 -396740 -507406 -353686 -236165 -409696);
    }
}


// ************************************************************************* //
