/*--------------------------------*- C++ -*----------------------------------*\
| =========                 |                                                 |
| \\      /  F ield         | OpenFOAM: The Open Source CFD Toolbox           |
|  \\    /   O peration     | Version:  2.4.0                                 |
|   \\  /    A nd           | Web:      www.OpenFOAM.org                      |
|    \\/     M anipulation  |                                                 |
\*---------------------------------------------------------------------------*/
FoamFile
{
    version     2.0;
    format      ascii;
    class       volScalarField;
    location    "0.01";
    object      alpha;
}
// * * * * * * * * * * * * * * * * * * * * * * * * * * * * * * * * * * * * * //

dimensions      [0 0 0 0 0 0 0];

internalField   nonuniform List<scalar> 
60
(
1.22421e-48
9.31014e-51
7.16586e-53
5.39569e-55
3.93643e-57
4.4538e-51
3.14406e-53
2.2795e-55
1.67004e-57
1.21783e-59
1.45755e-53
1.03649e-55
7.39419e-58
5.30791e-60
3.82059e-62
4.37127e-56
3.20638e-58
2.31979e-60
1.66833e-62
1.19675e-64
1.4062e-50
1.10836e-52
8.83429e-55
6.8791e-57
5.18293e-59
5.30799e-53
3.87146e-55
2.89933e-57
2.19288e-59
1.64949e-61
1.79854e-55
1.31952e-57
9.70631e-60
7.18098e-62
5.32402e-64
5.57586e-58
4.21533e-60
3.14099e-62
2.32507e-64
1.71574e-66
8.39977e-53
6.85411e-55
5.65146e-57
4.54654e-59
3.53449e-61
3.28588e-55
2.47377e-57
1.91186e-59
1.4915e-61
1.15631e-63
1.15156e-57
8.70866e-60
6.59995e-62
5.02831e-64
3.8371e-66
3.68698e-60
2.87043e-62
2.20115e-64
1.67587e-66
1.27131e-68
)
;

boundaryField
{
    inlet
    {
        type            zeroGradient;
    }
    outlet
    {
        type            zeroGradient;
    }
    bottom
    {
        type            fixedValue;
        value           uniform 0;
    }
    top
    {
        type            symmetryPlane;
    }
    side1
    {
        type            symmetryPlane;
    }
    side2
    {
        type            symmetryPlane;
    }
    procBoundary35to19
    {
        type            processor;
        value           nonuniform List<scalar> 
15
(
1.00678e-45
6.81946e-48
4.52033e-50
2.94357e-52
1.88891e-54
1.13505e-47
7.95885e-50
5.45534e-52
3.66984e-54
2.43058e-56
6.65744e-50
4.82716e-52
3.41803e-54
2.37309e-56
1.62077e-58
)
;
    }
    procBoundary35to34
    {
        type            processor;
        value           nonuniform List<scalar> 
12
(
4.18636e-46
1.15045e-48
3.10422e-51
8.28529e-54
4.71375e-48
1.33973e-50
3.73682e-53
1.03054e-55
2.76147e-50
8.10878e-53
2.33566e-55
6.64912e-58
)
;
    }
    procBoundary35to36
    {
        type            processor;
        value           nonuniform List<scalar> 
12
(
8.53804e-60
3.56677e-62
1.32295e-64
4.49028e-67
1.14098e-61
4.91808e-64
1.87938e-66
6.56489e-69
7.89447e-64
3.50822e-66
1.38018e-68
4.95835e-71
)
;
    }
    procBoundary35to51
    {
        type            processor;
        value           nonuniform List<scalar> 
15
(
3.24218e-59
2.83785e-61
2.47349e-63
2.07896e-65
1.68019e-67
4.19531e-61
3.79107e-63
3.40835e-65
2.95138e-67
2.45479e-69
2.8132e-63
2.62222e-65
2.42977e-67
2.16604e-69
1.85283e-71
)
;
    }
    procBoundary35to99
    {
        type            processor;
        value           nonuniform List<scalar> 
20
(
1.21328e-55
9.97292e-58
8.14521e-60
6.4816e-62
5.00896e-64
4.52465e-58
3.60304e-60
2.90896e-62
2.3315e-64
1.83595e-66
1.5496e-60
1.24819e-62
1.01703e-64
8.25359e-67
6.60985e-69
4.93897e-63
4.07277e-65
3.38718e-67
2.802e-69
2.28727e-71
)
;
    }
}


// ************************************************************************* //
