/*--------------------------------*- C++ -*----------------------------------*\
| =========                 |                                                 |
| \\      /  F ield         | OpenFOAM: The Open Source CFD Toolbox           |
|  \\    /   O peration     | Version:  2.4.0                                 |
|   \\  /    A nd           | Web:      www.OpenFOAM.org                      |
|    \\/     M anipulation  |                                                 |
\*---------------------------------------------------------------------------*/
FoamFile
{
    version     2.0;
    format      ascii;
    class       volScalarField;
    location    "0.01";
    object      nut;
}
// * * * * * * * * * * * * * * * * * * * * * * * * * * * * * * * * * * * * * //

dimensions      [0 2 -1 0 0 0 0];

internalField   nonuniform List<scalar> 
60
(
1.76462e+07
1.2477e+07
1.67877e+07
1.41256e+07
8.86112e+06
1.16497e+07
1.10372e+07
1.10236e+07
1.56648e+07
1.55992e+07
5.07302e+06
8.3607e+06
7.06394e+06
1.57687e+07
8.99484e+06
4.08008e+06
7.24243e+06
5.90696e+06
1.06621e+07
3.54773e+06
5.98626e+06
7.9613e+06
1.56531e+07
1.25606e+07
5.41235e+06
4.52096e+06
8.84578e+06
7.97901e+06
4.75113e+06
5.89458e+06
5.13344e+06
6.53309e+06
6.13405e+06
7.10496e+06
6.75384e+06
2.60611e+06
4.15321e+06
4.31523e+06
5.67153e+06
3.51536e+06
1.16059e+07
8.10585e+06
8.61421e+06
7.1148e+06
4.43181e+06
6.88628e+06
7.43592e+06
6.94462e+06
5.50734e+06
3.8903e+06
6.44402e+06
6.38306e+06
5.19098e+06
4.08453e+06
2.40214e+06
5.7413e+06
5.357e+06
3.37554e+06
3.27645e+06
2.20794e+06
)
;

boundaryField
{
    inlet
    {
        type            calculated;
        value           nonuniform 0();
    }
    outlet
    {
        type            calculated;
        value           nonuniform 0();
    }
    bottom
    {
        type            calculated;
        value           nonuniform List<scalar> 
20
(
2.37484e-17
1.24969e-17
5.19484e-18
3.53461e-18
2.01156e-17
1.58332e-17
8.8255e-18
7.26323e-18
2.00266e-17
1.53661e-17
1.00299e-17
8.10862e-18
1.49292e-17
1.67529e-17
1.32149e-17
8.26883e-18
1.06634e-17
1.29291e-17
7.29205e-18
3.08719e-18
)
;
    }
    top
    {
        type            symmetryPlane;
    }
    side1
    {
        type            symmetryPlane;
    }
    side2
    {
        type            symmetryPlane;
    }
    procBoundary35to19
    {
        type            processor;
        value           nonuniform List<scalar> 
15
(
1.69588e+07
1.57222e+07
1.52162e+07
1.20994e+07
8.20119e+06
1.3484e+07
7.36866e+06
1.09417e+07
1.14847e+07
7.21331e+06
1.54954e+07
7.92633e+06
7.0329e+06
8.57164e+06
7.28247e+06
)
;
    }
    procBoundary35to34
    {
        type            processor;
        value           nonuniform List<scalar> 
12
(
1.63939e+07
1.22633e+07
5.8818e+06
4.18106e+06
1.26853e+07
6.49097e+06
5.18698e+06
2.70565e+06
1.1782e+07
7.29344e+06
6.73343e+06
5.09813e+06
)
;
    }
    procBoundary35to36
    {
        type            processor;
        value           nonuniform List<scalar> 
12
(
5.39951e+06
5.62269e+06
4.12381e+06
3.97135e+06
3.46787e+06
7.86642e+06
5.33541e+06
2.47777e+06
2.59169e+06
1.56181e+06
1.99712e+06
2.28285e+06
)
;
    }
    procBoundary35to51
    {
        type            processor;
        value           nonuniform List<scalar> 
15
(
2.98224e+06
3.88588e+06
6.09958e+06
5.31489e+06
2.71426e+06
1.77078e+06
2.03023e+06
3.00006e+06
2.32992e+06
2.2678e+06
2.58092e+06
3.00608e+06
2.79293e+06
2.44167e+06
1.90823e+06
)
;
    }
    procBoundary35to99
    {
        type            processor;
        value           nonuniform List<scalar> 
20
(
1.0176e+07
1.0861e+07
6.51557e+06
4.44859e+06
2.89516e+06
7.89351e+06
9.52561e+06
4.78429e+06
4.16963e+06
2.47169e+06
5.05179e+06
8.13533e+06
4.65798e+06
3.12664e+06
2.61501e+06
3.66485e+06
4.03223e+06
3.18504e+06
2.08005e+06
1.29728e+06
)
;
    }
}


// ************************************************************************* //
