/*--------------------------------*- C++ -*----------------------------------*\
| =========                 |                                                 |
| \\      /  F ield         | OpenFOAM: The Open Source CFD Toolbox           |
|  \\    /   O peration     | Version:  2.4.0                                 |
|   \\  /    A nd           | Web:      www.OpenFOAM.org                      |
|    \\/     M anipulation  |                                                 |
\*---------------------------------------------------------------------------*/
FoamFile
{
    version     2.0;
    format      ascii;
    class       volVectorField;
    location    "0.02";
    object      Ua;
}
// * * * * * * * * * * * * * * * * * * * * * * * * * * * * * * * * * * * * * //

dimensions      [0 1 -1 0 0 0 0];

internalField   nonuniform List<vector> 
200
(
(1.94223 1.22732 0.0500333)
(1.93404 1.22834 0.0541073)
(1.92702 1.23162 0.0592548)
(1.92221 1.23835 0.0658801)
(1.92132 1.25044 0.0745969)
(1.92733 1.27106 0.0863733)
(1.94559 1.30569 0.102811)
(1.98619 1.36441 0.126717)
(2.06955 1.46703 0.163407)
(2.24109 1.65667 0.224015)
(1.6701 1.10885 0.0800708)
(1.67443 1.12196 0.0873453)
(1.68398 1.14029 0.0960833)
(1.70081 1.16567 0.106699)
(1.72787 1.20067 0.119763)
(1.76951 1.24904 0.136077)
(1.83227 1.31634 0.156797)
(1.92626 1.41104 0.183626)
(2.06756 1.54645 0.21916)
(2.28262 1.74425 0.267506)
(1.51962 1.05723 0.106292)
(1.54305 1.0837 0.114947)
(1.57381 1.11659 0.125026)
(1.61399 1.15762 0.136863)
(1.6664 1.2091 0.150902)
(1.73489 1.27418 0.167729)
(1.82486 1.35721 0.188141)
(1.94398 1.46434 0.213229)
(2.10335 1.60436 0.244516)
(2.31929 1.79014 0.284173)
(1.45719 1.04882 0.126197)
(1.49514 1.08467 0.135369)
(1.54105 1.12715 0.145858)
(1.59677 1.17779 0.157942)
(1.66475 1.23852 0.171973)
(1.74819 1.31192 0.188403)
(1.85139 1.40139 0.207826)
(1.98017 1.51152 0.231018)
(2.14249 1.64854 0.259013)
(2.34925 1.8209 0.29319)
(0.852694 0.665147 0.109311)
(0.915677 0.714293 0.117395)
(0.988366 0.771008 0.126724)
(1.07318 0.837185 0.137606)
(1.17344 0.915401 0.150467)
(1.29375 1.00927 0.1659)
(1.44081 1.124 0.184762)
(1.62465 1.26741 0.208339)
(1.861 1.4518 0.238652)
(2.17613 1.69764 0.279065)
(0.962861 0.751125 0.123462)
(1.02903 0.802749 0.13195)
(1.10466 0.86175 0.141651)
(1.19192 0.929831 0.152844)
(1.29374 1.00926 0.165902)
(1.41407 1.10313 0.181334)
(1.55846 1.21578 0.199853)
(1.73495 1.35346 0.222486)
(1.95555 1.52556 0.250776)
(2.23915 1.7468 0.287146)
(1.06041 0.827175 0.13598)
(1.1285 0.880297 0.144713)
(1.20567 0.940506 0.15461)
(1.29388 1.00932 0.165923)
(1.39566 1.08873 0.178976)
(1.51441 1.18138 0.194205)
(1.65477 1.29088 0.212204)
(1.8232 1.42229 0.233804)
(2.02907 1.5829 0.260205)
(2.28641 1.78367 0.293206)
(1.14261 0.891221 0.146527)
(1.21208 0.945422 0.155436)
(1.2903 1.00645 0.165466)
(1.379 1.07566 0.176842)
(1.48041 1.15479 0.189847)
(1.59743 1.24609 0.204853)
(1.73387 1.35255 0.22235)
(1.89493 1.47821 0.243004)
(2.08788 1.62875 0.267747)
(2.32316 1.81233 0.297918)
(0.962895 0.751142 0.123459)
(1.02906 0.802761 0.131948)
(1.10467 0.861757 0.141648)
(1.19193 0.929835 0.152842)
(1.29374 1.00926 0.1659)
(1.41407 1.10313 0.181332)
(1.55846 1.21578 0.199851)
(1.73494 1.35346 0.222484)
(1.95554 1.52555 0.250775)
(2.23914 1.7468 0.287145)
(1.06041 0.827172 0.13598)
(1.1285 0.880294 0.144712)
(1.20567 0.940503 0.15461)
(1.29387 1.00932 0.165922)
(1.39566 1.08873 0.178975)
(1.51441 1.18138 0.194204)
(1.65476 1.29088 0.212204)
(1.82319 1.42228 0.233804)
(2.02906 1.58289 0.260205)
(2.2864 1.78366 0.293205)
(1.14261 0.891217 0.146527)
(1.21207 0.945418 0.155436)
(1.29029 1.00645 0.165466)
(1.379 1.07566 0.176842)
(1.48041 1.15479 0.189847)
(1.59742 1.24609 0.204853)
(1.73387 1.35254 0.22235)
(1.89493 1.47821 0.243004)
(2.08788 1.62875 0.267747)
(2.32315 1.81233 0.297918)
(1.21277 0.945858 0.155528)
(1.2832 1.00081 0.16456)
(1.36207 1.06236 0.174675)
(1.45096 1.13172 0.186073)
(1.55179 1.2104 0.199003)
(1.66702 1.30032 0.21378)
(1.79981 1.40394 0.230808)
(1.95427 1.52446 0.250615)
(2.13599 1.66626 0.273918)
(2.35255 1.83526 0.301687)
(1.06044 0.827188 0.135976)
(1.12852 0.880304 0.144709)
(1.20569 0.940509 0.154607)
(1.29388 1.00932 0.16592)
(1.39566 1.08873 0.178973)
(1.51441 1.18137 0.194202)
(1.65476 1.29087 0.212202)
(1.82319 1.42228 0.233802)
(2.02906 1.58289 0.260203)
(2.28639 1.78366 0.293204)
(1.14261 0.891218 0.146526)
(1.21208 0.945418 0.155435)
(1.29029 1.00644 0.165466)
(1.379 1.07566 0.176841)
(1.48041 1.15478 0.189846)
(1.59742 1.24608 0.204852)
(1.73386 1.35254 0.222349)
(1.89493 1.47821 0.243003)
(2.08787 1.62875 0.267747)
(2.32315 1.81233 0.297917)
(1.21277 0.945857 0.155528)
(1.2832 1.00081 0.16456)
(1.36207 1.06236 0.174675)
(1.45095 1.13172 0.186073)
(1.55179 1.2104 0.199003)
(1.66702 1.30032 0.21378)
(1.7998 1.40393 0.230807)
(1.95427 1.52446 0.250615)
(2.13599 1.66626 0.273917)
(2.35255 1.83526 0.301687)
(1.27371 0.993308 0.163348)
(1.3448 1.04878 0.172464)
(1.42404 1.11061 0.182625)
(1.51283 1.17991 0.194011)
(1.6129 1.258 0.206842)
(1.72631 1.34651 0.221385)
(1.85565 1.44745 0.23797)
(2.00416 1.56335 0.257014)
(2.17608 1.69751 0.279059)
(2.37659 1.85402 0.30477)
(1.14278 0.891342 0.145934)
(1.21224 0.945533 0.154841)
(1.29044 1.00655 0.164869)
(1.37913 1.07575 0.176242)
(1.48053 1.15487 0.189244)
(1.59752 1.24616 0.204247)
(1.73395 1.3526 0.221741)
(1.89499 1.47826 0.242392)
(2.08792 1.62878 0.267132)
(2.32317 1.81234 0.297299)
(1.21291 0.945965 0.154874)
(1.28333 1.00092 0.163903)
(1.3622 1.06246 0.174015)
(1.45107 1.13181 0.185409)
(1.55189 1.21048 0.198335)
(1.66711 1.30039 0.213108)
(1.79988 1.404 0.230132)
(1.95433 1.52451 0.249935)
(2.13603 1.66629 0.273234)
(2.35257 1.83528 0.301)
(1.27384 0.99341 0.162631)
(1.34492 1.04887 0.171742)
(1.42415 1.1107 0.1819)
(1.51294 1.17999 0.193282)
(1.61299 1.25808 0.206108)
(1.7264 1.34658 0.220646)
(1.85572 1.44751 0.237227)
(2.00422 1.56339 0.256266)
(2.17612 1.69754 0.278307)
(2.37661 1.85404 0.304014)
(1.32755 1.03521 0.16946)
(1.39906 1.09102 0.178625)
(1.47844 1.15296 0.1888)
(1.56695 1.22204 0.200145)
(1.66609 1.29942 0.212854)
(1.77763 1.38649 0.227153)
(1.90369 1.48487 0.243312)
(2.04678 1.59656 0.261656)
(2.21003 1.72398 0.282588)
(2.39665 1.86966 0.306514)
)
;

boundaryField
{
    inlet
    {
        type            calculated;
        value           nonuniform 0();
    }
    outlet
    {
        type            calculated;
        value           nonuniform 0();
    }
    bottom
    {
        type            calculated;
        value           uniform (0 0 0);
    }
    top
    {
        type            symmetryPlane;
    }
    side1
    {
        type            symmetryPlane;
    }
    side2
    {
        type            symmetryPlane;
    }
    procBoundary22to14
    {
        type            processor;
        value           nonuniform List<vector> 
50
(
(2.24718 1.37568 0.0271521)
(2.24718 1.37568 0.0271523)
(2.24718 1.37568 0.0271526)
(2.24718 1.37568 0.0271529)
(2.24718 1.37568 0.0271534)
(2.24718 1.37568 0.027154)
(2.24717 1.37568 0.0271549)
(2.24715 1.37567 0.0271563)
(2.24712 1.37565 0.027159)
(2.247 1.37559 0.0271671)
(1.51495 0.995017 0.0650769)
(1.50606 0.998031 0.0708143)
(1.50062 1.00483 0.0777485)
(1.50032 1.01691 0.0862266)
(1.50764 1.03645 0.0967299)
(1.52629 1.06666 0.109942)
(1.56201 1.11236 0.126861)
(1.62382 1.18112 0.14899)
(1.72653 1.28512 0.178681)
(1.89539 1.44499 0.219793)
(1.34433 0.92509 0.0869584)
(1.35475 0.941705 0.0941574)
(1.37136 0.96377 0.102583)
(1.39607 0.992855 0.112529)
(1.43151 1.03108 0.124388)
(1.48131 1.08137 0.138684)
(1.55059 1.14782 0.156142)
(1.64672 1.23628 0.177782)
(1.78064 1.35542 0.205095)
(1.96908 1.51844 0.240343)
(1.30082 0.921662 0.102554)
(1.32424 0.946984 0.110426)
(1.35476 0.978257 0.119499)
(1.39422 1.01696 0.130031)
(1.44506 1.06503 0.142359)
(1.51053 1.12502 0.156919)
(1.59502 1.2004 0.174291)
(1.70455 1.29586 0.195259)
(1.84749 1.41798 0.220919)
(2.03586 1.57616 0.252847)
(1.30062 0.939199 0.114342)
(1.33268 0.97023 0.122601)
(1.37216 1.00736 0.132028)
(1.42078 1.05196 0.14286)
(1.48079 1.1058 0.15539)
(1.55509 1.17114 0.169995)
(1.64747 1.25092 0.187157)
(1.76289 1.34901 0.207501)
(1.90796 1.47055 0.231868)
(2.09161 1.62251 0.261416)
)
;
    }
    procBoundary22to21
    {
        type            processor;
        value           nonuniform List<vector> 
20
(
(1.94549 1.22476 0.0471132)
(1.65813 1.09406 0.0748684)
(1.49433 1.03185 0.0992485)
(1.41982 1.01475 0.118124)
(0.797584 0.622144 0.102236)
(0.904466 0.705503 0.115973)
(0.997757 0.778193 0.127948)
(1.07655 0.839559 0.138059)
(0.904506 0.705522 0.11597)
(0.997752 0.77819 0.127947)
(1.07654 0.839554 0.138059)
(1.14402 0.892083 0.146717)
(0.997792 0.778209 0.127944)
(1.07655 0.839556 0.138058)
(1.14402 0.892083 0.146717)
(1.20281 0.93784 0.154262)
(1.07674 0.839692 0.137466)
(1.14417 0.892201 0.146063)
(1.20295 0.937952 0.153546)
(1.25493 0.978392 0.160155)
)
;
    }
    procBoundary22to23
    {
        type            processor;
        value           nonuniform List<vector> 
20
(
(2.61688 2.04135 0.335519)
(2.61692 2.04144 0.335568)
(2.61686 2.04141 0.335575)
(2.61679 2.04134 0.335829)
(2.61723 2.04175 0.335631)
(2.61719 2.04172 0.335626)
(2.61714 2.04168 0.33562)
(2.6171 2.04165 0.335614)
(2.61718 2.04171 0.335625)
(2.61714 2.04168 0.33562)
(2.6171 2.04164 0.335614)
(2.61705 2.04161 0.335608)
(2.61713 2.04167 0.335618)
(2.61709 2.04164 0.335614)
(2.61705 2.04161 0.335608)
(2.617 2.04157 0.335602)
(2.61708 2.04163 0.33499)
(2.61704 2.0416 0.334917)
(2.617 2.04157 0.334842)
(2.61695 2.04153 0.334767)
)
;
    }
    procBoundary22to30
    {
        type            processor;
        value           nonuniform List<vector> 
50
(
(1.43753 1.05883 0.141335)
(1.4852 1.10062 0.150621)
(1.54076 1.14886 0.161122)
(1.60589 1.20489 0.173071)
(1.68267 1.27036 0.186762)
(1.7738 1.34742 0.202564)
(1.88281 1.43884 0.220951)
(2.01432 1.54826 0.242538)
(2.17458 1.68052 0.268143)
(2.37185 1.84195 0.298905)
(1.21042 0.943948 0.155229)
(1.28045 0.998588 0.16421)
(1.35891 1.0598 0.174272)
(1.44738 1.12884 0.185618)
(1.54786 1.20724 0.198503)
(1.66289 1.29699 0.213254)
(1.79574 1.40065 0.230291)
(1.95074 1.52159 0.250167)
(2.13369 1.66432 0.273629)
(2.35245 1.83493 0.301685)
(1.27055 0.990741 0.162947)
(1.34113 1.04581 0.171998)
(1.41983 1.10722 0.182091)
(1.50808 1.17608 0.193407)
(1.60764 1.25377 0.206174)
(1.72068 1.34198 0.220669)
(1.84995 1.44285 0.237245)
(1.99894 1.55912 0.25635)
(2.17233 1.69441 0.278585)
(2.37648 1.85365 0.304768)
(1.32334 1.0318 0.169721)
(1.39428 1.08716 0.178818)
(1.47306 1.14863 0.18892)
(1.56095 1.21722 0.200192)
(1.65952 1.29414 0.212831)
(1.77063 1.38085 0.227078)
(1.89655 1.47912 0.243224)
(2.04009 1.59116 0.26163)
(2.20499 1.71984 0.282776)
(2.3965 1.86924 0.307336)
(1.37038 1.06838 0.174891)
(1.44154 1.12391 0.184012)
(1.52025 1.18534 0.194102)
(1.60769 1.25358 0.205311)
(1.70522 1.32969 0.217813)
(1.81443 1.41493 0.231813)
(1.9372 1.51076 0.247551)
(2.07576 1.61892 0.265314)
(2.23305 1.74169 0.285479)
(2.41346 1.88244 0.308615)
)
;
    }
}


// ************************************************************************* //
