/*--------------------------------*- C++ -*----------------------------------*\
| =========                 |                                                 |
| \\      /  F ield         | OpenFOAM: The Open Source CFD Toolbox           |
|  \\    /   O peration     | Version:  2.4.0                                 |
|   \\  /    A nd           | Web:      www.OpenFOAM.org                      |
|    \\/     M anipulation  |                                                 |
\*---------------------------------------------------------------------------*/
FoamFile
{
    version     2.0;
    format      ascii;
    class       volVectorField;
    location    "0.02";
    object      Uc;
}
// * * * * * * * * * * * * * * * * * * * * * * * * * * * * * * * * * * * * * //

dimensions      [0 1 -1 0 0 0 0];

internalField   nonuniform List<vector> 
200
(
(4.45655e-25 2.81613e-25 1.14804e-26)
(6.07167e-23 3.85623e-23 1.69863e-24)
(7.89186e-21 5.04396e-21 2.42671e-22)
(9.70131e-19 6.24993e-19 3.32495e-20)
(1.11507e-16 7.25716e-17 4.32936e-18)
(1.18005e-14 7.78232e-15 5.2884e-16)
(1.12516e-12 7.55101e-13 5.94568e-14)
(9.35942e-11 6.42944e-11 5.97122e-12)
(6.44554e-09 4.56903e-09 5.08925e-10)
(3.32832e-07 2.46038e-07 3.32692e-08)
(3.35582e-27 2.22807e-27 1.6089e-28)
(4.45495e-25 2.98506e-25 2.32389e-26)
(5.65534e-23 3.82946e-23 3.22677e-24)
(6.8121e-21 4.66874e-21 4.2735e-22)
(7.70713e-19 5.35555e-19 5.34198e-20)
(8.07741e-17 5.70157e-17 6.21162e-18)
(7.68769e-15 5.52297e-15 6.57875e-16)
(6.44521e-13 4.72128e-13 6.14407e-14)
(4.52105e-11 3.38156e-11 4.79229e-12)
(2.39782e-09 1.83228e-09 2.81007e-10)
(2.13202e-29 1.4833e-29 1.49128e-30)
(2.76024e-27 1.93855e-27 2.05621e-28)
(3.4151e-25 2.42294e-25 2.713e-26)
(4.00538e-23 2.8728e-23 3.39647e-24)
(4.40558e-21 3.19658e-21 3.98949e-22)
(4.47784e-19 3.28871e-19 4.32917e-20)
(4.11721e-17 3.06211e-17 4.24479e-18)
(3.31471e-15 2.49686e-15 3.6358e-16)
(2.21229e-13 1.68746e-13 2.5718e-14)
(1.10073e-11 8.49596e-12 1.34868e-12)
(1.16085e-31 8.35525e-32 1.00533e-32)
(1.45734e-29 1.05724e-29 1.31946e-30)
(1.74416e-27 1.27571e-27 1.65082e-28)
(1.97277e-25 1.45512e-25 1.95133e-26)
(2.08463e-23 1.5509e-23 2.15348e-24)
(2.0258e-21 1.52025e-21 2.18321e-22)
(1.77003e-19 1.33981e-19 1.98693e-20)
(1.34375e-17 1.02573e-17 1.5677e-18)
(8.37473e-16 6.44394e-16 1.01245e-16)
(3.8412e-14 2.97731e-14 4.79387e-15)
(7.02608e-24 5.48072e-24 9.00704e-25)
(1.19237e-21 9.30134e-22 1.52869e-22)
(1.96131e-19 1.52998e-19 2.5147e-20)
(3.10668e-17 2.4235e-17 3.98346e-18)
(4.69732e-15 3.66439e-15 6.02327e-16)
(6.69661e-13 5.22408e-13 8.58719e-14)
(8.83978e-11 6.89602e-11 1.13357e-11)
(1.05021e-08 8.19284e-09 1.34675e-09)
(1.06948e-06 8.34316e-07 1.37148e-07)
(8.47108e-05 6.60844e-05 1.08632e-05)
(1.33843e-25 1.0441e-25 1.71618e-26)
(2.11932e-23 1.65329e-23 2.71756e-24)
(3.23599e-21 2.52442e-21 4.14952e-22)
(4.72989e-19 3.68983e-19 6.06526e-20)
(6.5534e-17 5.11239e-17 8.40373e-18)
(8.49037e-15 6.62346e-15 1.08877e-15)
(1.00833e-12 7.86612e-13 1.29305e-13)
(1.06446e-10 8.30401e-11 1.36504e-11)
(9.48151e-09 7.39669e-09 1.21589e-09)
(6.43502e-07 5.02008e-07 8.2522e-08)
(1.32148e-27 1.03082e-27 1.69458e-28)
(1.96109e-25 1.52976e-25 2.51479e-26)
(2.79386e-23 2.17939e-23 3.58272e-24)
(3.79074e-21 2.95706e-21 4.86111e-22)
(4.84662e-19 3.78077e-19 6.21517e-20)
(5.75404e-17 4.48868e-17 7.37886e-18)
(6.2104e-15 4.84472e-15 7.96411e-16)
(5.89871e-13 4.60161e-13 7.56442e-14)
(4.66905e-11 3.64237e-11 5.98753e-12)
(2.77211e-09 2.16257e-09 3.55491e-10)
(8.92207e-30 6.95907e-30 1.14415e-30)
(1.2487e-27 9.73987e-28 1.60132e-28)
(1.67109e-25 1.30348e-25 2.14299e-26)
(2.1202e-23 1.65382e-23 2.71893e-24)
(2.52149e-21 1.96688e-21 3.23355e-22)
(2.76748e-19 2.1588e-19 3.549e-20)
(2.74142e-17 2.13851e-17 3.51558e-18)
(2.36933e-15 1.84829e-15 3.03841e-16)
(1.68901e-13 1.3176e-13 2.16597e-14)
(8.91241e-12 6.95273e-12 1.14291e-12)
(5.22929e-26 4.0793e-26 6.70482e-27)
(8.28002e-24 6.4592e-24 1.06168e-24)
(1.26424e-21 9.86234e-22 1.62109e-22)
(1.84783e-19 1.4415e-19 2.36947e-20)
(2.56017e-17 1.99722e-17 3.28298e-18)
(3.31682e-15 2.58749e-15 4.25331e-16)
(3.93903e-13 3.07289e-13 5.05126e-14)
(4.15824e-11 3.24391e-11 5.33243e-12)
(3.70386e-09 2.88945e-09 4.74976e-10)
(2.51376e-07 1.96103e-07 3.22361e-08)
(1.03244e-27 8.05352e-28 1.32393e-28)
(1.53214e-25 1.19516e-25 1.96473e-26)
(2.18275e-23 1.70269e-23 2.79906e-24)
(2.96157e-21 2.31025e-21 3.79782e-22)
(3.78648e-19 2.95377e-19 4.85569e-20)
(4.49541e-17 3.50683e-17 5.76482e-18)
(4.85194e-15 3.78499e-15 6.22204e-16)
(4.60842e-13 3.59505e-13 5.90976e-14)
(3.64773e-11 2.84563e-11 4.6778e-12)
(2.16573e-09 1.68952e-09 2.7773e-10)
(1.04555e-29 8.15512e-30 1.3408e-30)
(1.46332e-27 1.14139e-27 1.87655e-28)
(1.9583e-25 1.52751e-25 2.51132e-26)
(2.4846e-23 1.93806e-23 3.18624e-24)
(2.95487e-21 2.30493e-21 3.78931e-22)
(3.24313e-19 2.52984e-19 4.15898e-20)
(3.2126e-17 2.50607e-17 4.11982e-18)
(2.77656e-15 2.16596e-15 3.56064e-16)
(1.97931e-13 1.54406e-13 2.53825e-14)
(1.04442e-11 8.14773e-12 1.33935e-12)
(7.26338e-32 5.66484e-32 9.31476e-33)
(9.63994e-30 7.51856e-30 1.23625e-30)
(1.21903e-27 9.50794e-28 1.56331e-28)
(1.45552e-25 1.13528e-25 1.86659e-26)
(1.62135e-23 1.26465e-23 2.07923e-24)
(1.65762e-21 1.29299e-21 2.12574e-22)
(1.5197e-19 1.18544e-19 1.94887e-20)
(1.20646e-17 9.41124e-18 1.54716e-18)
(7.83069e-16 6.10863e-16 1.0042e-16)
(3.71844e-14 2.90082e-14 4.76847e-15)
(2.01694e-28 1.57329e-28 2.58624e-29)
(2.99305e-26 2.33473e-26 3.83796e-27)
(4.2639e-24 3.3261e-24 5.46766e-25)
(5.78515e-22 4.51282e-22 7.4185e-23)
(7.39637e-20 5.76976e-20 9.48475e-21)
(8.78099e-18 6.84995e-18 1.12604e-18)
(9.47723e-16 7.39316e-16 1.21533e-16)
(9.00143e-14 7.02204e-14 1.15432e-14)
(7.12486e-12 5.55817e-12 9.13681e-13)
(4.23011e-10 3.29999e-10 5.42464e-11)
(4.08443e-30 3.18578e-30 5.23778e-31)
(5.7164e-28 4.45878e-28 7.33061e-29)
(7.65e-26 5.9671e-26 9.81026e-27)
(9.70588e-24 7.57086e-24 1.24467e-24)
(1.15429e-21 9.00395e-22 1.48025e-22)
(1.26689e-19 9.88248e-20 1.62465e-20)
(1.25496e-17 9.78958e-18 1.60934e-18)
(1.08462e-15 8.46096e-16 1.3909e-16)
(7.73183e-14 6.0316e-14 9.91522e-15)
(4.07984e-12 3.18275e-12 5.23193e-13)
(4.25601e-32 3.31933e-32 5.45801e-33)
(5.64854e-30 4.40551e-30 7.24382e-31)
(7.14292e-28 5.57118e-28 9.16023e-29)
(8.52861e-26 6.65215e-26 1.09372e-26)
(9.50023e-24 7.41021e-24 1.21832e-24)
(9.71276e-22 7.5762e-22 1.24557e-22)
(8.90461e-20 6.94603e-20 1.14193e-20)
(7.06919e-18 5.51446e-18 9.06551e-19)
(4.58834e-16 3.57931e-16 5.88406e-17)
(2.17879e-14 1.69971e-14 2.79405e-15)
(3.05301e-34 2.3809e-34 3.91536e-35)
(3.86011e-32 3.01042e-32 4.95041e-33)
(4.63537e-30 3.61515e-30 5.94461e-31)
(5.23642e-28 4.08406e-28 6.71538e-29)
(5.49525e-26 4.28609e-26 7.04727e-27)
(5.26668e-24 4.10797e-24 6.7541e-25)
(4.50018e-22 3.51024e-22 5.77108e-23)
(3.30733e-20 2.57989e-20 4.24133e-21)
(1.97203e-18 1.53834e-18 2.52893e-19)
(8.51246e-17 6.64072e-17 1.09162e-17)
(5.33055e-31 4.1577e-31 6.80714e-32)
(7.45936e-29 5.81824e-29 9.52795e-30)
(9.98113e-27 7.78536e-27 1.27521e-27)
(1.26617e-24 9.87647e-25 1.61807e-25)
(1.50561e-22 1.17444e-22 1.92451e-23)
(1.65227e-20 1.28886e-20 2.11246e-21)
(1.63649e-18 1.27658e-18 2.09277e-19)
(1.41418e-16 1.10318e-16 1.8089e-17)
(1.00798e-14 7.86327e-15 1.28963e-15)
(5.31812e-13 4.14876e-13 6.80566e-14)
(1.11081e-32 8.66337e-33 1.41837e-33)
(1.47408e-30 1.14969e-30 1.88265e-31)
(1.86384e-28 1.45372e-28 2.38098e-29)
(2.22516e-26 1.73558e-26 2.84317e-27)
(2.47836e-24 1.93313e-24 3.16741e-25)
(2.53351e-22 1.9762e-22 3.2386e-23)
(2.32244e-20 1.81161e-20 2.96945e-21)
(1.84352e-18 1.43807e-18 2.35763e-19)
(1.19641e-16 9.33308e-17 1.53041e-17)
(5.68055e-15 4.43149e-15 7.26799e-16)
(1.19531e-34 9.32168e-35 1.52605e-35)
(1.51114e-32 1.1785e-32 1.92968e-33)
(1.81442e-30 1.41508e-30 2.31747e-31)
(2.04946e-28 1.59844e-28 2.61823e-29)
(2.15052e-26 1.67732e-26 2.74793e-27)
(2.06083e-24 1.60743e-24 2.6339e-25)
(1.7607e-22 1.37339e-22 2.2508e-23)
(1.29385e-20 1.00927e-20 1.65436e-21)
(7.71384e-19 6.01739e-19 9.86533e-20)
(3.32936e-17 2.59729e-17 4.25889e-18)
(8.8756e-37 6.9211e-37 1.13295e-37)
(1.07311e-34 8.36833e-35 1.3701e-35)
(1.22867e-32 9.5818e-33 1.56904e-33)
(1.31897e-30 1.02865e-30 1.68471e-31)
(1.31025e-28 1.0219e-28 1.67394e-29)
(1.18335e-26 9.2297e-27 1.51213e-27)
(9.47825e-25 7.39302e-25 1.21142e-25)
(6.49003e-23 5.06244e-23 8.29672e-24)
(3.5808e-21 2.79327e-21 4.57862e-22)
(1.41667e-19 1.10517e-19 1.81182e-20)
)
;

boundaryField
{
    inlet
    {
        type            calculated;
        value           nonuniform 0();
    }
    outlet
    {
        type            calculated;
        value           nonuniform 0();
    }
    bottom
    {
        type            calculated;
        value           uniform (0 0 0);
    }
    top
    {
        type            symmetryPlane;
    }
    side1
    {
        type            symmetryPlane;
    }
    side2
    {
        type            symmetryPlane;
    }
    procBoundary22to14
    {
        type            processor;
        value           nonuniform List<vector> 
50
(
(4.65868e-23 2.85195e-23 5.62895e-25)
(6.62368e-21 4.05489e-21 8.00327e-23)
(8.96908e-19 5.49069e-19 1.08373e-20)
(1.14443e-16 7.006e-17 1.38283e-18)
(1.35597e-14 8.30101e-15 1.63846e-16)
(1.46057e-12 8.94133e-13 1.76489e-14)
(1.38446e-10 8.47544e-11 1.67299e-12)
(1.09363e-08 6.69503e-09 1.32163e-10)
(6.4796e-07 3.96671e-07 7.83134e-09)
(2.19427e-05 1.34331e-05 2.65296e-07)
(4.16938e-25 2.73844e-25 1.79102e-26)
(5.83677e-23 3.86789e-23 2.74443e-24)
(7.84072e-21 5.25022e-21 4.06235e-22)
(1.00353e-18 6.80188e-19 5.76749e-20)
(1.21237e-16 8.33466e-17 7.77854e-18)
(1.36501e-14 9.53945e-15 9.83248e-16)
(1.40631e-12 1.00149e-12 1.14216e-13)
(1.28879e-10 9.37426e-11 1.1825e-11)
(1.00095e-08 7.45047e-09 1.0359e-09)
(5.98023e-07 4.55915e-07 6.93477e-08)
(1.94607e-27 1.33918e-27 1.25882e-28)
(2.64644e-25 1.83958e-25 1.83932e-26)
(3.45241e-23 2.4263e-23 2.58253e-24)
(4.2888e-21 3.0501e-21 3.45696e-22)
(5.02371e-19 3.61846e-19 4.36523e-20)
(5.4733e-17 3.99557e-17 5.12423e-18)
(5.43689e-15 4.02465e-15 5.47485e-16)
(4.77382e-13 3.58396e-13 5.15387e-14)
(3.51467e-11 2.67535e-11 4.04822e-12)
(1.95639e-09 1.50866e-09 2.38794e-10)
(6.10569e-30 4.32602e-30 4.81359e-31)
(8.00835e-28 5.72687e-28 6.67802e-29)
(1.00509e-25 7.25768e-26 8.8656e-27)
(1.19741e-23 8.73406e-24 1.11676e-24)
(1.33965e-21 9.87343e-22 1.31975e-22)
(1.38679e-19 1.03287e-19 1.44064e-20)
(1.30008e-17 9.78429e-18 1.42062e-18)
(1.06791e-15 8.11866e-16 1.22332e-16)
(7.27287e-14 5.58203e-14 8.69673e-15)
(3.69189e-12 2.85826e-12 4.5852e-13)
(1.45081e-32 1.04765e-32 1.27545e-33)
(1.83091e-30 1.33295e-30 1.68435e-31)
(2.20438e-28 1.61833e-28 2.12104e-29)
(2.51028e-26 1.85865e-26 2.5241e-27)
(2.67297e-24 1.99608e-24 2.80494e-25)
(2.61966e-22 1.97286e-22 2.86368e-23)
(2.31011e-20 1.75406e-20 2.62434e-21)
(1.77092e-18 1.35516e-18 2.08448e-19)
(1.11494e-16 8.59332e-17 1.35495e-17)
(5.17393e-15 4.01353e-15 6.46653e-16)
)
;
    }
    procBoundary22to21
    {
        type            processor;
        value           nonuniform List<vector> 
20
(
(3.07723e-27 1.93723e-27 7.45201e-29)
(2.36876e-29 1.56294e-29 1.06955e-30)
(1.54482e-31 1.06672e-31 1.02602e-32)
(8.59066e-34 6.13977e-34 7.14712e-35)
(4.03255e-26 3.14553e-26 5.16899e-27)
(8.19637e-28 6.39334e-28 1.05096e-28)
(8.50033e-30 6.62978e-30 1.09004e-30)
(5.98473e-32 4.66725e-32 7.67494e-33)
(3.20241e-28 2.49791e-28 4.10594e-29)
(6.64107e-30 5.17966e-30 8.5162e-31)
(7.01332e-32 5.46942e-32 8.99409e-33)
(5.05915e-34 3.94504e-34 6.48824e-35)
(1.2974e-30 1.01189e-30 1.66362e-31)
(2.73976e-32 2.13663e-32 3.51351e-33)
(2.96445e-34 2.31162e-34 3.80182e-35)
(2.20165e-36 1.71664e-36 2.82364e-37)
(3.57616e-33 2.78887e-33 4.56567e-34)
(7.73823e-35 6.03412e-35 9.87851e-36)
(8.62108e-37 6.72192e-37 1.1004e-37)
(6.61264e-39 5.15547e-39 8.4391e-40)
)
;
    }
    procBoundary22to23
    {
        type            processor;
        value           nonuniform List<vector> 
20
(
(9.97059e-06 7.77779e-06 1.27836e-06)
(7.36236e-08 5.74333e-08 9.44075e-09)
(3.10697e-10 2.42374e-10 3.98424e-11)
(9.83511e-13 7.6723e-13 1.2622e-13)
(0.00402642 0.00314109 0.000516345)
(2.54818e-05 1.98788e-05 3.26776e-06)
(9.40753e-08 7.33899e-08 1.20641e-08)
(2.6463e-10 2.06443e-10 3.39359e-11)
(9.95404e-06 7.76533e-06 1.2765e-06)
(7.34968e-08 5.73362e-08 9.42516e-09)
(3.10113e-10 2.41925e-10 3.97687e-11)
(9.81411e-13 7.65617e-13 1.25855e-13)
(1.43553e-08 1.11988e-08 1.84091e-09)
(1.2114e-10 9.45032e-11 1.55348e-11)
(5.75049e-13 4.48606e-13 7.37438e-14)
(2.02212e-15 1.5775e-15 2.59315e-16)
(1.57887e-11 1.23171e-11 2.02098e-12)
(1.49909e-13 1.16947e-13 1.91847e-14)
(7.90795e-16 6.16913e-16 1.01181e-16)
(3.05928e-18 2.3866e-18 3.9135e-19)
)
;
    }
    procBoundary22to30
    {
        type            processor;
        value           nonuniform List<vector> 
50
(
(5.31292e-34 3.91329e-34 5.22354e-35)
(6.45303e-32 4.78208e-32 6.54433e-33)
(7.45093e-30 5.55575e-30 7.79164e-31)
(8.1035e-28 6.08e-28 8.73338e-29)
(8.20081e-26 6.19135e-26 9.1022e-27)
(7.59528e-24 5.76955e-24 8.67363e-25)
(6.28735e-22 4.8048e-22 7.37833e-23)
(4.48928e-20 3.45058e-20 5.40539e-21)
(2.60869e-18 2.016e-18 3.21672e-19)
(1.10642e-16 8.5923e-17 1.39432e-17)
(4.55649e-32 3.5534e-32 5.84345e-33)
(6.05299e-30 4.72056e-30 7.76262e-31)
(7.66326e-28 5.97653e-28 9.82769e-29)
(9.16303e-26 7.14638e-26 1.1751e-26)
(1.02246e-23 7.97456e-24 1.31124e-24)
(1.04745e-21 8.16971e-22 1.34328e-22)
(9.62463e-20 7.50705e-20 1.23429e-20)
(7.65866e-18 5.97379e-18 9.82161e-19)
(4.98304e-16 3.88686e-16 6.39033e-17)
(2.37961e-14 1.85612e-14 3.05167e-15)
(3.78481e-34 2.95128e-34 4.85398e-35)
(4.79274e-32 3.73736e-32 6.14661e-33)
(5.76617e-30 4.49659e-30 7.39499e-31)
(6.52882e-28 5.0915e-28 8.37302e-29)
(6.87033e-26 5.35803e-26 8.81094e-27)
(6.60547e-24 5.15167e-24 8.47119e-25)
(5.66377e-22 4.41741e-22 7.26345e-23)
(4.17697e-20 3.25792e-20 5.35668e-21)
(2.49897e-18 1.94919e-18 3.20475e-19)
(1.08948e-16 8.49785e-17 1.39718e-17)
(1.62406e-36 1.26627e-36 2.08289e-37)
(1.96832e-34 1.53475e-34 2.5244e-35)
(2.26018e-32 1.76239e-32 2.89869e-33)
(2.43469e-30 1.89855e-30 3.12248e-31)
(2.42849e-28 1.8938e-28 3.11449e-29)
(2.20359e-26 1.7185e-26 2.82603e-27)
(1.77407e-24 1.3836e-24 2.27516e-25)
(1.22094e-22 9.52261e-23 1.56578e-23)
(6.76754e-21 5.27852e-21 8.67892e-22)
(2.71598e-19 2.11842e-19 3.48307e-20)
(4.82269e-39 3.75989e-39 6.15482e-40)
(5.61259e-37 4.37591e-37 7.16447e-38)
(6.17276e-35 4.81288e-35 7.88123e-36)
(6.35015e-33 4.95144e-33 8.10948e-34)
(6.02862e-31 4.70099e-31 7.70054e-32)
(5.18624e-29 4.04434e-29 6.62597e-30)
(3.94018e-27 3.07283e-27 5.03508e-28)
(2.54474e-25 1.98468e-25 3.25257e-26)
(1.31497e-23 1.02562e-23 1.6811e-24)
(4.89056e-22 3.81451e-22 6.25367e-23)
)
;
    }
}


// ************************************************************************* //
