/*--------------------------------*- C++ -*----------------------------------*\
| =========                 |                                                 |
| \\      /  F ield         | OpenFOAM: The Open Source CFD Toolbox           |
|  \\    /   O peration     | Version:  2.4.0                                 |
|   \\  /    A nd           | Web:      www.OpenFOAM.org                      |
|    \\/     M anipulation  |                                                 |
\*---------------------------------------------------------------------------*/
FoamFile
{
    version     2.0;
    format      ascii;
    class       volVectorField;
    location    "0.14";
    object      Ur;
}
// * * * * * * * * * * * * * * * * * * * * * * * * * * * * * * * * * * * * * //

dimensions      [0 1 -1 0 0 0 0];

internalField   nonuniform List<vector> 
200
(
(2.258e+11 4.75132e+13 -2.41891e+12)
(-4.65336e+12 3.24523e+13 -4.39507e+12)
(1.6326e+13 8.60647e+13 -2.35605e+10)
(-1.24421e+13 4.07621e+13 -1.51885e+12)
(3.59665e+13 1.15577e+14 -1.39139e+12)
(1.21462e+13 7.86279e+13 -2.84294e+12)
(-7.95873e+12 2.54434e+13 -7.13904e+12)
(-8.73396e+12 3.18259e+13 -1.2266e+13)
(-2.31334e+13 3.18172e+13 -5.1119e+12)
(1.68452e+13 4.12165e+13 -2.89107e+13)
(-1.97114e+12 4.54033e+13 -8.69295e+12)
(-3.5082e+11 5.08893e+13 -3.84894e+12)
(-5.39875e+12 4.04241e+13 -5.5873e+12)
(5.86065e+12 6.60932e+13 -9.13469e+12)
(1.44307e+13 5.48322e+13 -1.02715e+13)
(2.18303e+13 6.26741e+13 -1.85326e+13)
(4.20229e+13 8.02606e+13 -1.60387e+13)
(1.58385e+13 5.37614e+13 -1.39753e+13)
(1.46941e+13 8.31332e+13 -6.96414e+12)
(-5.44472e+13 2.72352e+13 3.34885e+12)
(-1.11805e+13 7.27826e+13 -1.22171e+13)
(4.50697e+12 5.98152e+13 -1.06226e+13)
(-1.10353e+13 5.72168e+13 -1.53178e+13)
(6.72701e+12 4.90527e+13 -1.15505e+13)
(4.85728e+12 5.91334e+13 -2.13868e+13)
(2.96193e+13 6.25432e+13 -1.835e+13)
(1.0661e+13 7.05564e+13 -1.68028e+13)
(4.56888e+13 1.75645e+14 2.61156e+13)
(-7.50033e+11 1.05803e+14 -1.5805e+12)
(-2.84985e+13 1.83606e+14 2.82813e+13)
(2.49747e+13 9.42067e+13 -1.01567e+13)
(-1.57353e+13 7.78084e+13 -1.37899e+13)
(1.33077e+13 6.11718e+13 -9.9988e+12)
(-2.26468e+12 6.1479e+13 -2.18602e+13)
(2.31374e+13 5.41233e+13 -1.24037e+13)
(1.30508e+13 6.26048e+13 -1.53691e+13)
(1.63429e+13 1.09571e+14 -1.92422e+12)
(1.4585e+13 9.44817e+13 1.11543e+12)
(-5.00049e+13 1.54018e+14 2.42938e+12)
(-6.3501e+13 3.11115e+14 -2.64143e+13)
(-2.0355e+12 5.02201e+13 5.27492e+12)
(-3.94728e+12 3.72903e+13 -1.14563e+12)
(-2.21603e+12 4.23325e+13 6.73648e+12)
(-2.88381e+12 4.21804e+13 -1.11039e+13)
(5.88761e+12 6.00249e+13 -5.01129e+12)
(-2.23869e+12 5.27957e+13 -2.30255e+13)
(1.16729e+13 6.79697e+13 -3.5962e+12)
(-1.03805e+13 3.94043e+13 -1.88087e+13)
(-1.34753e+13 2.18218e+13 -5.30612e+13)
(-2.30427e+13 4.41317e+13 -3.15493e+13)
(8.53716e+12 4.60847e+13 -4.59475e+13)
(-3.63829e+12 4.54381e+13 -1.78654e+13)
(-4.22084e+12 4.73974e+13 -1.0431e+13)
(4.74328e+11 5.04769e+13 -6.10994e+12)
(-8.18047e+12 4.77655e+13 -2.74149e+13)
(1.52044e+13 6.18e+13 -1.44029e+13)
(1.23249e+12 5.18811e+13 -4.64864e+13)
(1.8609e+13 5.56065e+13 -3.26192e+13)
(-2.50924e+12 5.25718e+13 -3.6416e+13)
(-1.14979e+13 7.1151e+13 -8.10211e+13)
(1.05049e+13 6.85016e+13 -3.88884e+13)
(-9.07639e+12 6.43042e+13 -2.75585e+13)
(1.03897e+12 4.95404e+13 -1.95555e+13)
(-1.08588e+13 5.94079e+13 -3.8188e+13)
(6.22758e+12 4.88953e+13 -2.67751e+13)
(-3.55071e+12 5.0914e+13 -3.37766e+13)
(1.60045e+13 5.48403e+13 -3.74323e+13)
(5.33808e+12 5.09316e+13 -3.64027e+13)
(-1.11525e+12 9.12303e+13 -3.25589e+13)
(-1.00606e+14 2.67154e+14 -4.10606e+13)
(-1.27248e+13 8.25148e+13 -6.1568e+12)
(5.67392e+12 5.94011e+13 -1.74071e+13)
(-1.07337e+13 6.28926e+13 -3.36967e+13)
(8.39438e+12 5.57267e+13 -2.98185e+13)
(-6.38772e+12 5.7402e+13 -3.78714e+13)
(1.26197e+13 5.47217e+13 -3.07522e+13)
(-3.09752e+12 7.13629e+13 -3.14399e+13)
(-1.37366e+13 9.50373e+13 -2.6628e+13)
(-1.04394e+14 4.35293e+14 -3.38431e+13)
(-5.31977e+13 1.10912e+14 -8.33072e+13)
(7.51697e+11 2.6213e+13 -2.01543e+11)
(1.78581e+12 6.32705e+13 1.78137e+13)
(-3.87668e+12 3.59311e+13 -1.19511e+13)
(2.43269e+13 8.89142e+13 3.15594e+13)
(9.69907e+11 4.13985e+13 -1.14098e+13)
(1.06923e+12 3.5789e+13 -1.29828e+13)
(-1.52909e+13 2.39284e+13 -1.55778e+13)
(-1.5464e+13 2.69302e+13 -1.44022e+13)
(-1.22189e+13 4.96765e+13 -2.9142e+13)
(-2.76788e+13 5.41124e+13 -1.78036e+13)
(-6.94984e+12 4.27479e+13 -3.17595e+13)
(-7.92445e+12 4.39871e+13 -1.93198e+13)
(-1.49351e+12 4.36337e+13 -2.09116e+13)
(-5.39307e+12 4.35452e+13 -2.23189e+13)
(1.54076e+13 5.22204e+13 -4.36268e+13)
(-1.31719e+12 5.17209e+13 -3.3816e+13)
(1.08778e+13 4.3951e+13 -2.672e+13)
(-1.46939e+13 2.65918e+13 -3.21798e+13)
(6.22809e+12 2.97727e+13 -5.59291e+13)
(7.43404e+11 9.57451e+13 -6.56589e+13)
(-1.30426e+12 6.10568e+13 -4.13853e+13)
(-4.51014e+12 3.58126e+13 -3.89957e+13)
(-9.12255e+12 4.47545e+13 -2.39756e+13)
(-3.20962e+12 3.91703e+13 -3.22458e+13)
(-2.72632e+13 4.47689e+13 -5.76439e+13)
(3.85674e+11 4.00635e+13 -3.20626e+13)
(-1.95855e+13 3.81284e+13 -5.34788e+13)
(-1.09098e+12 3.35334e+13 -4.61496e+13)
(-2.07813e+13 2.87253e+13 -4.87524e+13)
(-1.54354e+13 4.19514e+13 -7.33251e+13)
(2.26778e+12 4.89294e+13 -2.60888e+13)
(-4.22436e+12 5.36717e+13 -2.02953e+13)
(-2.34035e+12 4.44926e+13 -2.88247e+13)
(-1.99566e+13 5.20097e+13 -4.05791e+13)
(-8.22724e+12 3.95493e+13 -3.33197e+13)
(-2.47667e+13 3.97949e+13 -4.44717e+13)
(-1.16964e+13 3.24784e+13 -4.63405e+13)
(-2.3739e+13 3.1073e+13 -5.01344e+13)
(-2.55292e+13 4.67296e+13 -5.72756e+13)
(-7.93696e+13 1.82232e+14 -5.71648e+13)
(-5.49215e+12 5.26185e+13 5.46137e+12)
(-5.57072e+11 3.62615e+13 -8.02835e+12)
(7.63815e+12 7.73433e+13 1.21852e+13)
(-1.34708e+12 4.33655e+13 -5.64045e+12)
(-1.44888e+13 1.87367e+13 -1.03653e+13)
(-2.39991e+13 1.05795e+13 -1.30648e+13)
(-2.84975e+13 1.44183e+13 -1.00834e+13)
(-3.29386e+13 1.37215e+13 -1.69502e+13)
(-3.82332e+13 1.75084e+13 -1.56878e+13)
(-4.70608e+13 1.31026e+13 -2.44827e+13)
(-3.88485e+12 4.82124e+13 -1.56703e+13)
(-8.94273e+12 3.7688e+13 -1.67156e+13)
(-5.55234e+12 4.87176e+13 -9.76611e+12)
(2.73913e+12 4.61326e+13 -1.14476e+13)
(-5.13202e+12 4.45515e+13 -1.54404e+13)
(-1.06818e+13 3.50764e+13 -2.01985e+13)
(-2.47982e+13 1.30621e+13 -1.82878e+13)
(-2.39369e+13 2.11775e+13 -1.78919e+13)
(-3.15622e+13 2.53782e+13 -2.98046e+13)
(-4.15543e+13 1.75954e+13 -2.95623e+13)
(-2.04907e+12 4.01669e+13 -4.65116e+13)
(-1.13122e+13 4.66125e+13 -2.18962e+13)
(-9.33171e+12 3.36055e+13 -1.63251e+13)
(-1.225e+13 4.11546e+13 -1.35525e+13)
(-1.24305e+13 3.12278e+13 -3.14852e+13)
(-2.1493e+13 3.39272e+13 -2.69082e+13)
(-1.46658e+13 3.01603e+13 -3.00833e+13)
(-3.73761e+13 1.07113e+13 -2.46392e+13)
(-1.92689e+13 2.29025e+13 -3.08111e+13)
(-3.75062e+13 3.0654e+13 -4.04908e+13)
(3.83087e+12 5.97879e+13 -1.60312e+13)
(-3.76557e+12 4.02656e+13 -2.32037e+13)
(-1.29819e+13 4.43614e+13 -2.08577e+13)
(-1.37949e+13 3.22719e+13 -2.40441e+13)
(-2.98372e+13 4.10086e+13 -3.57293e+13)
(-2.14096e+13 2.59911e+13 -3.35758e+13)
(-3.83802e+13 2.631e+13 -3.73256e+13)
(-3.05043e+13 1.69912e+13 -4.05568e+13)
(-4.9114e+13 6.94683e+12 -3.38894e+13)
(-3.88259e+13 8.19502e+12 -4.49863e+13)
(3.83436e+12 2.61122e+13 -2.68516e+12)
(-3.09768e+12 4.73653e+13 6.70028e+11)
(-7.34184e+12 3.27349e+13 -1.50933e+13)
(-1.05493e+13 4.18579e+13 -2.72393e+12)
(-2.08621e+13 1.38216e+13 -6.82891e+12)
(-2.55974e+13 3.06328e+13 -3.23985e+12)
(-3.30933e+13 8.90401e+12 -2.64743e+12)
(-3.98872e+13 1.16193e+13 -3.13839e+12)
(-4.54384e+13 8.07122e+12 -1.00709e+13)
(-5.29488e+13 1.25208e+13 -3.52162e+12)
(-4.20715e+12 4.35175e+13 -2.39696e+11)
(-1.09575e+13 4.42783e+13 -2.12036e+13)
(-1.41569e+13 4.26693e+13 -2.93922e+12)
(-1.53485e+13 3.57871e+13 -1.68862e+13)
(-2.02282e+13 3.93902e+13 -8.21706e+12)
(-3.00311e+13 1.67732e+13 -1.43774e+13)
(-3.24918e+13 3.18981e+13 -6.17871e+12)
(-3.99027e+13 1.33732e+13 -1.00846e+13)
(-4.74328e+13 1.30711e+13 -8.92788e+12)
(-5.35614e+13 9.12508e+12 -1.60072e+13)
(-1.04068e+13 5.6717e+13 -1.82926e+13)
(-1.60363e+13 3.36762e+13 -1.02465e+13)
(-1.51425e+13 4.00512e+13 -1.63239e+13)
(-1.91138e+13 3.56809e+13 -2.60394e+12)
(-2.01793e+13 3.0579e+13 -1.65986e+13)
(-2.59326e+13 3.40607e+13 -8.80423e+12)
(-3.51711e+13 1.6518e+13 -1.80117e+13)
(-3.93011e+13 1.92274e+13 -6.05422e+12)
(-4.36048e+13 1.34435e+13 -1.72618e+13)
(-5.16643e+13 8.82646e+12 -1.08487e+13)
(-6.32744e+12 5.75549e+13 -2.9583e+13)
(-1.10501e+13 4.28322e+13 -1.04096e+13)
(-1.7082e+13 3.29634e+13 -5.64145e+12)
(-2.00751e+13 3.51748e+13 -1.40473e+13)
(-2.75639e+13 2.90014e+13 -3.95489e+12)
(-3.18658e+13 2.56269e+13 -1.84442e+13)
(-3.77934e+13 2.29848e+13 -6.52449e+12)
(-4.52086e+13 1.19772e+13 -1.6115e+13)
(-5.05265e+13 8.81126e+12 -5.90739e+12)
(-5.39329e+13 3.145e+12 -1.35063e+13)
)
;

boundaryField
{
    inlet
    {
        type            calculated;
        value           uniform (-6 0 0);
    }
    outlet
    {
        type            calculated;
        value           nonuniform 0();
    }
    bottom
    {
        type            calculated;
        value           uniform (0 0 0);
    }
    top
    {
        type            symmetryPlane;
    }
    side1
    {
        type            symmetryPlane;
    }
    side2
    {
        type            symmetryPlane;
    }
    procBoundary8to0
    {
        type            processor;
        value           nonuniform List<vector> 
50
(
(-1.05445e+12 2.43361e+13 -1.17199e+12)
(5.45473e+12 6.27677e+13 -4.07554e+12)
(-8.62661e+12 2.44662e+13 -7.07729e+12)
(2.15469e+13 1.02126e+14 1.91415e+11)
(1.15491e+12 5.65739e+13 -8.28692e+12)
(-2.84706e+13 1.38538e+13 -9.21388e+12)
(-2.47016e+13 1.65857e+13 -7.22746e+12)
(-2.41571e+13 2.36664e+13 -7.13196e+12)
(-2.57277e+13 3.08248e+13 -3.77148e+12)
(-2.50969e+13 4.24572e+13 -1.34732e+13)
(-1.18535e+13 4.64713e+13 2.80019e+12)
(2.52555e+12 3.92436e+13 1.85181e+13)
(-6.97247e+12 6.54085e+13 -4.28175e+12)
(-9.4225e+12 4.60021e+13 -1.46831e+13)
(-1.18243e+11 5.0584e+13 -3.49502e+12)
(1.28927e+13 7.00357e+13 1.06032e+12)
(-2.09128e+13 2.03817e+13 -1.07226e+13)
(-2.72117e+13 1.63043e+13 -1.8466e+13)
(-2.17966e+13 3.34553e+13 -1.05213e+13)
(-1.69972e+13 8.24708e+13 2.26804e+13)
(6.82169e+12 6.0907e+13 3.86605e+13)
(-1.12205e+13 1.5678e+13 3.26376e+12)
(1.72734e+13 1.09506e+14 1.11784e+14)
(-1.5569e+13 4.20442e+13 5.99985e+11)
(-1.17941e+13 2.57259e+13 -3.60473e+12)
(-2.17359e+13 1.34299e+13 -1.23918e+13)
(-2.35057e+13 1.68648e+13 -8.75912e+12)
(-2.68887e+13 1.89514e+13 -1.47818e+13)
(-3.21698e+13 3.32924e+13 -5.30778e+12)
(-3.92934e+13 2.52175e+13 -1.89198e+13)
(2.75783e+12 1.48669e+13 -2.20293e+12)
(6.54819e+12 9.3531e+13 6.2072e+13)
(-1.17408e+13 1.1322e+13 -8.98075e+12)
(-1.5336e+13 7.97449e+12 -7.4038e+12)
(-2.38502e+13 6.30059e+12 -9.74744e+12)
(-2.6895e+13 1.04571e+13 -4.00427e+12)
(-3.15662e+13 8.81819e+12 -1.00446e+13)
(-3.37359e+13 1.47305e+13 -4.14224e+12)
(-3.85645e+13 9.91493e+12 -1.26116e+13)
(-4.0337e+13 1.48917e+13 -8.16067e+12)
(-3.69468e+12 4.77538e+13 5.49621e+12)
(5.67272e+11 1.49466e+13 -6.90335e+12)
(-5.99178e+12 4.25507e+13 2.66237e+12)
(-1.71434e+13 3.39227e+12 3.5435e+11)
(-2.44931e+13 2.01845e+13 4.67848e+11)
(-3.02675e+13 5.0634e+12 -9.26267e+11)
(-3.52801e+13 1.09319e+13 2.25949e+12)
(-3.90902e+13 5.36105e+12 -4.7583e+12)
(-3.90208e+13 1.0903e+13 2.9571e+12)
(-4.59332e+13 -2.32998e+11 -6.90822e+12)
)
;
    }
    procBoundary8to9
    {
        type            processor;
        value           nonuniform List<vector> 
20
(
(-3.69311e+13 6.72062e+13 -3.02686e+13)
(6.13862e+13 4.41173e+14 2.74825e+13)
(-6.30457e+13 2.40066e+14 -8.17599e+12)
(-3.81434e+12 7.84922e+13 -4.16761e+12)
(4.3683e+12 1.39384e+14 -1.57725e+13)
(-7.66831e+13 8.15852e+13 -5.3816e+13)
(-4.03216e+13 1.20173e+14 -7.70123e+13)
(-4.35746e+13 1.89735e+14 -2.78094e+13)
(-4.77038e+13 3.29091e+13 -2.67092e+13)
(6.84949e+12 1.22038e+14 -7.0944e+13)
(-8.39747e+13 6.18932e+13 -5.23344e+13)
(-6.09751e+13 6.81269e+13 -9.08825e+13)
(-5.11688e+13 1.51586e+13 -2.32679e+13)
(-5.81611e+13 1.27229e+13 -3.22819e+13)
(-3.48578e+13 2.68734e+13 -4.92416e+13)
(-7.97004e+13 1.65233e+13 -4.11307e+13)
(-7.42014e+13 -1.30436e+13 -1.15213e+13)
(-6.16958e+13 1.31381e+13 -9.46965e+12)
(-5.70536e+13 4.11497e+12 -1.91927e+13)
(-6.05978e+13 -1.7079e+12 -9.33719e+12)
)
;
    }
    procBoundary8to16
    {
        type            processor;
        value           nonuniform List<vector> 
50
(
(-6.66778e+12 8.21341e+13 -1.57501e+13)
(1.63407e+13 8.01034e+13 -1.12196e+13)
(-4.94544e+11 7.19151e+13 -1.91363e+13)
(2.68399e+13 5.45961e+13 -1.13927e+12)
(2.05853e+13 5.68628e+13 -1.68822e+13)
(2.56989e+13 7.32344e+13 -8.88691e+12)
(1.70024e+13 1.39218e+14 9.06673e+12)
(-6.55619e+13 1.64993e+14 2.99557e+13)
(-6.56986e+13 4.72193e+14 -1.07797e+14)
(2.99584e+13 7.06492e+13 -1.21172e+13)
(1.17434e+13 8.04346e+13 -1.56383e+13)
(-9.90091e+12 7.26783e+13 -2.63854e+13)
(7.67795e+12 6.09899e+13 -2.27954e+13)
(-5.74748e+12 6.29807e+13 -3.89797e+13)
(1.97213e+13 4.90516e+13 -2.442e+13)
(1.583e+13 5.87159e+13 -4.03353e+13)
(-1.55509e+13 9.35581e+13 -3.79763e+13)
(-1.01202e+14 2.53903e+14 -3.28051e+13)
(-7.67154e+13 1.69937e+14 -1.25233e+14)
(-4.05214e+13 1.75487e+14 -3.48133e+13)
(-5.03226e+12 6.59722e+13 -2.63161e+13)
(-9.41906e+11 5.27804e+13 -2.55877e+13)
(-1.93909e+13 6.30837e+13 -4.24869e+13)
(-6.4008e+12 4.72651e+13 -3.07973e+13)
(-2.49227e+13 4.97658e+13 -4.50637e+13)
(-1.47164e+13 3.82928e+13 -4.16483e+13)
(-3.35607e+13 4.70897e+13 -7.50518e+13)
(-4.54477e+13 4.20779e+13 -7.20864e+13)
(-9.72167e+13 1.84248e+14 -6.72399e+13)
(-8.39302e+13 5.79495e+13 -9.13185e+13)
(7.96451e+11 3.98537e+13 -1.48582e+13)
(-5.64161e+12 6.04962e+13 -2.20828e+13)
(-8.25803e+12 4.22507e+13 -2.62104e+13)
(-2.69662e+13 4.78331e+13 -3.12264e+13)
(-1.89426e+13 3.21373e+13 -3.19009e+13)
(-3.95728e+13 3.35064e+13 -3.46608e+13)
(-3.38136e+13 2.01486e+13 -3.75751e+13)
(-5.54053e+13 1.5661e+13 -4.01805e+13)
(-6.07319e+13 7.19272e+12 -4.52646e+13)
(-7.95517e+13 4.1708e+13 -3.38606e+13)
(4.78729e+12 6.93768e+13 -1.77349e+13)
(-9.69111e+12 4.21691e+13 -1.42959e+13)
(-1.75295e+13 4.20994e+13 -7.45109e+12)
(-2.54848e+13 3.33843e+13 -8.50353e+12)
(-3.50162e+13 3.2104e+13 -1.41958e+13)
(-3.96693e+13 2.26889e+13 -7.69187e+12)
(-4.95691e+13 1.92071e+13 -1.77942e+13)
(-5.4008e+13 1.74795e+13 -6.37092e+12)
(-6.49761e+13 5.34387e+12 -1.1817e+13)
(-7.01962e+13 -2.87644e+12 -6.61823e+12)
)
;
    }
}


// ************************************************************************* //
