/*--------------------------------*- C++ -*----------------------------------*\
| =========                 |                                                 |
| \\      /  F ield         | OpenFOAM: The Open Source CFD Toolbox           |
|  \\    /   O peration     | Version:  2.4.0                                 |
|   \\  /    A nd           | Web:      www.OpenFOAM.org                      |
|    \\/     M anipulation  |                                                 |
\*---------------------------------------------------------------------------*/
FoamFile
{
    version     2.0;
    format      ascii;
    class       volScalarField;
    location    "0.01";
    object      alpha;
}
// * * * * * * * * * * * * * * * * * * * * * * * * * * * * * * * * * * * * * //

dimensions      [0 0 0 0 0 0 0];

internalField   nonuniform List<scalar> 
200
(
7.73706e-51
3.98433e-53
2.03625e-55
1.0333e-57
5.20886e-60
2.60952e-62
1.2997e-64
6.4379e-67
3.17247e-69
1.55572e-71
1.45148e-50
7.45985e-53
3.80502e-55
1.92714e-57
9.69614e-60
4.84831e-62
2.4102e-64
1.19161e-66
5.86101e-69
2.86874e-71
4.25624e-52
2.26492e-54
1.19473e-56
6.25073e-59
3.2454e-61
1.67297e-63
8.566e-66
4.35825e-68
2.20418e-70
1.10848e-72
6.49575e-54
3.57544e-56
1.94866e-58
1.05229e-60
5.6336e-63
2.99171e-65
1.5767e-67
8.25021e-70
4.28793e-72
2.21441e-74
8.90038e-53
4.74596e-55
2.50853e-57
1.31508e-59
6.8415e-62
3.5337e-64
1.8129e-66
9.24188e-69
4.68323e-71
2.3598e-73
1.66617e-52
8.86713e-55
4.67776e-57
2.44759e-59
1.27091e-61
6.55202e-64
3.3551e-66
1.70718e-68
8.63485e-71
4.34286e-73
5.05775e-54
2.78363e-56
1.51696e-58
8.19081e-61
4.38462e-63
2.3282e-65
1.22688e-67
6.41909e-70
3.33588e-72
1.72256e-74
7.98273e-56
4.53938e-58
2.55326e-60
1.42155e-62
7.83939e-65
4.28458e-67
2.32206e-69
1.24851e-71
6.66286e-74
3.53065e-76
5.3219e-55
2.93536e-57
1.60307e-59
8.6742e-62
4.65318e-64
2.47599e-66
1.30749e-68
6.85515e-71
3.56992e-73
1.84726e-75
9.94148e-55
5.47272e-57
2.98307e-59
1.61108e-61
8.62622e-64
4.58151e-66
2.41486e-68
1.26375e-70
6.56902e-73
3.39286e-75
3.12073e-56
1.77466e-58
9.98224e-61
5.55789e-63
3.06509e-65
1.67526e-67
9.07953e-70
4.88199e-72
2.60542e-74
1.38066e-76
5.08882e-58
2.98686e-60
1.73237e-62
9.9366e-65
5.64039e-67
3.17054e-69
1.76588e-71
9.75046e-74
5.33994e-76
2.90195e-78
2.19665e-57
1.25189e-59
7.05698e-62
3.93759e-64
2.17615e-66
1.19192e-68
6.47359e-71
3.48813e-73
1.86547e-75
9.90631e-78
4.0947e-57
2.32914e-59
1.31046e-61
7.29825e-64
4.02593e-66
2.20101e-68
1.19321e-70
6.41752e-73
3.42582e-75
1.81589e-77
1.32777e-58
7.79383e-61
4.52072e-63
2.59318e-65
1.47209e-67
8.27536e-70
4.6094e-72
2.54529e-74
1.39405e-76
7.57637e-79
2.23468e-60
1.35256e-62
8.08216e-65
4.7719e-67
2.78597e-69
1.60945e-71
9.2059e-74
5.21662e-76
2.93005e-78
1.63204e-80
7.04799e-60
4.14643e-62
2.41047e-64
1.38577e-66
7.8841e-69
4.44181e-71
2.47954e-73
1.37219e-75
7.53193e-78
4.10241e-80
1.311e-59
7.69813e-62
4.46682e-64
2.56319e-66
1.45559e-68
8.18556e-71
4.56104e-73
2.51951e-75
1.38043e-77
7.50509e-80
4.38723e-61
2.65585e-63
1.58725e-65
9.37304e-68
5.47314e-70
3.16234e-72
1.80913e-74
1.02533e-76
5.75996e-79
3.20883e-81
7.61427e-63
4.7485e-65
2.92104e-67
1.77401e-69
1.06454e-71
6.31633e-74
3.70812e-76
2.15523e-78
1.24086e-80
7.08048e-83
)
;

boundaryField
{
    inlet
    {
        type            zeroGradient;
    }
    outlet
    {
        type            zeroGradient;
    }
    bottom
    {
        type            fixedValue;
        value           uniform 0;
    }
    top
    {
        type            symmetryPlane;
    }
    side1
    {
        type            symmetryPlane;
    }
    side2
    {
        type            symmetryPlane;
    }
    procBoundary6to5
    {
        type            processor;
        value           nonuniform List<scalar> 
20
(
1.49152e-48
2.8013e-48
7.92344e-50
1.1677e-51
1.65499e-50
3.10149e-50
9.09289e-52
1.38748e-53
9.55616e-53
1.7869e-52
5.42393e-54
8.56028e-56
3.81337e-55
7.11493e-55
2.23338e-56
3.64183e-58
1.18409e-57
2.2044e-57
7.14861e-59
1.20323e-60
)
;
    }
    procBoundary6to7
    {
        type            processor;
        value           nonuniform List<scalar> 
20
(
7.49475e-74
1.3835e-73
5.4881e-75
1.12496e-76
1.16704e-75
2.1503e-75
8.75001e-77
1.83903e-78
9.37307e-78
1.7238e-77
7.19173e-79
1.54906e-80
5.15398e-80
9.461e-80
4.04451e-81
8.92297e-83
2.18735e-82
4.00777e-82
1.75467e-83
3.96317e-85
)
;
    }
    procBoundary6to14
    {
        type            processor;
        value           nonuniform List<scalar> 
50
(
6.4584e-56
3.65027e-58
2.04332e-60
1.13339e-62
6.2326e-65
3.39936e-67
1.83968e-69
9.88275e-72
5.27178e-74
2.79333e-76
8.19312e-58
4.77906e-60
2.75821e-62
1.57598e-64
8.91964e-67
5.00297e-69
2.78223e-71
1.53472e-73
8.40053e-76
4.56443e-78
5.38694e-60
3.24013e-62
1.92656e-64
1.1331e-66
6.59591e-69
3.80217e-71
2.17148e-73
1.22928e-75
6.90085e-78
3.84311e-80
2.43768e-62
1.51057e-64
9.24555e-67
5.59296e-69
3.34608e-71
1.98092e-73
1.16108e-75
6.74132e-78
3.87894e-80
2.21284e-82
8.55233e-65
5.45578e-67
3.43486e-69
2.13573e-71
1.31236e-73
7.97436e-76
4.79426e-78
2.85338e-80
1.682e-82
9.8246e-85
)
;
    }
}


// ************************************************************************* //
