/*--------------------------------*- C++ -*----------------------------------*\
| =========                 |                                                 |
| \\      /  F ield         | OpenFOAM: The Open Source CFD Toolbox           |
|  \\    /   O peration     | Version:  2.4.0                                 |
|   \\  /    A nd           | Web:      www.OpenFOAM.org                      |
|    \\/     M anipulation  |                                                 |
\*---------------------------------------------------------------------------*/
FoamFile
{
    version     2.0;
    format      ascii;
    class       surfaceScalarField;
    location    "0.01";
    object      phib;
}
// * * * * * * * * * * * * * * * * * * * * * * * * * * * * * * * * * * * * * //

dimensions      [0 3 -1 0 0 0 0];

internalField   nonuniform List<scalar> 
490
(
2.29285e-05
6.32138e-06
-7.13183e-06
2.71554e-05
4.08907e-06
-8.3159e-06
2.55564e-05
-2.2433e-08
1.62142e-06
2.17646e-05
2.27664e-06
1.51518e-06
1.80078e-05
2.26104e-06
1.4957e-06
1.80362e-05
-1.99692e-08
-8.43479e-09
1.91229e-05
-4.42622e-07
-6.44066e-07
1.59442e-05
2.41394e-06
7.64742e-07
1.46488e-05
9.06386e-08
1.20484e-06
-2.33332e-07
1.11214e-06
2.2109e-05
7.14301e-06
-2.30379e-06
1.97789e-05
4.10689e-06
2.31225e-06
1.81224e-05
1.09962e-06
5.34537e-07
1.8219e-05
1.95632e-06
2.23662e-07
1.57567e-05
2.83105e-06
1.89231e-06
1.51972e-05
3.68204e-07
1.71289e-07
1.51694e-05
-4.37722e-07
2.29636e-08
1.48231e-05
2.38774e-06
3.72466e-07
1.40933e-05
4.23817e-07
3.96645e-07
-8.72885e-08
3.14177e-07
1.51653e-05
4.85282e-06
1.38937e-06
1.67777e-05
2.12232e-06
3.72176e-07
1.6984e-05
7.05729e-07
1.87639e-07
1.59739e-05
2.81964e-06
1.46735e-07
1.46154e-05
2.70204e-06
1.4875e-06
1.44034e-05
4.53277e-07
1.26939e-07
1.38553e-05
-1.36793e-07
2.47188e-07
1.40061e-05
9.46396e-07
1.29056e-06
1.40338e-05
6.74058e-07
-2.77909e-07
2.87123e-07
2.0905e-06
1.31467e-05
5.5941e-07
1.51114e-05
1.79489e-07
1.71129e-05
-5.06754e-07
1.28583e-05
-6.99497e-08
1.33289e-05
2.63943e-07
1.34555e-05
3.18379e-07
1.47531e-05
-1.476e-06
1.55688e-05
-4.09744e-07
1.41248e-05
1.68567e-06
1.04567e-06
1.21723e-05
-3.58858e-06
-4.64138e-06
1.40019e-05
-1.26165e-07
-1.00193e-05
1.51589e-05
5.52213e-07
-8.77581e-08
1.5626e-05
7.89661e-07
2.58347e-07
1.52522e-05
6.67396e-07
1.20217e-06
1.48747e-05
1.37632e-07
2.31367e-07
1.46939e-05
1.33167e-07
-5.9643e-07
1.56034e-05
8.46568e-08
-2.29421e-07
1.57749e-05
5.95907e-08
9.73772e-07
3.61715e-08
1.26222e-06
1.10054e-05
-2.15762e-06
-6.19802e-06
1.35915e-05
-2.22243e-07
-1.77777e-07
1.44762e-05
-2.83663e-08
2.30488e-07
1.47333e-05
4.06215e-07
3.49983e-07
1.50831e-05
8.10649e-07
1.39928e-06
1.4966e-05
1.42666e-07
2.83306e-07
1.4932e-05
5.52162e-08
1.34967e-07
1.52301e-05
7.93941e-08
7.95835e-08
1.53261e-05
9.13327e-08
2.68885e-07
1.74484e-07
3.31203e-07
1.10461e-05
-6.31132e-07
-1.26589e-07
1.20232e-05
-5.75103e-07
-2.52026e-07
1.46553e-05
-2.19939e-06
-2.7341e-07
1.47491e-05
4.04196e-07
5.4884e-08
1.53057e-05
5.8829e-07
1.15326e-06
1.52363e-05
1.83391e-07
1.55671e-07
1.52205e-05
2.10052e-07
1.08152e-07
1.59154e-05
2.14624e-07
4.60359e-07
1.62435e-05
1.01862e-08
-5.24822e-07
-4.36293e-07
2.69098e-06
1.15547e-05
6.14939e-07
1.11658e-05
2.95946e-07
1.29262e-05
-1.161e-06
1.46734e-05
-1.08455e-06
1.5766e-05
-2.40308e-07
1.52382e-05
1.00846e-06
1.5051e-05
-1.14158e-06
1.51146e-05
-3.40854e-07
1.53807e-05
1.38193e-06
1.23311e-06
1.43169e-05
-1.35391e-06
-4.31251e-07
7.86203e-06
-3.7972e-06
2.3275e-07
1.04304e-05
-2.68949e-06
3.33301e-08
1.39929e-05
-2.32304e-06
-9.8108e-07
1.64266e-05
-2.22905e-07
-1.00866e-06
1.63462e-05
-2.93269e-08
3.41174e-07
1.52489e-05
5.50877e-08
4.45745e-07
1.49853e-05
8.28353e-09
2.58385e-08
1.60726e-05
8.88123e-08
-2.02301e-07
6.04382e-08
6.9689e-07
1.09274e-05
-7.63968e-07
-1.47468e-06
1.00382e-05
-3.5362e-06
4.50421e-07
1.31811e-05
-6.65023e-06
1.04828e-06
1.53618e-05
-3.94565e-06
-2.08071e-07
1.67347e-05
6.66881e-08
-2.63219e-07
1.6164e-05
1.97351e-07
6.27315e-07
1.57308e-05
1.79827e-07
4.43397e-07
1.55218e-05
1.95626e-07
1.01282e-07
1.57887e-05
6.33695e-08
2.73824e-08
9.83498e-08
1.42662e-07
1.11059e-05
1.05287e-07
-6.73601e-07
9.96966e-06
-2.29602e-06
-3.55937e-07
1.13828e-05
-8.22095e-06
-1.15841e-07
1.77936e-05
-1.10649e-05
7.63314e-07
1.78444e-05
8.69143e-07
3.00024e-07
1.61075e-05
1.7826e-06
3.07383e-07
1.53342e-05
8.41601e-07
2.19684e-07
1.50538e-05
3.08664e-07
6.27735e-07
1.64493e-05
-3.58088e-07
-1.49892e-06
-5.03583e-07
-2.15714e-08
1.40007e-05
-3.92095e-08
1.37388e-05
9.77636e-08
9.05483e-06
-2.27541e-06
1.41552e-05
-1.36386e-06
1.53236e-05
-2.75019e-07
1.58529e-05
7.68534e-07
1.44986e-05
4.38365e-07
1.40983e-05
2.79426e-07
1.52615e-05
4.83049e-08
8.76802e-07
1.28846e-05
1.04081e-06
-7.44502e-07
1.4146e-05
-1.62441e-07
-8.66245e-07
1.50159e-05
-2.25109e-07
-6.11434e-07
1.48458e-05
1.94658e-07
-1.00565e-06
1.43436e-05
-2.89634e-07
-2.16834e-07
1.44839e-05
-1.32134e-07
3.3297e-07
1.467e-05
5.68112e-08
2.0288e-07
1.48093e-05
5.73832e-08
-1.70895e-07
1.44853e-05
2.40216e-07
-1.18511e-07
1.09607e-07
6.86805e-07
1.4429e-05
3.94354e-07
-1.53735e-06
1.46786e-05
2.40126e-08
1.42932e-08
1.46291e-05
1.16551e-07
7.56209e-07
1.49421e-05
-8.47219e-08
-2.41745e-07
1.45583e-05
1.6288e-07
-3.31965e-07
1.46824e-05
1.84306e-07
1.86776e-07
1.4956e-05
1.51799e-07
7.48627e-08
1.5422e-05
2.04835e-07
-5.12166e-07
1.47935e-05
1.31007e-07
7.65082e-07
4.67895e-08
6.17509e-07
1.41684e-05
1.87586e-07
-7.60816e-07
1.34662e-05
4.28038e-07
-5.78006e-08
1.53211e-05
-1.80547e-06
-4.87086e-08
1.48368e-05
-5.59783e-07
1.72264e-06
1.44053e-05
8.49933e-07
4.44865e-08
1.45209e-05
3.57222e-07
1.88415e-08
1.47342e-05
1.31046e-07
2.71415e-08
1.5129e-05
6.01078e-08
3.7772e-07
1.49066e-05
-7.4244e-08
-1.07129e-06
-4.6285e-07
1.76517e-07
1.45153e-05
-5.0782e-07
1.52446e-05
3.79684e-07
1.32433e-05
1.27679e-06
1.21398e-05
-2.20546e-07
1.27974e-05
-1.62522e-07
1.38729e-05
1.82944e-09
1.44339e-05
3.88027e-08
1.45591e-05
9.72899e-08
1.43399e-05
2.01118e-07
7.64419e-07
1.32482e-05
3.66181e-08
1.3068e-05
-6.84587e-07
1.38558e-05
-1.39828e-06
1.4288e-05
-1.43713e-06
1.40013e-05
7.05512e-08
1.46119e-05
-2.76953e-07
1.49644e-05
-1.48925e-07
1.47669e-05
2.72789e-08
1.54124e-05
-7.63324e-07
1.24439e-07
1.2388e-05
-1.17654e-06
1.29361e-05
-1.21769e-06
1.37916e-05
-1.49651e-06
1.58548e-05
-3.74082e-06
1.57227e-05
-1.28337e-07
1.53313e-05
3.02181e-07
1.5244e-05
1.39623e-08
1.46685e-05
9.18697e-08
1.48689e-05
-1.93008e-07
2.176e-07
1.29392e-05
-1.18075e-06
1.56296e-05
-3.96526e-06
1.75264e-05
-3.44093e-06
1.79383e-05
-2.4289e-06
1.60928e-05
1.76242e-06
1.5701e-05
7.13712e-07
1.56511e-05
9.1639e-08
1.61237e-05
-2.28373e-09
1.53286e-05
-4.68519e-07
1.94891e-08
1.62132e-05
1.80707e-05
1.82998e-05
1.48896e-05
1.52381e-05
1.51072e-05
1.50938e-05
1.51311e-05
1.51571e-05
)
;

boundaryField
{
    inlet
    {
        type            fixedValue;
        value           nonuniform 0();
    }
    outlet
    {
        type            calculated;
        value           nonuniform 0();
    }
    bottom
    {
        type            fixedValue;
        value           uniform 0;
    }
    top
    {
        type            symmetryPlane;
        value           nonuniform List<scalar> 
40
(
-9.17086e-10
-7.56481e-10
-6.76585e-10
-5.64935e-10
-1.40403e-09
-6.43713e-10
-6.21147e-10
-8.76205e-10
-9.94168e-10
-1.13803e-09
-1.07449e-09
-1.16956e-09
-6.82934e-10
-1.20123e-09
-1.19386e-09
-1.25662e-09
-7.01025e-10
-9.74495e-10
-7.95483e-10
-6.28749e-09
-7.03531e-10
-9.74113e-10
-7.9983e-10
-1.28385e-09
-6.99998e-10
-7.01988e-10
-6.93657e-10
-7.04845e-10
-6.8593e-10
-1.26238e-09
-6.84083e-10
-1.23809e-09
-6.62821e-10
-5.62295e-09
-7.61138e-10
-1.20286e-09
-6.72098e-10
-1.23125e-09
-7.39032e-10
-6.77327e-10
)
;
    }
    side1
    {
        type            symmetryPlane;
        value           uniform 0;
    }
    side2
    {
        type            symmetryPlane;
        value           nonuniform 0();
    }
    procBoundary6to5
    {
        type            processor;
        value           nonuniform List<scalar> 
20
(
-2.21181e-05
-2.06269e-05
-1.42645e-05
-9.76955e-06
-1.10742e-05
-8.54215e-06
-1.10567e-05
-1.07826e-05
-1.71731e-05
-1.62406e-05
-1.14282e-05
-1.30441e-05
-1.36121e-05
-1.37198e-05
-1.38744e-05
-1.34481e-05
-1.40284e-05
-1.27114e-05
-1.36952e-05
-1.60364e-05
)
;
    }
    procBoundary6to7
    {
        type            processor;
        value           nonuniform List<scalar> 
20
(
1.377e-05
1.3633e-05
1.15689e-05
1.30699e-05
1.55887e-05
1.51708e-05
1.62538e-05
1.48289e-05
1.65775e-05
1.59394e-05
1.97638e-05
1.55015e-05
1.43858e-05
1.43815e-05
1.52181e-05
1.44563e-05
1.59755e-05
1.53944e-05
1.5704e-05
1.58418e-05
)
;
    }
    procBoundary6to14
    {
        type            processor;
        value           nonuniform List<scalar> 
50
(
9.16265e-07
-2.18434e-08
-7.89069e-07
7.14422e-06
1.96744e-06
8.29041e-09
4.1619e-08
5.40432e-07
4.32385e-07
2.96351e-07
-1.45877e-06
-3.02625e-07
-3.30557e-06
-3.2841e-07
-8.37216e-11
2.11219e-08
6.2813e-08
8.22063e-08
4.7764e-08
-7.18606e-08
-1.97156e-07
-1.83597e-06
-2.42258e-06
-1.5886e-05
-2.64539e-07
1.49325e-06
6.1593e-07
8.87298e-08
-1.87694e-07
-3.87248e-07
-4.11005e-07
-5.83204e-07
-3.35635e-06
-5.99572e-07
7.97401e-08
4.8505e-08
-3.03893e-08
1.17038e-07
-7.88648e-09
-4.66833e-07
-1.86481e-06
-5.4422e-06
-2.39199e-06
7.61924e-07
1.25776e-06
8.47712e-07
1.44516e-07
5.89825e-08
-2.92237e-07
9.99223e-08
)
;
    }
}


// ************************************************************************* //
