/*--------------------------------*- C++ -*----------------------------------*\
| =========                 |                                                 |
| \\      /  F ield         | OpenFOAM: The Open Source CFD Toolbox           |
|  \\    /   O peration     | Version:  2.4.0                                 |
|   \\  /    A nd           | Web:      www.OpenFOAM.org                      |
|    \\/     M anipulation  |                                                 |
\*---------------------------------------------------------------------------*/
FoamFile
{
    version     2.0;
    format      ascii;
    class       volVectorField;
    location    "0.01";
    object      Ur;
}
// * * * * * * * * * * * * * * * * * * * * * * * * * * * * * * * * * * * * * //

dimensions      [0 1 -1 0 0 0 0];

internalField   nonuniform List<vector> 
200
(
(-7.99004 -0.498227 7.76112)
(-7.19466 -1.27654 -4.84759)
(-9.85789 1.82715 -4.56035)
(-7.54114 -1.02247 -3.13036)
(-5.08834 -0.291768 -0.564276)
(-5.13081 0.718989 0.0992105)
(-4.53746 0.63071 -0.886043)
(-6.90962 -1.60114 -3.55579)
(-2.94205 0.557864 -0.314282)
(-3.68727 0.662444 -0.120815)
(-7.31135 -7.81674 -9.2723)
(-6.00194 -3.54899 -7.12936)
(-4.60644 -0.103814 -1.3167)
(-5.52543 -0.71182 -0.765286)
(-4.42305 -1.72601 -1.28769)
(-3.53146 0.652883 -0.379421)
(-3.43442 1.28847 -0.573663)
(-4.47775 -1.72715 -0.904637)
(-3.10463 0.687528 -0.0719631)
(-3.28373 1.12032 -0.236254)
(-2.83256 -2.84597 -3.16359)
(-4.09954 -1.6627 -1.02787)
(-4.38463 0.0352222 -0.540889)
(-4.75482 -1.0429 -0.849953)
(-3.54016 -1.18316 -0.954132)
(-3.41459 0.612631 -0.25351)
(-3.1981 1.33497 -0.726948)
(-3.48096 -0.00449087 -2.83777)
(-3.20067 0.471689 -0.150886)
(-3.08729 0.867745 1.49175)
(-2.33147 -1.89302 -1.59707)
(-3.52365 0.681217 -0.648369)
(-4.32388 0.992103 -0.0838522)
(-3.72361 -0.454559 -0.251152)
(-2.73923 -0.917887 -0.641198)
(-3.04122 0.715377 -0.0595878)
(-3.23491 0.748595 -0.292736)
(-3.85234 0.521661 -0.318272)
(-3.73126 0.492069 -0.93227)
(-3.38833 0.625383 -0.0882343)
(-1.31625 2.42887 10.5092)
(-4.12124 0.410929 26.115)
(-3.51777 0.043417 0.241144)
(-4.16482 0.0846597 -0.614359)
(-4.12677 0.235936 -3.24911)
(-4.00478 0.506771 -0.216104)
(-3.74411 0.445917 2.16549)
(-4.01358 0.523268 1.11479)
(-4.24031 0.494921 -2.75414)
(-4.18407 0.540947 -2.74138)
(-1.49169 4.52232 14.5316)
(-2.58853 1.01107 0.769769)
(-3.54478 0.69806 -0.359197)
(-3.39151 0.25487 -0.0980884)
(-3.69071 0.247508 -3.7522)
(-3.74091 0.810395 -0.25381)
(-3.63235 0.863238 0.222358)
(-3.70043 0.856712 -0.298541)
(-3.7981 0.863949 -1.1255)
(-3.78467 0.760632 -0.746735)
(-2.11152 0.889311 -0.650461)
(-2.08271 1.2836 -0.262175)
(-3.28321 0.841173 -0.36457)
(-3.30553 0.697536 0.242528)
(-3.80421 0.242213 -3.018)
(-3.88769 0.787937 -0.259194)
(-3.74033 0.846921 -0.160701)
(-3.81043 0.824056 -0.71091)
(-4.27002 0.917223 0.690079)
(-3.36935 1.12258 -6.90504)
(-2.20256 2.18279 -0.396671)
(-2.57152 1.58753 -0.421276)
(-1.80027 4.88351 0.595466)
(-3.32521 0.999673 -0.065154)
(-4.03895 0.834695 -0.365979)
(-3.90429 0.861097 -1.11301)
(-3.72391 0.802309 3.81406)
(-3.60974 0.799554 1.13765)
(-3.86121 0.895813 -3.65572)
(-3.7882 1.15738 -2.81882)
(-4.05063 1.57005 0.438509)
(-2.22375 2.61822 -0.832908)
(-1.32971 2.40069 -0.265517)
(-2.5381 1.33104 -0.473973)
(-4.38723 0.574964 -0.0747266)
(-4.6811 0.544812 -0.461413)
(-4.30421 0.519257 -0.554181)
(-3.81858 0.563779 -0.341959)
(-4.07744 0.578842 0.223522)
(-4.41101 0.535453 -0.421625)
(-2.38647 1.78491 0.74721)
(-1.52365 4.56987 -0.658957)
(-2.41368 3.24439 -0.821537)
(-3.04902 4.04015 -1.23224)
(-4.65402 1.30089 -0.219393)
(-4.14769 0.994052 -0.869227)
(-4.15492 0.911385 -0.824325)
(-3.79822 0.94644 -0.122587)
(-3.93292 0.802059 0.190608)
(-4.01248 0.787127 -0.321046)
(-1.60018 1.67524 0.795923)
(-2.35581 3.0996 0.7902)
(-1.38721 8.93047 0.752517)
(-3.20723 3.6059 -1.04456)
(-5.66273 0.335106 -0.309187)
(-4.26188 0.421422 -0.461636)
(-4.10402 0.555979 -0.38949)
(-3.42411 0.59582 -0.719651)
(-3.97946 1.0683 0.205112)
(-4.94233 1.11495 -0.282194)
(-2.7533 0.513831 -0.730573)
(-3.56338 2.71371 0.035185)
(-2.47391 6.91871 3.08872)
(-1.24146 16.5793 2.77865)
(-4.16474 0.53484 0.846436)
(-4.28638 -1.06077 -1.6339)
(-3.53469 0.139228 -1.04961)
(-3.34507 0.783493 -0.503638)
(-3.42079 1.1748 -0.211739)
(-4.03737 1.33969 -0.670082)
(-2.38256 -0.795509 1.8431)
(-3.62369 0.637032 0.743015)
(-3.66317 0.608102 0.693592)
(-4.16947 -0.143069 3.52277)
(-3.64369 0.789711 3.06566)
(-3.68573 0.738514 -0.150291)
(-3.77294 0.569557 -0.42548)
(-3.8537 0.536369 0.407066)
(-3.86166 0.404012 0.376162)
(-3.65649 0.624243 -1.47047)
(-3.66274 0.404116 3.6312)
(-3.65748 1.00623 -0.265008)
(-3.37659 1.30485 -1.33246)
(-3.78304 1.32906 2.02806)
(-3.53594 1.18791 0.981114)
(-3.4642 0.981661 -0.636932)
(-3.63901 0.843694 -0.352516)
(-3.7714 0.83842 -0.269962)
(-3.73639 0.835373 -0.448783)
(-3.51134 0.807711 -0.267169)
(-3.05925 1.09579 1.09031)
(-3.24793 1.00381 0.225692)
(-3.26941 0.361416 -0.164794)
(-4.07297 0.8583 -0.282928)
(-3.31806 0.496088 -0.362257)
(-3.47075 0.650584 -0.340091)
(-3.54725 0.800475 -0.230132)
(-3.55622 0.772597 -0.957918)
(-3.78538 0.806838 3.53788)
(-3.62435 0.95241 0.0637042)
(-3.36057 0.788472 0.400227)
(-3.3481 0.350678 -0.676837)
(-4.39157 4.64065 2.1205)
(-1.78389 1.79777 0.591725)
(-2.77745 0.184165 -0.246513)
(-3.03016 0.67312 -0.266728)
(-3.39035 0.885971 -0.225348)
(-3.47823 0.967737 -0.383842)
(-3.49086 1.08145 0.0200272)
(-3.39302 1.59749 -1.6624)
(-3.15818 0.510507 -0.379269)
(-3.14941 0.894913 1.22854)
(-3.27753 1.01507 0.668161)
(-3.54762 0.726117 -1.18371)
(-3.86862 0.33346 -2.72769)
(-3.19747 1.322 -0.838963)
(-4.22363 0.735204 -0.143247)
(-3.75279 0.530372 -0.039506)
(-4.02856 0.267676 -0.136187)
(-4.05652 0.408573 -0.20907)
(-2.41022 1.09149 -0.160523)
(-2.8781 1.6839 -0.258535)
(-2.65206 2.7281 -1.25553)
(-3.72912 3.05389 -1.87811)
(-4.1746 1.16008 -0.457028)
(-3.87608 0.685594 -0.165621)
(-3.71241 0.999896 -0.106618)
(-3.96123 0.938541 1.38206)
(-3.18692 2.54655 -1.57784)
(-3.75912 0.94074 -1.43223)
(-2.71693 2.47391 0.234987)
(-3.66418 1.70418 -0.813753)
(-3.80848 1.20368 -0.374653)
(-5.37141 4.68623 -4.85289)
(-4.33015 0.802809 -0.145646)
(-4.01694 0.669852 -0.0244133)
(-3.93949 0.852585 -0.107009)
(-3.98408 0.861217 -0.224901)
(-4.0093 0.415643 -0.536442)
(-3.77381 0.755332 -0.520859)
(-3.85461 1.39173 0.35609)
(-3.9858 7.26574 -0.759055)
(-6.37438 6.86198 -5.77165)
(-3.15115 1.71763 -0.30282)
(-4.14338 -1.4731 0.378055)
(-3.6498 0.0124074 -0.142839)
(-3.68195 0.852806 -0.122679)
(-3.73332 0.93637 -0.00474631)
(-3.63777 1.55629 -0.624257)
(-3.95179 0.886455 -0.371538)
)
;

boundaryField
{
    inlet
    {
        type            calculated;
        value           nonuniform 0();
    }
    outlet
    {
        type            calculated;
        value           nonuniform 0();
    }
    bottom
    {
        type            calculated;
        value           uniform (0 0 0);
    }
    top
    {
        type            symmetryPlane;
    }
    side1
    {
        type            symmetryPlane;
    }
    side2
    {
        type            symmetryPlane;
    }
    procBoundary6to5
    {
        type            processor;
        value           nonuniform List<vector> 
20
(
(-4.99898 1.85817 18.823)
(-5.61192 0.551405 8.7261)
(-4.84607 -2.79852 -4.37072)
(-0.965845 -0.85424 -0.694289)
(-3.71525 2.18324 7.853)
(-0.74578 1.95708 4.20389)
(-1.82246 1.45579 0.620729)
(-1.61167 0.986976 -0.580331)
(-4.81204 1.31145 2.07715)
(-4.70118 3.99037 5.36033)
(-3.13074 -0.782948 -1.15142)
(-2.55104 -0.861355 -0.00640218)
(-4.1923 -3.45437 13.8727)
(-1.15749 -0.0884251 23.0091)
(-3.3288 13.587 1.23676)
(-3.71311 -0.67618 0.52346)
(-4.45835 0.430709 -2.6516)
(-4.07528 1.17882 -1.82136)
(-3.46713 1.2546 0.700382)
(-4.67026 1.43098 0.906608)
)
;
    }
    procBoundary6to7
    {
        type            processor;
        value           nonuniform List<vector> 
20
(
(-3.45859 0.55856 -0.156309)
(-3.0097 1.80192 -0.490772)
(-2.99381 1.15924 -0.746088)
(-2.51807 0.676687 0.993263)
(-4.29301 0.697814 2.07732)
(-3.80394 0.972477 1.43599)
(-5.58166 1.54923 29.8912)
(-3.22748 1.11834 3.42016)
(-4.7671 0.312619 -0.448572)
(-3.99181 -0.0116954 -0.723858)
(-4.4932 1.03914 -1.75897)
(-3.42916 1.70954 -0.703492)
(-3.57918 0.547205 -1.45229)
(-3.36149 0.965211 -0.950959)
(-3.82803 1.01355 -0.180464)
(-3.5038 1.01565 -1.32333)
(-4.62488 0.661179 -0.306095)
(-4.00818 0.587722 -0.186261)
(-4.12181 0.933651 -0.0496813)
(-3.92896 0.698547 -0.229475)
)
;
    }
    procBoundary6to14
    {
        type            processor;
        value           nonuniform List<vector> 
50
(
(-3.47586 1.87894 -0.942446)
(-3.68299 1.10068 -0.412102)
(-4.28499 1.90992 -0.453012)
(-1.04096 -9.79249 -1.11289)
(-3.91617 -0.341599 -0.315538)
(-3.3253 1.0591 -0.116754)
(-3.02316 1.17648 -0.141377)
(-4.43839 0.575108 0.120727)
(-3.77334 0.547362 -0.370416)
(-3.4888 0.770505 -0.232587)
(-3.95895 2.08575 -1.48631)
(-3.61794 0.946772 -0.972619)
(-3.20233 2.46949 -0.0146803)
(-3.43333 1.01411 -1.33468)
(-4.25019 0.941258 -0.531303)
(-3.93377 0.930793 -0.653315)
(-3.75451 0.910853 1.85792)
(-3.6447 0.905636 0.461021)
(-3.68037 0.932895 -3.29609)
(-3.59289 0.957864 -2.50337)
(-3.47008 1.77933 -1.35192)
(-4.71378 2.36792 -0.417218)
(-5.51016 -1.10085 0.187145)
(-2.96346 10.8401 7.4194)
(-0.817448 1.51361 0.176986)
(-3.14167 0.546281 -1.26769)
(-2.88915 0.810104 -0.867363)
(-3.07698 1.00409 -0.437307)
(-3.28924 1.15279 -0.16487)
(-3.74945 1.26062 -0.783396)
(-3.43935 1.47303 0.257191)
(-3.86148 2.11157 0.207168)
(-3.97635 2.40588 0.823542)
(-2.36264 1.1291 1.17748)
(-2.83254 1.23769 -0.121849)
(-3.28061 1.10197 -0.146751)
(-3.50877 1.0636 -0.238893)
(-3.49742 0.800238 0.515099)
(-3.50413 0.926557 0.00453103)
(-3.46372 1.07775 -1.1007)
(-6.61483 3.80794 1.07494)
(-4.55058 2.96839 -0.544782)
(-4.90244 -1.48127 -1.39525)
(-0.736522 -1.55562 2.48355)
(-3.03235 1.3344 1.80652)
(-3.77746 0.727983 0.0645352)
(-3.76528 0.886886 -0.1755)
(-3.78973 0.918586 -0.254664)
(-3.82216 0.83858 -0.413071)
(-3.84351 0.865358 -0.448203)
)
;
    }
}


// ************************************************************************* //
