/*--------------------------------*- C++ -*----------------------------------*\
| =========                 |                                                 |
| \\      /  F ield         | OpenFOAM: The Open Source CFD Toolbox           |
|  \\    /   O peration     | Version:  2.4.0                                 |
|   \\  /    A nd           | Web:      www.OpenFOAM.org                      |
|    \\/     M anipulation  |                                                 |
\*---------------------------------------------------------------------------*/
FoamFile
{
    version     2.0;
    format      ascii;
    class       volScalarField;
    location    "0.1";
    object      nut;
}
// * * * * * * * * * * * * * * * * * * * * * * * * * * * * * * * * * * * * * //

dimensions      [0 2 -1 0 0 0 0];

internalField   nonuniform List<scalar> 
200
(
4906.69
15466.4
18986.6
16227.7
7021.19
12037.2
4652.12
8718.26
4245.1
9990.06
16239.3
36018.5
16409.6
9897.91
19765.8
6045.07
10304.3
5033.31
9775.46
6413.06
36102.2
25869.1
14454.1
21012.1
12073
20238.7
7007.12
7794.58
7251.89
7020.32
32004.8
62552
35885
27015.3
18509.5
11300.1
24594.2
17258.9
8424.49
6584.53
11237.8
8202.11
18811.1
6076.11
10084.6
2839.32
4859.51
2493.93
4315.42
2931.93
7964.38
19845.5
27603.4
21261.1
17499.1
18344.8
4434.82
8775.59
1933.54
9722.31
14535.9
40601.8
21673.8
17707.1
20602.9
14826
15035
6844.38
9965.2
12735.6
3875.79
28445.2
55160.1
30356.2
32473.1
13869.2
14233.7
12924.3
15338.6
10226.8
8938.08
6080.58
7100.02
7599.08
2748.36
3042.7
3890.07
3443.13
4626.23
4023.44
15690.9
9188.72
20816.5
12266.6
12278.8
4158.97
7585.53
4696.1
5847.76
4236.85
7458.48
17052.6
30581.1
24530.3
22967.3
17063.5
6110.41
11426
6708.23
7421.53
17281.6
5377.79
20062
37335.7
21653.7
22438
17661.7
4552.21
4198.89
7008.33
4144.59
6306.85
3121
3926.06
3577.16
3954.57
4552.29
4734.42
4570.77
4680.13
7521.49
8852.34
8108.75
7149.03
3422.22
5892.37
4445.94
5874.24
4698.19
4343.72
13500.1
10659.3
15314.2
11896.8
11121.5
5324.36
6954.72
4834.94
5288.63
3419.66
12612.4
19237
9614.32
18053.7
15151.4
14080.4
7501.73
10324.2
4297.92
5940.75
5193.21
5561.11
3205.92
5009.07
3111.66
4588.45
3415.09
3513.94
3242.93
2576.8
6237.62
7572.48
4899.55
4967.88
4366.3
3759.86
3865.11
3113.18
3575.84
2196.42
11889.2
10138.7
11569.5
5857.98
5710.6
3951.69
3831.33
3904.12
2309.86
3687.78
24593.5
16460.9
19877.1
13429.1
14427
10246.8
11206
7971.63
8791.36
5739.95
)
;

boundaryField
{
    inlet
    {
        type            calculated;
        value           nonuniform 0();
    }
    outlet
    {
        type            calculated;
        value           nonuniform 0();
    }
    bottom
    {
        type            calculated;
        value           nonuniform List<scalar> 
40
(
2.38047e-20
1.13355e-20
3.29633e-20
2.14172e-20
8.70234e-21
3.14369e-20
4.07712e-20
5.32759e-20
1.81033e-20
4.04559e-20
9.83355e-21
8.81752e-20
1.66331e-20
4.26301e-21
4.81171e-20
3.72293e-21
1.45619e-20
1.88031e-20
5.62553e-21
4.26827e-20
6.18345e-21
4.78808e-21
2.40867e-20
2.5821e-21
2.06654e-20
7.59554e-21
1.41204e-20
2.72801e-20
2.75587e-21
8.43037e-21
8.53142e-21
2.93871e-20
1.94383e-20
4.15614e-21
1.29257e-20
8.03139e-21
2.66283e-21
7.29525e-21
7.00258e-21
1.53531e-20
)
;
    }
    top
    {
        type            symmetryPlane;
    }
    side1
    {
        type            symmetryPlane;
    }
    side2
    {
        type            symmetryPlane;
    }
    procBoundary30to22
    {
        type            processor;
        value           nonuniform List<scalar> 
50
(
8228.01
6468.91
8902.96
2874.37
8018.07
6910.81
5661.63
5753.87
7119.87
5212.85
8293.7
3360.34
7271.56
5420.44
4654.36
1208.52
4466.41
1859.27
3209.93
3633.38
5082.16
9315.04
5180.55
4490.68
3008.92
4228.6
3045.13
3765.63
3246.68
4678.55
7493.48
5925.44
5080.55
4628.41
4290.93
4609.94
4165.27
4391.38
5148.95
3896.65
6723.32
4686.62
5763.92
3520.3
5390.2
3182.34
4758.46
3904.32
3222.82
3217.12
)
;
    }
    procBoundary30to29
    {
        type            processor;
        value           nonuniform List<scalar> 
20
(
7206.46
5327.86
17235.2
11849.4
9492.26
18251.9
3493.32
17030.2
8833.25
6692.78
18571.1
9493.41
5214.51
9148.91
11163.7
24418.1
6881.36
8581.44
11711.7
21351.2
)
;
    }
    procBoundary30to31
    {
        type            processor;
        value           nonuniform List<scalar> 
20
(
2235.19
10017.1
9348.94
3815.32
5288.28
5660.08
8325.25
10382.3
4117.98
5647.74
7279.31
5630.34
2849.49
4056.95
4362.06
3774.3
2078.81
3662.55
1352.33
7107.99
)
;
    }
}


// ************************************************************************* //
