/*--------------------------------*- C++ -*----------------------------------*\
| =========                 |                                                 |
| \\      /  F ield         | OpenFOAM: The Open Source CFD Toolbox           |
|  \\    /   O peration     | Version:  2.4.0                                 |
|   \\  /    A nd           | Web:      www.OpenFOAM.org                      |
|    \\/     M anipulation  |                                                 |
\*---------------------------------------------------------------------------*/
FoamFile
{
    version     2.0;
    format      ascii;
    class       Cloud<softParticle>;
    location    "0.02/lagrangian/defaultCloud";
    object      positions;
}
// * * * * * * * * * * * * * * * * * * * * * * * * * * * * * * * * * * * * * //

5
(
(0.0492573 0.0142061 0.00137051) 38
(0.048474 0.0148908 9.58001e-05) 37
(0.0463637 0.0111445 0.000722856) 4
(0.04847 0.0124166 0.000695461) 17
(0.0438675 0.0100919 0.00240569) 40
)


// ************************************************************************* //
