/*--------------------------------*- C++ -*----------------------------------*\
| =========                 |                                                 |
| \\      /  F ield         | OpenFOAM: The Open Source CFD Toolbox           |
|  \\    /   O peration     | Version:  2.4.0                                 |
|   \\  /    A nd           | Web:      www.OpenFOAM.org                      |
|    \\/     M anipulation  |                                                 |
\*---------------------------------------------------------------------------*/
FoamFile
{
    version     2.0;
    format      ascii;
    class       volScalarField;
    location    "0.1";
    object      alpha;
}
// * * * * * * * * * * * * * * * * * * * * * * * * * * * * * * * * * * * * * //

dimensions      [0 0 0 0 0 0 0];

internalField   nonuniform List<scalar> 
200
(
1.41945e-121
6.57234e-124
3.07789e-126
1.45485e-128
6.92648e-131
3.31508e-133
1.59228e-135
7.66406e-138
3.69235e-140
1.77883e-142
1.88588e-123
8.87208e-126
4.17043e-128
1.96034e-130
9.21999e-133
4.34059e-135
2.04592e-137
9.656e-140
4.56325e-142
2.15911e-144
2.0022e-125
9.61925e-128
4.60954e-130
2.20387e-132
1.05163e-134
5.00982e-137
2.38334e-139
1.13258e-141
5.37739e-144
2.55135e-146
1.83632e-127
8.97728e-130
4.377e-132
2.12856e-134
1.03259e-136
4.99751e-139
2.41341e-141
1.16312e-143
5.59498e-146
2.68665e-148
3.41108e-123
1.60559e-125
7.64253e-128
3.67107e-130
1.77579e-132
8.63345e-135
4.21138e-137
2.05817e-139
1.00656e-141
4.92138e-144
4.60911e-125
2.2036e-127
1.05241e-129
5.02495e-132
2.4001e-134
1.14723e-136
5.48914e-139
2.62928e-141
1.26082e-143
6.0521e-146
4.97431e-127
2.42806e-129
1.18185e-131
5.73814e-134
2.77989e-136
1.34421e-138
6.48965e-141
3.12897e-143
1.507e-145
7.25163e-148
4.63643e-129
2.30229e-131
1.1399e-133
5.62795e-136
2.77118e-138
1.36104e-140
6.66862e-143
3.26006e-145
1.59041e-147
7.74367e-150
4.20174e-125
2.01026e-127
9.7245e-130
4.74634e-132
2.33244e-134
1.15178e-136
5.70531e-139
2.83081e-141
1.40523e-143
6.97224e-146
5.77325e-127
2.80468e-129
1.36075e-131
6.59888e-134
3.2005e-136
1.5531e-138
7.54267e-141
3.66644e-143
1.78387e-145
8.68633e-148
6.33286e-129
3.14026e-131
1.55239e-133
7.65322e-136
3.76389e-138
1.84722e-140
9.04942e-143
4.42653e-145
2.16248e-147
1.05528e-149
5.99797e-131
3.02489e-133
1.5207e-135
7.62181e-138
3.80896e-140
1.89826e-142
9.43562e-145
4.67869e-147
2.31466e-149
1.14267e-151
3.51531e-127
1.70909e-129
8.40029e-132
4.16512e-134
2.07893e-136
1.04249e-138
5.24285e-141
2.64052e-143
1.33022e-145
6.69653e-148
4.91039e-129
2.42341e-131
1.19419e-133
5.88053e-136
2.89552e-138
1.42621e-140
7.02908e-143
3.46677e-145
1.71107e-147
8.45062e-150
5.47341e-131
2.75657e-133
1.38372e-135
6.92525e-138
3.45683e-140
1.72155e-142
8.55642e-145
4.24541e-147
2.10335e-149
1.04076e-151
5.26648e-133
2.69689e-135
1.37638e-137
7.0016e-140
3.55057e-142
1.79518e-144
9.05104e-147
4.55137e-149
2.28304e-151
1.14255e-153
2.2556e-129
1.11423e-131
5.56348e-134
2.80192e-136
1.42026e-138
7.23128e-141
3.69181e-143
1.88712e-145
9.6467e-148
4.92673e-150
3.20259e-131
1.60544e-133
8.03383e-136
4.01661e-138
2.00758e-140
1.00357e-142
5.01882e-145
2.51122e-147
1.25721e-149
6.29693e-152
3.62692e-133
1.85493e-135
9.45342e-138
4.80245e-140
2.43277e-142
1.22927e-144
6.19788e-147
3.11895e-149
1.56696e-151
7.86099e-154
3.5448e-135
1.84294e-137
9.54705e-140
4.92852e-142
2.53581e-144
1.30059e-146
6.65055e-149
3.39115e-151
1.72458e-153
8.74846e-156
)
;

boundaryField
{
    inlet
    {
        type            zeroGradient;
    }
    outlet
    {
        type            zeroGradient;
    }
    bottom
    {
        type            fixedValue;
        value           uniform 0;
    }
    top
    {
        type            symmetryPlane;
    }
    side1
    {
        type            symmetryPlane;
    }
    side2
    {
        type            symmetryPlane;
    }
    procBoundary13to5
    {
        type            processor;
        value           nonuniform List<scalar> 
50
(
4.99298e-119
2.31247e-121
1.06903e-123
4.93324e-126
2.27269e-128
1.0453e-130
4.80027e-133
2.2011e-135
1.00783e-137
4.60813e-140
1.19165e-120
5.61137e-123
2.63672e-125
1.23645e-127
5.78678e-130
2.70324e-132
1.26052e-134
5.86764e-137
2.72679e-139
1.26512e-141
1.45789e-122
6.97881e-125
3.33273e-127
1.5879e-129
7.54896e-132
3.58124e-134
1.69549e-136
8.01133e-139
3.77828e-141
1.77862e-143
1.21151e-124
5.89415e-127
2.85998e-129
1.38421e-131
6.68309e-134
3.21908e-136
1.54705e-138
7.4187e-141
3.55008e-143
1.69534e-145
7.72178e-127
3.81745e-129
1.88179e-131
9.25036e-134
4.53506e-136
2.21762e-138
1.08171e-140
5.26378e-143
2.55551e-145
1.23788e-147
)
;
    }
    procBoundary13to12
    {
        type            processor;
        value           nonuniform List<scalar> 
20
(
9.33323e-119
9.16531e-121
9.03683e-123
8.13758e-125
2.22155e-120
2.21446e-122
2.21847e-124
2.03024e-126
2.71069e-122
2.74241e-124
2.79108e-126
2.59552e-128
2.24676e-124
2.30652e-126
2.38425e-128
2.25249e-130
1.42836e-126
1.48771e-128
1.56171e-130
1.49866e-132
)
;
    }
    procBoundary13to14
    {
        type            processor;
        value           nonuniform List<scalar> 
20
(
1.88979e-145
2.89047e-147
3.54824e-149
3.75793e-151
5.26081e-147
8.16428e-149
1.0165e-150
1.09165e-152
7.49893e-149
1.18071e-150
1.4909e-152
1.62346e-154
7.246e-151
1.15729e-152
1.48182e-154
1.63581e-156
5.36291e-153
8.68765e-155
1.12786e-156
1.26212e-158
)
;
    }
    procBoundary13to21
    {
        type            processor;
        value           nonuniform List<scalar> 
50
(
2.06302e-130
1.01317e-132
5.0776e-135
2.58304e-137
1.32719e-139
6.85852e-142
3.55294e-144
1.84054e-146
9.51825e-149
4.90811e-151
5.23325e-132
2.61048e-134
1.3287e-136
6.86383e-139
3.58062e-141
1.87827e-143
9.87468e-146
5.19026e-148
2.72278e-150
1.42391e-152
6.80154e-134
3.44572e-136
1.78101e-138
9.34179e-141
4.94734e-143
2.63412e-145
1.40531e-147
7.49404e-150
3.98767e-152
2.11482e-154
5.99941e-136
3.08613e-138
1.61955e-140
8.62374e-143
4.63558e-145
2.50468e-147
1.35576e-149
7.3338e-152
3.95768e-154
2.12819e-156
4.05642e-138
2.11847e-140
1.1286e-142
6.09988e-145
3.3277e-147
1.82443e-149
1.00186e-151
5.49678e-154
3.00805e-156
1.63995e-158
)
;
    }
}


// ************************************************************************* //
