/*--------------------------------*- C++ -*----------------------------------*\
| =========                 |                                                 |
| \\      /  F ield         | OpenFOAM: The Open Source CFD Toolbox           |
|  \\    /   O peration     | Version:  2.4.0                                 |
|   \\  /    A nd           | Web:      www.OpenFOAM.org                      |
|    \\/     M anipulation  |                                                 |
\*---------------------------------------------------------------------------*/
FoamFile
{
    version     2.0;
    format      ascii;
    class       volVectorField;
    location    "0.12";
    object      A_Source;
}
// * * * * * * * * * * * * * * * * * * * * * * * * * * * * * * * * * * * * * //

dimensions      [1 -2 -2 0 0 0 0];

internalField   nonuniform List<vector> 
200
(
(2.81901e+20 -4.63054e+20 2.13476e+20)
(6.06808e+18 -9.94672e+18 4.5952e+18)
(8.90815e+16 -1.45714e+17 6.7459e+16)
(1.00168e+15 -1.63505e+15 7.58547e+14)
(9.51086e+12 -1.54919e+13 7.20232e+12)
(8.02995e+10 -1.30522e+11 6.08086e+10)
(6.21594e+08 -1.00823e+09 4.70716e+08)
(4.49985e+06 -7.28343e+06 3.40762e+06)
(30881.4 -49879.1 23385.7)
(202.884 -327.004 153.638)
(1.53e+18 -2.52654e+18 1.15862e+18)
(4.46075e+16 -7.35853e+16 3.37801e+16)
(7.50133e+14 -1.23613e+15 5.68056e+14)
(9.48133e+12 -1.56077e+13 7.17995e+12)
(9.99521e+10 -1.64363e+11 7.5691e+10)
(9.2765e+08 -1.52384e+09 7.02484e+08)
(7.82872e+06 -1.28466e+07 5.92848e+06)
(61359.3 -100582 46465.7)
(453.218 -742.143 343.21)
(3.18836 -5.21543 2.41446)
(5.66391e+15 -9.36956e+15 4.28913e+15)
(1.88455e+14 -3.11537e+14 1.42712e+14)
(3.56213e+12 -5.88448e+12 2.69751e+12)
(4.99992e+10 -8.25385e+10 3.78631e+10)
(5.7957e+08 -9.5608e+08 4.38893e+08)
(5.86605e+06 -9.67005e+06 4.4422e+06)
(53615.7 -88322.1 40601.7)
(452.433 -744.777 342.615)
(3.57965 -5.88854 2.71077)
(0.0268552 -0.0441459 0.0203367)
(1.5997e+13 -2.64865e+13 1.21141e+13)
(5.9747e+11 -9.88727e+11 4.52447e+11)
(1.25378e+10 -2.07374e+10 9.49452e+09)
(1.93494e+08 -3.19869e+08 1.46528e+08)
(2.44605e+06 -4.04148e+06 1.85232e+06)
(26814.1 -44280.3 20305.6)
(263.882 -435.539 199.83)
(2.3854 -3.93505 1.8064)
(0.0201284 -0.0331872 0.0152427)
(0.000160423 -0.000264361 0.000121484)
(5.98677e+17 -9.81314e+17 4.53362e+17)
(1.74697e+16 -2.85756e+16 1.32293e+16)
(2.93875e+14 -4.7969e+14 2.22543e+14)
(3.71564e+12 -6.05227e+12 2.81375e+12)
(3.91829e+10 -6.36893e+10 2.96721e+10)
(3.63772e+08 -5.90044e+08 2.75475e+08)
(3.07098e+06 -4.97069e+06 2.32557e+06)
(24077.3 -38889.4 18233.1)
(177.9 -286.737 134.719)
(1.25192 -2.01358 0.948047)
(4.42388e+15 -7.29759e+15 3.35009e+15)
(1.47191e+14 -2.42554e+14 1.11464e+14)
(2.7821e+12 -4.57975e+12 2.10681e+12)
(3.90493e+10 -6.42134e+10 2.9571e+10)
(4.52631e+08 -7.43531e+08 3.42765e+08)
(4.58112e+06 -7.51743e+06 3.46916e+06)
(41870.3 -68634.9 31707.2)
(353.31 -578.546 267.552)
(2.79531 -4.5725 2.11681)
(0.0209704 -0.0342668 0.0158803)
(1.87266e+13 -3.09567e+13 1.41811e+13)
(6.99335e+11 -1.15526e+12 5.29588e+11)
(1.46737e+10 -2.42233e+10 1.1112e+10)
(2.26432e+08 -3.7353e+08 1.71471e+08)
(2.86209e+06 -4.71809e+06 2.16738e+06)
(31371.2 -51678.4 23756.6)
(308.693 -508.159 233.765)
(2.79015 -4.58982 2.11291)
(0.0235411 -0.0386981 0.017827)
(0.0001876 -0.000308169 0.000142064)
(5.94859e+10 -9.84397e+10 4.50471e+10)
(2.46279e+09 -4.07343e+09 1.86501e+09)
(5.67961e+07 -9.38908e+07 4.30102e+07)
(955664 -1.579e+06 723698)
(13082.1 -21603.5 9906.72)
(154.386 -254.815 116.912)
(1.62735 -2.68454 1.23235)
(0.0156869 -0.0258641 0.0118793)
(0.000140604 -0.000231702 0.000106476)
(1.18622e-06 -1.95374e-06 8.9829e-07)
(8.67238e+14 -1.41852e+15 6.56736e+14)
(2.88679e+13 -4.71204e+13 2.18609e+13)
(5.45891e+11 -8.89176e+11 4.13388e+11)
(7.6656e+09 -1.24599e+10 5.80495e+09)
(8.8895e+07 -1.44189e+08 6.73177e+07)
(900130 -1.45695e+06 681644)
(8230.76 -13294.2 6232.93)
(69.485 -111.995 52.6191)
(0.550005 -0.884623 0.416504)
(0.00412804 -0.00662553 0.00312606)
(7.32223e+12 -1.20659e+13 5.54492e+12)
(2.73474e+11 -4.50176e+11 2.07095e+11)
(5.73876e+09 -9.43689e+09 4.34581e+09)
(8.85651e+07 -1.45484e+08 6.70679e+07)
(1.11958e+06 -1.83718e+06 847829)
(12273 -20118.3 9294.03)
(120.78 -197.777 91.4634)
(1.0918 -1.78594 0.826793)
(0.00921278 -0.0150542 0.00697659)
(7.3425e-05 -0.000119854 5.56027e-05)
(3.4862e+10 -5.75893e+10 2.64e+10)
(1.44336e+09 -2.38268e+09 1.09302e+09)
(3.3287e+07 -5.49113e+07 2.52074e+07)
(560106 -923321 424153)
(7667.47 -12630.8 5806.37)
(90.4879 -148.958 68.5241)
(0.953835 -1.56906 0.722313)
(0.00919473 -0.0151148 0.00696292)
(8.24157e-05 -0.000135384 6.24111e-05)
(6.95321e-07 -1.1414e-06 5.26548e-07)
(1.23028e+08 -2.03484e+08 9.31657e+07)
(5.59046e+06 -9.24165e+06 4.2335e+06)
(140533 -232195 106422)
(2560.56 -4228.46 1939.04)
(37.7368 -62.285 28.5771)
(0.477049 -0.78696 0.361256)
(0.00536276 -0.00884197 0.00406107)
(5.49173e-05 -9.04984e-05 4.15874e-05)
(5.21119e-07 -8.58301e-07 3.94629e-07)
(4.64014e-09 -7.63844e-09 3.51385e-09)
(9.57688e+11 -1.56315e+12 7.25231e+11)
(3.57857e+10 -5.82887e+10 2.70995e+10)
(7.5132e+08 -1.22121e+09 5.68954e+08)
(1.16007e+07 -1.88164e+07 8.7849e+06)
(146721 -237482 111108)
(1609.18 -2599.12 1218.59)
(15.8439 -25.537 11.9982)
(0.143294 -0.230473 0.108513)
(0.00120974 -0.00194163 0.000916101)
(9.64629e-06 -1.54497e-05 7.30487e-06)
(9.09166e+09 -1.49658e+10 6.88487e+09)
(3.76467e+08 -6.19062e+08 2.85088e+08)
(8.68338e+06 -1.4264e+07 6.57569e+06)
(146133 -239796 110662)
(2000.74 -3279.66 1515.11)
(23.6152 -38.6699 17.8832)
(0.248965 -0.40725 0.188534)
(0.0024003 -0.00392222 0.00181769)
(2.15179e-05 -3.51243e-05 1.62949e-05)
(1.81568e-07 -2.96066e-07 1.37496e-07)
(4.80867e+07 -7.93794e+07 3.64147e+07)
(2.18521e+06 -3.60476e+06 1.6548e+06)
(54934.6 -90558.1 41600.5)
(1000.99 -1648.94 758.019)
(14.7531 -24.2859 11.1721)
(0.186511 -0.306811 0.14124)
(0.00209679 -0.0034468 0.00158784)
(2.14733e-05 -3.52741e-05 1.62612e-05)
(2.03775e-07 -3.34506e-07 1.54313e-07)
(1.81455e-09 -2.97658e-09 1.37411e-09)
(186647 -308545 141343)
(9232.19 -15253.8 6991.29)
(251.224 -414.865 190.245)
(4.9275 -8.13287 3.73146)
(0.077787 -0.128321 0.058906)
(0.0010487 -0.00172907 0.000794156)
(1.25241e-05 -2.06385e-05 9.48415e-06)
(1.35781e-07 -2.23637e-07 1.02824e-07)
(1.3599e-09 -2.23862e-09 1.02981e-09)
(1.2745e-11 -2.09693e-11 9.65141e-12)
(8.93143e+08 -1.45471e+09 6.75234e+08)
(3.70048e+07 -6.01471e+07 2.79718e+07)
(854034 -1.38523e+06 645456)
(14381 -23276.8 10867)
(197.011 -318.207 148.847)
(2.32675 -3.7502 1.75763)
(0.0245444 -0.0394768 0.0185378)
(0.000236777 -0.000380026 0.000178802)
(2.12388e-06 -3.40164e-06 1.60359e-06)
(1.79319e-08 -2.86596e-08 1.35369e-08)
(9.41674e+06 -1.54845e+07 7.11807e+06)
(428026 -703101 323491)
(10762.9 -17661.2 8132.95)
(196.161 -321.551 148.205)
(2.89183 -4.73535 2.18449)
(0.0365678 -0.0598165 0.0276188)
(0.0004112 -0.00067192 0.000310519)
(4.21214e-06 -6.87559e-06 3.18028e-06)
(3.99816e-08 -6.51942e-08 3.01822e-08)
(3.56109e-10 -5.80062e-10 2.68784e-10)
(54781.2 -90366.6 41402)
(2710.06 -4467.42 2047.85)
(73.7566 -121.5 55.725)
(1.44688 -2.38179 1.09297)
(0.0228443 -0.037579 0.0172538)
(0.000308028 -0.000506351 0.000232608)
(3.67917e-06 -6.04374e-06 2.77788e-06)
(3.98942e-08 -6.54879e-08 3.01163e-08)
(3.99616e-10 -6.55524e-10 3.01622e-10)
(3.74577e-12 -6.14019e-12 2.82676e-12)
(231.96 -383.247 175.279)
(12.4036 -20.4828 9.3712)
(0.363239 -0.599527 0.274391)
(0.00763106 -0.0125885 0.00576356)
(0.000128476 -0.000211827 9.7019e-05)
(1.84017e-06 -3.03242e-06 1.38938e-06)
(2.32677e-08 -3.83227e-08 1.75649e-08)
(2.66269e-10 -4.38323e-10 2.00975e-10)
(2.80713e-12 -4.61857e-12 2.11842e-12)
(2.7624e-14 -4.54258e-14 2.08432e-14)
)
;

boundaryField
{
    inlet
    {
        type            zeroGradient;
    }
    outlet
    {
        type            zeroGradient;
    }
    bottom
    {
        type            zeroGradient;
    }
    top
    {
        type            symmetryPlane;
    }
    side1
    {
        type            symmetryPlane;
    }
    side2
    {
        type            symmetryPlane;
    }
    procBoundary0to1
    {
        type            processor;
        value           nonuniform List<vector> 
20
(
(1.28535 -2.06734 0.973361)
(0.0215339 -0.0351874 0.016307)
(0.000192671 -0.0003165 0.000145905)
(1.21848e-06 -2.00687e-06 9.22719e-07)
(0.00845806 -0.0135752 0.00640506)
(0.000150447 -0.000245578 0.000113929)
(1.42474e-06 -2.33876e-06 1.07891e-06)
(9.50797e-09 -1.56517e-08 7.20013e-09)
(2.96289e-05 -4.74545e-05 2.24372e-05)
(5.57689e-07 -9.09374e-07 4.22323e-07)
(5.57338e-09 -9.14252e-09 4.22057e-09)
(3.91454e-11 -6.44059e-11 2.96437e-11)
(7.33027e-08 -1.17156e-07 5.55101e-08)
(1.45557e-09 -2.37097e-09 1.10226e-09)
(1.53089e-11 -2.50949e-11 1.1593e-11)
(1.12886e-13 -1.85634e-13 8.54858e-14)
(1.43838e-10 -2.29404e-10 1.08566e-10)
(3.0051e-12 -4.88982e-12 2.26782e-12)
(3.31826e-14 -5.43558e-14 2.50373e-14)
(2.5633e-16 -4.21295e-16 1.93377e-16)
)
;
    }
    procBoundary0to8
    {
        type            processor;
        value           nonuniform List<vector> 
50
(
(3.81284e+10 -6.31633e+10 2.88736e+10)
(1.57881e+09 -2.61437e+09 1.19559e+09)
(3.64157e+07 -6.02758e+07 2.75766e+07)
(612832 -1.01394e+06 464081)
(8390.35 -13876.1 6353.79)
(99.0321 -163.712 74.9943)
(1.04404 -1.72519 0.79062)
(0.0100656 -0.0166256 0.00762237)
(9.02328e-05 -0.000148978 6.83309e-05)
(7.61365e-07 -1.25651e-06 5.76561e-07)
(1.57494e+08 -2.60794e+08 1.19266e+08)
(7.15683e+06 -1.18461e+07 5.41967e+06)
(179912 -297668 136243)
(3278.13 -5421.44 2482.44)
(48.3129 -79.8673 36.5861)
(0.610756 -1.00923 0.462509)
(0.00686594 -0.0113407 0.00519939)
(7.03117e-05 -0.000116087 5.32451e-05)
(6.67208e-07 -1.10112e-06 5.05259e-07)
(5.94098e-09 -9.8005e-09 4.49894e-09)
(358251 -592974 271294)
(17720.3 -29318.5 13419.1)
(482.197 -797.467 365.155)
(9.45767 -15.6347 7.16204)
(0.149299 -0.246706 0.11306)
(0.00201278 -0.00332458 0.00152422)
(2.40371e-05 -3.96861e-05 1.82026e-05)
(2.60596e-07 -4.30072e-07 1.97342e-07)
(2.60991e-09 -4.30542e-09 1.97641e-09)
(2.44593e-11 -4.03322e-11 1.85224e-11)
(592.852 -980.869 448.951)
(31.6991 -52.4243 24.0049)
(0.928218 -1.53446 0.702915)
(0.0194983 -0.0322195 0.0147655)
(0.000328236 -0.000542158 0.000248564)
(4.70082e-06 -7.76123e-06 3.55981e-06)
(5.94321e-08 -9.80831e-08 4.50063e-08)
(6.80045e-10 -1.12183e-09 5.1498e-10)
(7.16853e-12 -1.18205e-11 5.42853e-12)
(7.05343e-14 -1.16258e-13 5.34137e-14)
(0.798162 -1.31999 0.603027)
(0.0458638 -0.075818 0.0346455)
(0.00143794 -0.00237609 0.00108604)
(3.22093e-05 -5.3201e-05 2.43229e-05)
(5.76009e-07 -9.5101e-07 4.34903e-07)
(8.73377e-09 -1.44137e-08 6.59316e-09)
(1.16549e-10 -1.92265e-10 8.79691e-11)
(1.40377e-12 -2.31474e-12 1.05936e-12)
(1.55373e-14 -2.56094e-14 1.17234e-14)
(1.60159e-16 -2.63872e-16 1.20825e-16)
)
;
    }
}


// ************************************************************************* //
