/*--------------------------------*- C++ -*----------------------------------*\
| =========                 |                                                 |
| \\      /  F ield         | OpenFOAM: The Open Source CFD Toolbox           |
|  \\    /   O peration     | Version:  2.4.0                                 |
|   \\  /    A nd           | Web:      www.OpenFOAM.org                      |
|    \\/     M anipulation  |                                                 |
\*---------------------------------------------------------------------------*/
FoamFile
{
    version     2.0;
    format      ascii;
    class       volVectorField;
    location    "0.12";
    object      Ur;
}
// * * * * * * * * * * * * * * * * * * * * * * * * * * * * * * * * * * * * * //

dimensions      [0 1 -1 0 0 0 0];

internalField   nonuniform List<vector> 
200
(
(4.11609e+08 -7.43544e+08 3.35571e+08)
(1.12068e+09 -6.19321e+07 1.64887e+08)
(1.2374e+09 -9.09571e+08 3.81388e+08)
(2.04738e+09 -1.1604e+08 -2.26701e+07)
(2.50742e+09 -9.78156e+08 5.10896e+08)
(3.2953e+09 9.40936e+07 -2.09128e+08)
(3.40474e+09 -4.78215e+08 -1.73763e+08)
(4.12813e+09 -2.23146e+07 -4.04715e+08)
(4.61913e+09 -5.98397e+08 -2.14235e+08)
(5.60613e+09 -6.66777e+08 -3.40174e+08)
(5.25064e+08 -1.82134e+09 1.37123e+08)
(2.67552e+08 -2.32086e+09 2.05876e+09)
(2.05377e+09 -6.97831e+08 1.33295e+08)
(1.80376e+09 -1.80143e+09 9.25508e+08)
(2.7761e+09 -1.9493e+09 3.7337e+07)
(3.15351e+09 -1.15156e+09 -7.24628e+07)
(4.28892e+09 -2.75095e+08 -5.32935e+08)
(4.71477e+09 -1.74313e+09 -4.54956e+08)
(5.57246e+09 -1.38743e+09 -6.16049e+08)
(5.12247e+09 -1.46463e+09 -4.11952e+07)
(7.5014e+08 -2.00351e+09 -1.16061e+09)
(3.56247e+08 -3.40007e+09 2.14444e+08)
(1.20725e+09 -1.85201e+09 -1.49154e+09)
(1.55855e+09 -2.54739e+09 1.73733e+08)
(2.06583e+09 -4.0101e+09 4.66107e+08)
(2.82203e+09 -2.05812e+09 -3.34235e+08)
(3.00204e+09 -2.10744e+09 -2.55948e+08)
(4.19119e+09 -1.51641e+09 -2.9719e+08)
(4.09023e+09 -1.91174e+09 -6.96379e+08)
(3.34519e+09 1.90804e+09 -3.92239e+08)
(1.40837e+08 -3.75743e+09 -3.89324e+07)
(1.05071e+09 -1.86853e+09 -1.21958e+09)
(6.68934e+08 -2.65343e+09 1.2989e+08)
(1.42495e+09 -3.29085e+09 1.56449e+08)
(1.59992e+09 -3.66252e+09 -1.02869e+08)
(1.64382e+09 -3.47718e+09 2.39228e+08)
(2.33603e+09 -2.49799e+09 -4.01574e+08)
(2.26915e+09 -2.5475e+09 -6.79183e+08)
(1.55834e+09 1.78028e+09 2.11486e+07)
(2.00354e+09 -8.50211e+08 -9.18606e+08)
(7.40571e+08 -1.01291e+07 -1.39445e+08)
(3.61435e+08 -9.57861e+08 6.72494e+07)
(1.39276e+09 1.2229e+09 -7.04787e+08)
(8.78336e+08 -9.53326e+08 -1.79726e+08)
(2.09126e+09 1.13132e+09 -8.97628e+08)
(1.89009e+09 -1.0523e+09 -1.55359e+08)
(2.98529e+09 5.18232e+08 -1.37196e+09)
(3.06384e+09 -7.37293e+08 -5.31265e+08)
(3.94962e+09 6.50136e+07 -9.37831e+08)
(4.02006e+09 -7.46357e+08 -6.87224e+08)
(1.87499e+08 -9.60459e+08 -2.65103e+08)
(2.85561e+08 -1.03458e+09 -3.00635e+08)
(2.91533e+08 -1.53425e+09 -3.41988e+08)
(1.28218e+09 3.45951e+07 -5.8313e+08)
(1.29069e+09 -1.48948e+09 -1.67411e+08)
(2.23002e+09 -5.19486e+08 -7.87221e+08)
(2.16836e+09 -1.69499e+09 -3.25211e+08)
(3.02496e+09 -6.57452e+08 -1.08474e+09)
(3.1874e+09 -1.95963e+09 -5.00281e+08)
(4.3334e+09 -1.24614e+09 -1.16816e+09)
(-4.74453e+08 -1.78817e+09 1.17077e+08)
(1.02889e+09 -7.86845e+07 -3.91338e+09)
(-3.48829e+08 -1.89982e+09 -2.22664e+07)
(1.71258e+08 -1.93112e+09 -2.19684e+08)
(1.54007e+09 -1.2263e+09 -6.1267e+08)
(1.87461e+09 -2.3764e+09 -1.29564e+08)
(2.94053e+09 -2.47931e+09 -3.80265e+08)
(3.25838e+09 -2.83674e+09 -3.21541e+08)
(5.87017e+09 -1.56448e+09 -1.79695e+09)
(4.01552e+09 -2.42019e+09 -1.11972e+09)
(1.10673e+09 -1.97135e+08 -4.3901e+09)
(-1.11397e+08 -2.8163e+09 -3.90961e+07)
(1.55162e+09 -6.48989e+08 -3.61982e+09)
(6.1542e+08 -2.73681e+09 -9.14299e+07)
(1.82409e+09 -3.11782e+09 -3.35502e+08)
(2.85574e+09 -4.07782e+09 -6.16422e+08)
(4.04425e+09 -4.25511e+09 9.063e+06)
(3.41932e+09 -3.35713e+09 4.79368e+07)
(3.01523e+09 -3.52616e+09 -6.05154e+08)
(2.67407e+09 1.08628e+09 -6.32539e+08)
(4.28988e+08 -8.3641e+08 7.87591e+07)
(1.01583e+09 -2.74426e+08 -3.00601e+08)
(9.41949e+08 -9.24436e+08 1.21542e+08)
(1.49392e+09 7.93507e+08 -1.31244e+09)
(1.22246e+09 -9.54542e+08 -2.90925e+08)
(2.02153e+09 7.00247e+08 -1.25975e+09)
(2.06402e+09 -9.86506e+08 -2.60655e+08)
(2.88934e+09 7.02613e+08 -1.95006e+09)
(2.85847e+09 -9.57977e+08 -5.98807e+08)
(4.04531e+09 7.22458e+08 -2.27535e+09)
(4.00423e+08 -1.2501e+09 -2.04374e+08)
(2.10662e+08 -1.34564e+09 -1.14956e+08)
(1.07012e+09 -5.87198e+07 -6.25069e+08)
(6.80955e+08 -1.55841e+09 -2.39781e+08)
(1.86251e+09 1.39364e+08 -9.43895e+08)
(1.74155e+09 -1.78964e+09 -2.55315e+08)
(2.49907e+09 -1.10424e+09 -8.41714e+08)
(2.72987e+09 -1.76484e+09 -3.46e+08)
(3.6306e+09 -1.01901e+09 -1.37271e+09)
(4.16695e+09 -2.08343e+09 -4.31314e+08)
(3.43965e+07 -1.73742e+09 -4.7899e+08)
(5.14662e+07 -1.84551e+09 -3.05674e+08)
(-1.61088e+08 -1.99803e+09 -1.61528e+08)
(1.12321e+09 -1.88548e+09 -4.87177e+08)
(1.54062e+09 -2.59088e+09 -3.46805e+08)
(2.71685e+09 -1.54977e+09 -7.62604e+08)
(2.80539e+09 -2.32115e+09 -3.20367e+08)
(3.3349e+09 -2.22674e+09 -4.64202e+08)
(3.93816e+09 -3.50228e+09 -7.34052e+08)
(4.78539e+09 -3.39792e+09 -8.20795e+07)
(-4.45876e+08 -2.63108e+09 6.4449e+07)
(1.00118e+09 -7.41145e+08 -4.13573e+09)
(-3.4176e+08 -2.85983e+09 -3.25748e+08)
(-4.0844e+07 -3.78378e+09 -2.75313e+08)
(1.46011e+09 -3.46434e+09 -6.42372e+08)
(1.63771e+09 -3.46832e+09 -4.95869e+08)
(2.33633e+09 -3.25828e+09 -6.7864e+08)
(2.74835e+09 -2.99513e+09 -6.13015e+08)
(4.75469e+09 -4.61302e+09 -2.9324e+08)
(3.80596e+09 -2.73304e+09 -7.93804e+08)
(6.71942e+08 -7.01381e+08 -6.39117e+07)
(7.6803e+08 -4.67697e+08 3.11622e+07)
(1.55518e+09 -7.01358e+08 -7.20965e+07)
(1.67812e+09 -5.46363e+08 8.3335e+07)
(2.1281e+09 5.74846e+08 -1.76237e+09)
(1.71348e+09 -1.25706e+09 -3.34903e+08)
(2.59743e+09 5.79454e+08 -1.69179e+09)
(2.33564e+09 -1.23218e+09 -1.54224e+08)
(3.34623e+09 1.13709e+09 -3.01732e+09)
(2.98091e+09 -1.49548e+09 -3.38202e+08)
(1.76976e+08 -1.84627e+09 1.68977e+08)
(8.2411e+08 -1.37765e+09 -3.52415e+08)
(8.26792e+08 -1.42811e+09 -2.80465e+08)
(1.51927e+09 -1.02279e+09 -4.02445e+08)
(1.86414e+09 -1.37602e+09 8.17419e+06)
(2.02437e+09 -7.82029e+08 -5.26601e+08)
(2.40241e+09 -1.87564e+09 -1.10369e+08)
(2.97461e+09 -1.66612e+09 -6.01745e+08)
(3.43587e+09 -2.66524e+09 -8.596e+07)
(4.33129e+09 -7.45684e+08 -1.6774e+09)
(2.12856e+08 -2.89385e+09 -4.67189e+08)
(2.29498e+08 -2.31919e+09 -2.6354e+08)
(9.25139e+08 -1.98664e+09 -4.7249e+08)
(8.32921e+08 -2.3502e+09 -3.94052e+08)
(1.77785e+09 -1.62816e+09 -5.262e+08)
(2.02589e+09 -2.28363e+09 -2.18454e+08)
(2.72839e+09 -2.33288e+09 3.58678e+07)
(3.31016e+09 -2.73225e+09 -4.85433e+08)
(3.1119e+09 -3.25349e+09 -4.87175e+07)
(3.39923e+09 -2.66829e+09 -1.66816e+08)
(3.61324e+08 -3.05732e+09 -1.18815e+09)
(5.86195e+07 -2.96294e+09 -4.15576e+08)
(-1.00539e+08 -3.13184e+09 -2.29313e+08)
(8.9633e+08 -2.89613e+09 -5.4172e+08)
(8.049e+08 -3.34423e+09 -5.10535e+08)
(1.83943e+09 -3.37668e+09 -6.8292e+08)
(1.80895e+09 -4.2414e+09 -3.72822e+08)
(2.93245e+09 -3.72322e+09 6.32771e+08)
(2.94117e+09 -3.3967e+09 -1.58126e+09)
(2.6002e+09 -3.35283e+09 2.76955e+08)
(7.74313e+08 -5.09962e+08 1.14235e+08)
(8.58415e+08 -1.25245e+09 -4.37911e+08)
(1.78089e+09 1.33302e+09 1.61824e+08)
(1.44776e+09 -1.64339e+09 -1.9579e+08)
(2.14458e+09 6.88362e+08 1.57314e+08)
(2.23928e+09 -1.44498e+09 -2.12322e+08)
(3.03969e+09 -2.62576e+08 2.26364e+07)
(3.60699e+09 -7.61394e+08 -9.87053e+08)
(4.01796e+09 -1.54795e+09 3.64189e+07)
(4.91974e+09 5.45111e+08 -3.13339e+09)
(5.23691e+08 -1.57691e+09 -2.52732e+08)
(6.55083e+08 -1.55968e+09 -3.85453e+07)
(1.21773e+09 -1.89359e+09 -6.10284e+08)
(1.89905e+09 3.62639e+08 -5.30468e+07)
(1.66972e+09 -2.10307e+09 -5.87153e+07)
(2.36166e+09 -1.1058e+09 -3.50134e+07)
(2.18612e+09 -2.78764e+09 7.55573e+07)
(3.33207e+09 -2.02581e+09 -1.57543e+07)
(3.52138e+09 -2.8271e+09 -2.19086e+08)
(4.20896e+09 -3.12885e+09 1.82928e+08)
(1.02979e+08 -2.81129e+09 -3.02946e+07)
(5.16291e+08 -2.71049e+09 -2.96622e+08)
(6.86721e+08 -2.68899e+09 -1.58684e+08)
(1.43105e+09 -2.29186e+09 -5.78395e+08)
(1.816e+09 -1.06842e+09 -2.59377e+08)
(2.31797e+09 -2.53092e+09 -3.78673e+08)
(2.90467e+09 -2.54215e+09 5.97191e+06)
(3.5029e+09 -3.99965e+09 3.53762e+08)
(4.149e+09 -2.93806e+09 -5.59616e+06)
(4.05385e+09 -3.67435e+09 5.45947e+07)
(1.17658e+08 -3.41288e+09 -2.00544e+08)
(5.02019e+07 -3.266e+09 -1.34239e+08)
(5.78537e+08 -3.57323e+09 -3.43414e+08)
(5.01749e+08 -3.17131e+09 -2.53259e+08)
(1.18649e+09 -2.70318e+09 -6.44885e+08)
(1.12104e+09 -3.87206e+09 -3.23433e+08)
(1.91013e+09 -4.42309e+09 -4.65938e+08)
(2.18688e+09 -4.67838e+09 -4.14029e+07)
(2.62891e+09 -4.15997e+09 2.50071e+08)
(3.35263e+09 -3.68465e+09 -5.54921e+07)
)
;

boundaryField
{
    inlet
    {
        type            calculated;
        value           uniform (-6 0 0);
    }
    outlet
    {
        type            calculated;
        value           nonuniform 0();
    }
    bottom
    {
        type            calculated;
        value           uniform (0 0 0);
    }
    top
    {
        type            symmetryPlane;
    }
    side1
    {
        type            symmetryPlane;
    }
    side2
    {
        type            symmetryPlane;
    }
    procBoundary0to1
    {
        type            processor;
        value           nonuniform List<vector> 
20
(
(6.34519e+09 -2.70812e+08 -3.14086e+08)
(5.09842e+09 -1.79822e+08 -5.61425e+08)
(3.77401e+09 -1.26108e+09 -8.54901e+08)
(2.09707e+09 6.09977e+08 -1.42261e+08)
(5.28215e+09 9.95466e+08 -3.10847e+09)
(4.25762e+09 -1.64304e+09 -7.4737e+08)
(4.00778e+09 -1.40089e+09 -1.14842e+09)
(3.30513e+09 -3.38411e+09 -1.07863e+09)
(3.85298e+09 -1.29069e+09 -3.78123e+08)
(5.32549e+09 -2.09642e+09 -3.07445e+08)
(4.25485e+09 -2.71069e+09 -3.70764e+08)
(3.80609e+09 -2.59491e+09 -1.33179e+08)
(4.60337e+09 8.61395e+08 -3.601e+09)
(4.49266e+09 -2.78784e+09 1.86125e+08)
(3.60017e+09 -3.41366e+09 4.235e+08)
(2.96553e+09 -3.08558e+09 -1.03843e+08)
(4.53277e+09 -1.40531e+09 -1.13291e+08)
(4.73156e+09 -2.92582e+09 -7.12503e+08)
(4.509e+09 -3.80222e+09 1.19573e+08)
(3.53564e+09 -4.83025e+09 1.61664e+08)
)
;
    }
    procBoundary0to8
    {
        type            processor;
        value           nonuniform List<vector> 
50
(
(7.41456e+08 -2.63065e+09 -1.71438e+09)
(6.52451e+08 -2.4748e+09 -1.80724e+08)
(1.51819e+09 -2.51257e+09 -4.31241e+08)
(2.12196e+09 -4.33565e+09 -2.25195e+08)
(1.67913e+09 -3.69027e+09 -3.27244e+08)
(2.05354e+09 -3.29141e+09 -3.94733e+08)
(1.26671e+09 -2.99521e+09 -2.25766e+08)
(7.8772e+08 -2.2241e+07 -8.23633e+07)
(1.03585e+09 -1.25073e+09 -1.11622e+09)
(3.10575e+08 1.54317e+09 -8.49141e+07)
(3.94308e+08 -2.81731e+09 -1.32724e+08)
(1.25765e+09 -1.66993e+09 -1.38581e+09)
(1.10799e+09 -2.43792e+09 -1.65584e+08)
(1.71327e+09 -3.21783e+09 -4.37458e+08)
(2.31319e+09 -4.88522e+09 -6.00352e+08)
(2.15455e+09 -5.28184e+09 -7.34153e+08)
(2.07617e+09 -3.82561e+09 -7.9185e+08)
(1.74606e+09 -3.38285e+09 -5.08247e+08)
(1.83605e+09 -2.13365e+09 -1.42833e+08)
(2.14587e+09 -3.21456e+09 -7.33092e+08)
(7.57316e+08 -2.18879e+09 -3.0753e+09)
(1.88456e+07 -2.99701e+09 -6.82057e+07)
(8.20671e+08 -2.33688e+09 -1.69582e+09)
(5.94969e+08 -4.4882e+09 -3.1138e+08)
(1.14654e+09 -5.32492e+09 -7.01861e+08)
(1.66337e+09 -3.48095e+09 -1.00045e+09)
(1.58239e+09 -4.37986e+09 -6.19277e+08)
(1.76916e+09 -3.93306e+09 -7.01167e+08)
(2.43258e+09 -4.68417e+09 -7.3201e+08)
(1.88007e+09 -3.53413e+09 -3.0645e+08)
(-1.48242e+08 -4.49979e+09 1.38e+08)
(-6.98829e+07 -3.04958e+09 -1.29797e+09)
(1.20786e+08 -4.24677e+09 -2.48447e+08)
(1.16715e+08 -3.84724e+09 -5.15154e+08)
(7.63188e+08 -3.44446e+09 -5.95163e+08)
(8.96278e+08 -5.425e+09 -7.21641e+08)
(1.4087e+09 -4.43953e+09 -7.69886e+08)
(1.2066e+09 -5.16404e+09 -2.15218e+08)
(1.78395e+09 -4.26876e+09 2.15337e+08)
(1.53634e+09 -3.75155e+09 -4.69227e+08)
(3.56273e+07 -3.45506e+09 -4.7128e+08)
(1.02791e+08 -3.82798e+09 -2.29008e+08)
(7.22393e+07 -4.06178e+09 -2.15179e+08)
(4.06181e+08 -3.5846e+09 -3.36501e+08)
(1.08e+08 -3.54581e+09 -2.78746e+08)
(8.79017e+08 -4.31716e+09 -5.47435e+08)
(1.0458e+09 -4.46164e+09 -3.05261e+08)
(1.2537e+09 -5.10512e+09 -3.19623e+08)
(1.5621e+09 -4.35957e+09 7.05692e+06)
(1.69637e+09 -4.94858e+09 8.72865e+07)
)
;
    }
}


// ************************************************************************* //
