/*--------------------------------*- C++ -*----------------------------------*\
| =========                 |                                                 |
| \\      /  F ield         | OpenFOAM: The Open Source CFD Toolbox           |
|  \\    /   O peration     | Version:  2.4.0                                 |
|   \\  /    A nd           | Web:      www.OpenFOAM.org                      |
|    \\/     M anipulation  |                                                 |
\*---------------------------------------------------------------------------*/
FoamFile
{
    version     2.0;
    format      ascii;
    class       volScalarField;
    location    "0.11";
    object      p;
}
// * * * * * * * * * * * * * * * * * * * * * * * * * * * * * * * * * * * * * //

dimensions      [1 -1 -2 0 0 0 0];

internalField   nonuniform List<scalar> 
200
(
4.3853e+16
4.38512e+16
4.38475e+16
4.38448e+16
4.38347e+16
4.38367e+16
4.38216e+16
4.38257e+16
4.3814e+16
4.381e+16
4.38565e+16
4.38548e+16
4.38506e+16
4.38448e+16
4.38403e+16
4.3829e+16
4.38312e+16
4.382e+16
4.38251e+16
4.38176e+16
4.38602e+16
4.38568e+16
4.38507e+16
4.38428e+16
4.38314e+16
4.38178e+16
4.38182e+16
4.38261e+16
4.38293e+16
4.38332e+16
4.38596e+16
4.38556e+16
4.38482e+16
4.38369e+16
4.38181e+16
4.38188e+16
4.38259e+16
4.38375e+16
4.3841e+16
4.38462e+16
4.38279e+16
4.38259e+16
4.38232e+16
4.38182e+16
4.38142e+16
4.38074e+16
4.38045e+16
4.38003e+16
4.37983e+16
4.37988e+16
4.38316e+16
4.38279e+16
4.38222e+16
4.38164e+16
4.38069e+16
4.3794e+16
4.37999e+16
4.38039e+16
4.3815e+16
4.38115e+16
4.38379e+16
4.38312e+16
4.38221e+16
4.38073e+16
4.37778e+16
4.37817e+16
4.37827e+16
4.38174e+16
4.38262e+16
4.38344e+16
4.38435e+16
4.38357e+16
4.38252e+16
4.38092e+16
4.37978e+16
4.37712e+16
4.38166e+16
4.38342e+16
4.38457e+16
4.38419e+16
4.38269e+16
4.3824e+16
4.38205e+16
4.38174e+16
4.38127e+16
4.38083e+16
4.38067e+16
4.38041e+16
4.38161e+16
4.38154e+16
4.38344e+16
4.38287e+16
4.38225e+16
4.38136e+16
4.37986e+16
4.3799e+16
4.37894e+16
4.38057e+16
4.37992e+16
4.38329e+16
4.38527e+16
4.38419e+16
4.38283e+16
4.38019e+16
4.37985e+16
4.37549e+16
4.38006e+16
4.37872e+16
4.38238e+16
4.38161e+16
4.38779e+16
4.386e+16
4.38419e+16
4.38122e+16
4.37776e+16
4.38067e+16
4.38031e+16
4.38362e+16
4.38272e+16
4.38409e+16
4.38348e+16
4.38315e+16
4.38288e+16
4.38244e+16
4.38215e+16
4.38191e+16
4.38142e+16
4.38207e+16
4.38132e+16
4.38258e+16
4.38505e+16
4.38449e+16
4.38375e+16
4.38297e+16
4.38217e+16
4.3799e+16
4.38244e+16
4.37994e+16
4.38291e+16
4.38092e+16
4.38838e+16
4.38693e+16
4.3855e+16
4.38388e+16
4.37984e+16
4.38236e+16
4.37867e+16
4.38348e+16
4.38086e+16
4.38285e+16
4.39116e+16
4.38969e+16
4.38767e+16
4.38567e+16
4.38381e+16
4.38265e+16
4.3848e+16
4.38294e+16
4.38408e+16
4.38346e+16
4.38391e+16
4.3837e+16
4.38344e+16
4.38314e+16
4.38283e+16
4.3825e+16
4.38237e+16
4.38147e+16
4.38153e+16
4.38012e+16
4.38553e+16
4.3852e+16
4.38483e+16
4.38427e+16
4.38365e+16
4.38328e+16
4.382e+16
4.3825e+16
4.38097e+16
4.38111e+16
4.38808e+16
4.38753e+16
4.38679e+16
4.38589e+16
4.38518e+16
4.38361e+16
4.3841e+16
4.38226e+16
4.383e+16
4.38105e+16
4.38981e+16
4.38901e+16
4.38802e+16
4.38678e+16
4.38597e+16
4.3846e+16
4.38328e+16
4.38326e+16
4.38247e+16
4.38215e+16
)
;

boundaryField
{
    inlet
    {
        type            zeroGradient;
    }
    outlet
    {
        type            fixedValue;
        value           nonuniform 0();
    }
    bottom
    {
        type            zeroGradient;
    }
    top
    {
        type            symmetryPlane;
    }
    side1
    {
        type            symmetryPlane;
    }
    side2
    {
        type            symmetryPlane;
    }
    procBoundary24to16
    {
        type            processor;
        value           nonuniform List<scalar> 
50
(
4.38464e+16
4.38454e+16
4.38454e+16
4.38368e+16
4.3839e+16
4.38234e+16
4.38235e+16
4.38096e+16
4.38056e+16
4.3803e+16
4.38252e+16
4.38225e+16
4.38197e+16
4.38164e+16
4.38102e+16
4.38076e+16
4.37978e+16
4.37972e+16
4.37822e+16
4.37801e+16
4.38227e+16
4.38212e+16
4.38196e+16
4.38164e+16
4.38161e+16
4.38092e+16
4.38103e+16
4.38017e+16
4.37984e+16
4.37919e+16
4.38277e+16
4.38265e+16
4.3825e+16
4.3824e+16
4.382e+16
4.38201e+16
4.38154e+16
4.38094e+16
4.38094e+16
4.37929e+16
4.38315e+16
4.38311e+16
4.38295e+16
4.38275e+16
4.38249e+16
4.38208e+16
4.38177e+16
4.38129e+16
4.37997e+16
4.37986e+16
)
;
    }
    procBoundary24to25
    {
        type            processor;
        value           nonuniform List<scalar> 
20
(
4.38026e+16
4.38235e+16
4.38349e+16
4.38455e+16
4.37905e+16
4.38224e+16
4.38279e+16
4.38464e+16
4.38244e+16
4.3821e+16
4.38353e+16
4.38322e+16
4.38062e+16
4.38257e+16
4.38134e+16
4.3849e+16
4.38026e+16
4.37961e+16
4.38041e+16
4.37979e+16
)
;
    }
}


// ************************************************************************* //
