/*--------------------------------*- C++ -*----------------------------------*\
| =========                 |                                                 |
| \\      /  F ield         | OpenFOAM: The Open Source CFD Toolbox           |
|  \\    /   O peration     | Version:  2.4.0                                 |
|   \\  /    A nd           | Web:      www.OpenFOAM.org                      |
|    \\/     M anipulation  |                                                 |
\*---------------------------------------------------------------------------*/
FoamFile
{
    version     2.0;
    format      ascii;
    class       volSymmTensorField;
    location    "0.01";
    object      B;
}
// * * * * * * * * * * * * * * * * * * * * * * * * * * * * * * * * * * * * * //

dimensions      [0 2 -2 0 0 0 0];

internalField   nonuniform List<symmTensor> 
60
(
(8.45212e+16 2.25929e+12 2.15741e+12 8.45163e+16 1.67967e+10 8.45175e+16)
(1.03023e+17 3.32844e+12 1.85576e+12 1.03015e+17 -8.49145e+11 1.03018e+17)
(8.13174e+16 3.08989e+12 -2.24896e+11 8.13117e+16 -2.82746e+11 8.13137e+16)
(6.86953e+16 2.95202e+12 -4.46907e+11 6.86873e+16 2.48016e+11 6.86893e+16)
(3.2074e+16 1.5846e+12 7.67458e+09 3.20702e+16 4.92109e+11 3.20715e+16)
(4.00311e+16 2.8874e+12 -3.76038e+11 4.00313e+16 -1.25177e+11 4.00312e+16)
(2.89469e+16 6.96206e+12 1.16036e+12 2.89522e+16 -2.11291e+12 2.89506e+16)
(2.98659e+16 3.51243e+12 4.57161e+11 2.98677e+16 -5.80724e+11 2.98676e+16)
(2.89648e+16 2.7892e+12 3.20745e+11 2.89659e+16 -2.08336e+11 2.89659e+16)
(2.58461e+16 4.90231e+12 3.70677e+11 2.58466e+16 6.13975e+10 2.58455e+16)
(1.30163e+16 4.67616e+12 -4.61251e+11 1.30109e+16 -3.56686e+11 1.30127e+16)
(5.876e+15 1.24271e+12 4.98732e+11 5.87507e+15 -6.36775e+11 5.87362e+15)
(1.27585e+16 4.84606e+12 1.84066e+11 1.27568e+16 -2.36947e+12 1.27551e+16)
(2.15156e+16 2.09401e+12 -3.93976e+11 2.15148e+16 -6.01856e+11 2.15146e+16)
(1.27615e+16 1.11906e+13 -1.20383e+12 1.2761e+16 -3.36374e+12 1.27571e+16)
(5.15794e+16 5.17455e+12 -1.35535e+12 5.15663e+16 -5.61427e+11 5.15704e+16)
(9.77717e+15 8.23985e+11 -5.99715e+11 9.77061e+15 -5.39836e+11 9.77189e+15)
(3.18031e+15 -1.87907e+09 -3.66404e+11 3.17005e+15 -3.50446e+12 3.17398e+15)
(2.74349e+15 3.04655e+12 -6.96192e+10 2.73667e+15 -4.45118e+11 2.7405e+15)
(3.64209e+15 8.56068e+12 -1.98565e+12 3.63126e+15 2.43468e+12 3.63463e+15)
(2.12721e+16 -2.41686e+11 9.14611e+11 2.12717e+16 -7.25003e+10 2.12722e+16)
(3.47075e+16 -3.73967e+11 1.83463e+12 3.47022e+16 -2.88329e+11 3.47046e+16)
(4.32054e+16 5.02526e+11 1.36185e+12 4.31956e+16 1.88165e+11 4.31988e+16)
(2.43893e+16 3.43509e+11 2.40225e+12 2.43794e+16 8.20951e+11 2.4382e+16)
(7.94091e+15 -7.80131e+11 5.6615e+12 7.93052e+15 1.57723e+12 7.9313e+15)
(3.89741e+15 -3.04114e+11 -5.028e+11 3.89403e+15 -6.29076e+11 3.89644e+15)
(1.44983e+15 1.20005e+11 2.70482e+11 1.44998e+15 -6.83088e+11 1.45047e+15)
(4.25469e+15 9.22956e+11 2.34066e+11 4.25438e+15 -2.3834e+11 4.25487e+15)
(1.16873e+16 3.08425e+12 1.19602e+11 1.16853e+16 -8.8074e+10 1.16858e+16)
(1.70918e+16 2.32444e+12 -2.16844e+11 1.70881e+16 1.51867e+11 1.70874e+16)
(1.00374e+16 1.27686e+12 -5.87275e+11 1.00317e+16 -7.09611e+11 1.00349e+16)
(1.64356e+16 2.52017e+12 3.06124e+11 1.64289e+16 -3.30748e+12 1.64293e+16)
(2.19999e+16 3.83879e+12 -6.94688e+10 2.19938e+16 -1.51126e+12 2.1996e+16)
(4.43908e+16 9.30897e+12 -1.00935e+12 4.43846e+16 -1.34527e+12 4.43861e+16)
(2.8223e+16 1.28262e+13 -1.88001e+12 2.82175e+16 -9.58004e+11 2.82178e+16)
(1.50145e+16 2.21432e+12 -2.4078e+12 1.50043e+16 -2.31636e+12 1.50072e+16)
(2.17694e+16 -7.47539e+10 -3.95502e+10 2.17685e+16 -2.91873e+11 2.17686e+16)
(1.46126e+16 6.79708e+11 -2.5696e+11 1.46006e+16 -1.44265e+12 1.46063e+16)
(3.01593e+16 8.41016e+12 -1.24365e+12 3.01509e+16 -1.988e+11 3.01541e+16)
(1.08171e+16 1.71112e+13 -4.47264e+12 1.08033e+16 2.99304e+11 1.08081e+16)
(8.694e+16 -1.08297e+12 1.28952e+12 8.69259e+16 -1.11026e+12 8.69274e+16)
(7.70414e+16 -7.80353e+10 3.69354e+10 7.70288e+16 -3.20695e+11 7.70311e+16)
(2.78725e+16 1.56587e+12 -7.38571e+11 2.78516e+16 1.02999e+12 2.78569e+16)
(7.1891e+15 -8.73426e+11 2.8e+12 7.14339e+15 4.72953e+12 7.1512e+15)
(1.586e+15 -5.43692e+12 7.36671e+12 1.56224e+15 -4.00862e+11 1.56558e+15)
(1.66768e+16 -3.9308e+11 3.86969e+11 1.66707e+16 -1.0866e+12 1.66722e+16)
(1.72115e+16 -4.55913e+11 1.00816e+12 1.7204e+16 -1.0565e+12 1.72058e+16)
(3.08157e+16 3.54133e+12 1.11105e+12 3.08042e+16 -3.07419e+11 3.08068e+16)
(1.81305e+16 4.54437e+12 3.8043e+11 1.81217e+16 1.56868e+11 1.81219e+16)
(1.40241e+15 2.37225e+12 1.15108e+12 1.39665e+15 2.04057e+11 1.39678e+15)
(1.27818e+16 -7.40834e+11 3.37662e+11 1.27662e+16 -5.44741e+11 1.27745e+16)
(9.72084e+15 -4.04912e+11 5.22003e+11 9.71254e+15 -1.52253e+12 9.71619e+15)
(1.42563e+16 1.07626e+13 4.60176e+11 1.42434e+16 -1.63169e+12 1.42498e+16)
(1.93681e+16 2.82514e+13 -1.03939e+12 1.93513e+16 -8.31382e+11 1.93591e+16)
(3.30625e+15 4.88094e+12 -4.78781e+11 3.30308e+15 6.8269e+11 3.30532e+15)
(3.50906e+16 -8.72908e+11 -5.53261e+11 3.50807e+16 -4.37913e+11 3.50859e+16)
(3.25154e+16 3.34028e+11 9.26111e+10 3.25077e+16 -7.02044e+11 3.25111e+16)
(3.11216e+16 3.5056e+12 2.42565e+10 3.11152e+16 4.08968e+10 3.11177e+16)
(3.51507e+16 9.19441e+12 -7.31329e+11 3.51424e+16 4.27938e+11 3.51447e+16)
(7.32049e+15 3.42033e+12 -7.20752e+11 7.31484e+15 1.1703e+11 7.31695e+15)
)
;

boundaryField
{
    inlet
    {
        type            calculated;
        value           nonuniform 0();
    }
    outlet
    {
        type            calculated;
        value           nonuniform 0();
    }
    bottom
    {
        type            calculated;
        value           nonuniform 0();
    }
    top
    {
        type            symmetryPlane;
    }
    side1
    {
        type            symmetryPlane;
    }
    side2
    {
        type            symmetryPlane;
    }
    procBoundary77to13
    {
        type            processor;
        value           nonuniform List<symmTensor> 
20
(
(3.92714e+12 2.77226e+12 -3.17429e+12 -3.71051e+12 -9.80299e+11 1.77519e+10)
(8.73116e+11 5.89385e+11 -2.85365e+11 -7.55769e+11 -1.25321e+11 2.18178e+11)
(1.79982e+12 5.60073e+11 -4.37582e+11 -1.16411e+12 -3.52762e+10 2.34499e+11)
(2.48906e+12 6.20967e+11 -1.77229e+12 -1.75606e+12 1.19686e+11 3.62701e+11)
(8.18287e+11 2.96197e+11 -1.09663e+12 -1.22456e+12 2.27612e+11 3.60991e+11)
(-9.70988e+11 3.88942e+12 1.45231e+12 5.54454e+11 -1.07972e+12 -1.41315e+11)
(-1.04107e+13 1.0538e+13 7.58735e+12 6.89552e+11 -2.36547e+12 -1.52729e+11)
(-2.39163e+12 2.11928e+12 8.94692e+11 -5.89267e+10 -9.34785e+10 2.51882e+11)
(-1.76456e+12 1.04349e+12 4.8636e+11 1.12994e+11 3.51476e+11 4.49481e+11)
(-5.80163e+11 5.46296e+11 1.06713e+12 -2.7429e+11 1.7704e+11 4.741e+11)
(2.83334e+12 3.14029e+12 1.07364e+12 -1.31455e+12 3.41476e+11 2.82956e+11)
(7.85675e+11 2.5205e+12 1.54987e+12 4.75067e+11 -4.77416e+11 5.53437e+11)
(3.16111e+12 6.97671e+12 1.51914e+12 3.71301e+11 -1.52781e+12 1.20425e+12)
(6.89513e+12 1.45076e+13 3.22429e+12 -3.33401e+11 2.2834e+12 1.14795e+12)
(-1.31074e+12 1.87869e+12 1.92696e+12 2.36487e+11 4.43487e+11 -1.27855e+10)
(6.65862e+11 1.30883e+12 -5.96386e+11 -1.78851e+12 9.73495e+10 1.81095e+11)
(1.98047e+12 1.57231e+12 -5.05987e+11 -3.45324e+12 3.37198e+11 3.23241e+11)
(1.50096e+12 2.77081e+12 -6.16095e+11 -2.11359e+12 -3.6651e+11 3.45924e+11)
(7.99165e+11 6.8818e+11 -1.44797e+11 -9.63841e+11 6.49135e+10 1.68126e+11)
(3.33503e+12 1.67251e+12 -4.59454e+10 -2.5822e+12 1.52575e+12 5.8513e+11)
)
;
    }
    procBoundary77to76
    {
        type            processor;
        value           nonuniform List<symmTensor> 
12
(
(5.33844e+11 3.22697e+12 9.79505e+11 -6.98481e+11 2.55116e+11 -8.70403e+11)
(1.50083e+12 4.26869e+12 -7.14714e+11 -1.91878e+12 8.5207e+10 1.11304e+11)
(2.7143e+12 3.2689e+12 -8.3046e+11 -4.46847e+12 -3.8438e+09 1.29743e+11)
(1.53012e+13 9.0867e+12 -3.26547e+12 -1.18777e+13 1.16776e+11 -9.3426e+11)
(-9.51076e+11 -5.81854e+10 7.34478e+11 -1.46798e+11 -3.85898e+10 1.82658e+11)
(4.01292e+12 1.11978e+12 -3.2482e+12 -3.66588e+12 -4.94734e+11 1.64678e+11)
(4.66226e+12 2.46675e+12 -2.41953e+12 -5.62877e+12 -6.14435e+11 -7.44699e+10)
(2.75385e+12 2.53128e+11 -1.22668e+12 -1.91472e+12 1.10848e+10 -3.57431e+11)
(4.87598e+12 -3.02896e+11 2.35187e+11 -1.99497e+12 -4.91861e+11 -1.34043e+12)
(7.12227e+12 2.23621e+12 -1.47317e+12 -4.29068e+12 -1.03708e+12 -1.15137e+12)
(3.6505e+12 1.32957e+12 -1.89661e+11 -3.51179e+12 -5.26736e+11 -2.91248e+11)
(9.01759e+12 -1.83197e+12 -2.16461e+12 -3.92458e+12 -1.22785e+12 -2.68955e+11)
)
;
    }
    procBoundary77to78
    {
        type            processor;
        value           nonuniform List<symmTensor> 
12
(
(3.57445e+12 1.54261e+12 -2.17366e+11 -9.58358e+11 2.83789e+11 -3.97721e+11)
(3.36956e+12 2.90813e+12 -1.5438e+12 -5.17032e+11 3.51973e+11 -1.53241e+12)
(-5.60067e+12 1.29974e+13 1.99232e+12 3.22318e+12 -4.02026e+11 -4.77399e+12)
(3.57816e+12 6.80968e+12 -1.99233e+12 2.87929e+12 2.88064e+12 -1.41577e+12)
(1.12103e+12 -1.35072e+12 2.09511e+12 -9.62787e+11 6.01167e+11 -1.83193e+12)
(8.27971e+12 3.75446e+12 -1.5553e+12 -2.14638e+12 6.43222e+11 -3.54962e+12)
(2.05125e+12 1.54962e+13 -2.30742e+12 -1.40601e+12 2.6734e+11 -2.43638e+12)
(2.17772e+12 3.97279e+12 -2.00629e+12 -4.09744e+10 -3.88245e+11 -8.67183e+11)
(2.73936e+12 -4.63648e+12 4.80202e+12 -3.10112e+12 -1.36534e+12 4.32247e+11)
(-8.8441e+11 -4.00454e+11 3.00251e+12 -1.94382e+12 -2.03174e+10 1.50272e+11)
(4.21993e+12 5.66657e+12 -3.43787e+11 -5.95158e+12 1.58346e+12 1.02088e+12)
(7.02234e+12 4.16342e+11 -1.26955e+12 -3.00161e+12 -5.48414e+11 1.66001e+11)
)
;
    }
    procBoundary77to93
    {
        type            processor;
        value           nonuniform List<symmTensor> 
15
(
(3.8326e+12 6.41937e+12 -1.15853e+12 -3.54277e+12 1.38029e+11 -9.73737e+11)
(5.86689e+12 2.43333e+12 -2.00543e+12 -4.73845e+12 4.69192e+11 -9.41018e+11)
(6.59677e+12 -1.05401e+12 -9.29316e+11 -5.09317e+12 -1.97519e+12 1.88839e+11)
(1.27883e+13 7.19928e+12 -5.39282e+12 -1.16888e+13 2.29991e+11 -7.08525e+11)
(4.19977e+12 4.5754e+12 -2.86004e+12 -3.21912e+12 9.66341e+11 -5.93413e+11)
(3.19151e+11 3.1137e+12 -3.1099e+11 1.19028e+12 -1.61912e+12 -1.58939e+12)
(8.49266e+10 -2.27154e+12 6.63564e+11 -5.55916e+11 -1.35717e+12 -3.85782e+11)
(2.27361e+12 -5.37579e+11 2.46221e+11 -1.76702e+12 -7.41259e+11 -5.69212e+11)
(6.58048e+12 8.84112e+12 -1.54801e+12 -3.81024e+12 4.67052e+11 -1.27585e+12)
(6.20348e+12 7.13377e+12 -1.89566e+12 -3.70885e+12 4.35867e+11 -1.26828e+12)
(1.32369e+12 -2.74999e+12 -5.5107e+10 -3.13587e+12 -1.57523e+12 3.06863e+11)
(2.4932e+12 9.8242e+11 5.3179e+11 -2.58988e+12 -1.13413e+12 -2.39056e+10)
(3.97054e+12 6.44773e+12 4.90565e+11 -3.40854e+12 2.96988e+11 -9.05283e+11)
(5.12281e+12 1.45842e+13 -1.50465e+11 -8.4325e+12 1.17949e+12 -1.11466e+12)
(1.47394e+12 9.50956e+12 -5.64906e+11 -6.09374e+12 1.05535e+12 -4.41763e+11)
)
;
    }
}


// ************************************************************************* //
