/*--------------------------------*- C++ -*----------------------------------*\
| =========                 |                                                 |
| \\      /  F ield         | OpenFOAM: The Open Source CFD Toolbox           |
|  \\    /   O peration     | Version:  2.4.0                                 |
|   \\  /    A nd           | Web:      www.OpenFOAM.org                      |
|    \\/     M anipulation  |                                                 |
\*---------------------------------------------------------------------------*/
FoamFile
{
    version     2.0;
    format      ascii;
    class       volVectorField;
    location    "0.09";
    object      A_Source;
}
// * * * * * * * * * * * * * * * * * * * * * * * * * * * * * * * * * * * * * //

dimensions      [1 -2 -2 0 0 0 0];

internalField   nonuniform List<vector> 
200
(
(-2.7685e-14 -2.1406e-14 1.05975e-14)
(-2.09946e-16 -1.62233e-16 8.03651e-17)
(-1.59641e-18 -1.23283e-18 6.1109e-19)
(-1.18993e-20 -9.18373e-21 4.55492e-21)
(-8.62226e-23 -6.65084e-23 3.30051e-23)
(-6.06453e-25 -4.67548e-25 2.32144e-25)
(-4.14584e-27 -3.19468e-27 1.58699e-27)
(-2.76085e-29 -2.12644e-29 1.05683e-29)
(-1.79531e-31 -1.38213e-31 6.87227e-32)
(-1.14258e-33 -8.79229e-34 4.37367e-34)
(-1.41197e-16 -1.0928e-16 5.40488e-17)
(-1.04435e-18 -8.08028e-19 3.99767e-19)
(-7.66724e-21 -5.92977e-21 2.93494e-21)
(-5.58285e-23 -4.31563e-23 2.13706e-23)
(-4.01737e-25 -3.1039e-25 1.53781e-25)
(-2.84706e-27 -2.19857e-27 1.08982e-27)
(-1.98246e-29 -1.53014e-29 7.58865e-30)
(-1.35477e-31 -1.04516e-31 5.18592e-32)
(-9.08395e-34 -7.00475e-34 3.47724e-34)
(-5.97831e-36 -4.60793e-36 2.28844e-36)
(-5.81169e-19 -4.50074e-19 2.22465e-19)
(-4.50642e-21 -3.48924e-21 1.72501e-21)
(-3.38645e-23 -2.6214e-23 1.2963e-23)
(-2.48948e-25 -1.92646e-25 9.52947e-26)
(-1.79907e-27 -1.39166e-27 6.88664e-28)
(-1.28077e-29 -9.90326e-30 4.90265e-30)
(-8.98727e-32 -6.94616e-32 3.44023e-32)
(-6.21543e-34 -4.8017e-34 2.3792e-34)
(-4.23529e-36 -3.2705e-36 1.62123e-36)
(-2.84297e-38 -2.19439e-38 1.08826e-38)
(-2.0483e-21 -1.58699e-21 7.84069e-22)
(-1.68501e-23 -1.30533e-23 6.45006e-24)
(-1.32517e-25 -1.02639e-25 5.07259e-26)
(-1.00711e-27 -7.79874e-28 3.85511e-28)
(-7.45368e-30 -5.7704e-30 2.85319e-30)
(-5.40055e-32 -4.17967e-32 2.06727e-32)
(-3.84385e-34 -2.97388e-34 1.47139e-34)
(-2.69323e-36 -2.08292e-36 1.03094e-36)
(-1.85992e-38 -1.43789e-38 7.11958e-39)
(-1.26682e-40 -9.78983e-41 4.84925e-41)
(-2.24553e-16 -1.73556e-16 8.59566e-17)
(-1.78935e-18 -1.38214e-18 6.84946e-19)
(-1.4277e-20 -1.10208e-20 5.46507e-21)
(-1.11432e-22 -8.59649e-23 4.26548e-23)
(-8.43643e-25 -6.50469e-25 3.22938e-25)
(-6.18722e-27 -4.76798e-27 2.3684e-27)
(-4.4021e-29 -3.39066e-29 1.68508e-29)
(-3.04583e-31 -2.34489e-31 1.16591e-31)
(-2.05471e-33 -1.58114e-33 7.86523e-34)
(-1.35469e-35 -1.04199e-35 5.18559e-36)
(-1.20946e-18 -9.35768e-19 4.6297e-19)
(-9.3588e-21 -7.2387e-21 3.58245e-21)
(-7.17915e-23 -5.55047e-23 2.7481e-23)
(-5.45484e-25 -4.21526e-25 2.08805e-25)
(-4.09025e-27 -3.15912e-27 1.56571e-27)
(-3.01615e-29 -2.32832e-29 1.15455e-29)
(-2.18211e-31 -1.68363e-31 8.3529e-32)
(-1.54717e-33 -1.19316e-33 5.92242e-34)
(-1.07489e-35 -8.28556e-36 4.11457e-36)
(-7.32038e-38 -5.64025e-38 2.80216e-38)
(-5.22867e-21 -4.0481e-21 2.00148e-21)
(-4.23284e-23 -3.27651e-23 1.62029e-23)
(-3.31573e-25 -2.56595e-25 1.26922e-25)
(-2.53732e-27 -1.96293e-27 9.71258e-28)
(-1.90628e-29 -1.47418e-29 7.29703e-30)
(-1.40911e-31 -1.08925e-31 5.39394e-32)
(-1.02546e-33 -7.9233e-34 3.92534e-34)
(-7.34625e-36 -5.67359e-36 2.81207e-36)
(-5.1795e-38 -3.99839e-38 1.98266e-38)
(-3.59343e-40 -2.77278e-40 1.37553e-40)
(-1.92885e-23 -1.49407e-23 7.38345e-24)
(-1.6539e-25 -1.28091e-25 6.33095e-26)
(-1.35355e-27 -1.04812e-27 5.18125e-28)
(-1.06895e-29 -8.27564e-30 4.09183e-30)
(-8.21039e-32 -6.3547e-32 3.14285e-32)
(-6.16631e-34 -4.77116e-34 2.3604e-34)
(-4.54427e-36 -3.51491e-36 1.7395e-36)
(-3.29322e-38 -2.5463e-38 1.26061e-38)
(-2.34992e-40 -1.81623e-40 8.99523e-41)
(-1.6522e-42 -1.27646e-42 6.32443e-43)
(-9.5968e-19 -7.41446e-19 3.67355e-19)
(-8.01748e-21 -6.19043e-21 3.06901e-21)
(-6.69836e-23 -5.16851e-23 2.56406e-23)
(-5.46397e-25 -4.21343e-25 2.09155e-25)
(-4.31479e-27 -3.32536e-27 1.65166e-27)
(-3.29441e-29 -2.53762e-29 1.26107e-29)
(-2.43599e-31 -1.87546e-31 9.32471e-32)
(-1.74894e-33 -1.34586e-33 6.69476e-34)
(-1.22252e-35 -9.40338e-36 4.67969e-36)
(-8.34092e-38 -6.4128e-38 3.19282e-38)
(-5.44446e-21 -4.21105e-21 2.08408e-21)
(-4.3992e-23 -3.40153e-23 1.68397e-23)
(-3.51983e-25 -2.72042e-25 1.34735e-25)
(-2.78618e-27 -2.15231e-27 1.06652e-27)
(-2.17369e-29 -1.67828e-29 8.32067e-30)
(-1.66548e-31 -1.28521e-31 6.37528e-32)
(-1.25031e-33 -9.64337e-34 4.78604e-34)
(-9.18674e-36 -7.08208e-36 3.51659e-36)
(-6.60581e-38 -5.09005e-38 2.52863e-38)
(-4.65072e-40 -3.58198e-40 1.78025e-40)
(-2.46679e-23 -1.90928e-23 9.44262e-24)
(-2.08139e-25 -1.61069e-25 7.96733e-26)
(-1.6969e-27 -1.31282e-27 6.49554e-28)
(-1.34975e-29 -1.04391e-29 5.16669e-30)
(-1.05281e-31 -8.13938e-32 4.03003e-32)
(-8.07048e-34 -6.23671e-34 3.08929e-34)
(-6.08383e-36 -4.69935e-36 2.32883e-36)
(-4.50982e-38 -3.48193e-38 1.72631e-38)
(-3.28665e-40 -2.53639e-40 1.25809e-40)
(-2.35451e-42 -1.81622e-42 9.0128e-43)
(-9.507e-26 -7.36219e-26 3.63918e-26)
(-8.48366e-28 -6.56882e-28 3.24745e-28)
(-7.2149e-30 -5.5855e-30 2.76179e-30)
(-5.91312e-32 -4.57675e-32 2.26348e-32)
(-4.70765e-34 -3.64276e-34 1.80204e-34)
(-3.66072e-36 -2.83178e-36 1.40128e-36)
(-2.79032e-38 -2.15773e-38 1.0681e-38)
(-2.08945e-40 -1.61514e-40 7.99819e-41)
(-1.53912e-42 -1.18927e-42 5.8916e-43)
(-1.11609e-44 -8.62043e-45 4.27226e-45)
(-2.86896e-21 -2.2157e-21 1.09821e-21)
(-2.50751e-23 -1.93531e-23 9.5985e-24)
(-2.18924e-25 -1.68853e-25 8.38018e-26)
(-1.86295e-27 -1.43596e-27 7.13116e-28)
(-1.53187e-29 -1.18009e-29 5.86385e-30)
(-1.21579e-31 -9.36085e-32 4.6539e-32)
(-9.32991e-34 -7.17991e-34 3.57139e-34)
(-6.94175e-36 -5.33954e-36 2.65723e-36)
(-5.0219e-38 -3.86103e-38 1.92233e-38)
(-3.54172e-40 -2.7218e-40 1.35573e-40)
(-1.71015e-23 -1.3223e-23 6.54629e-24)
(-1.44033e-25 -1.11333e-25 5.51344e-26)
(-1.19996e-27 -9.27127e-28 4.59332e-28)
(-9.87953e-30 -7.62933e-30 3.78178e-30)
(-8.00748e-32 -6.18032e-32 3.06518e-32)
(-6.36604e-34 -4.91078e-34 2.43685e-34)
(-4.95263e-36 -3.81848e-36 1.89581e-36)
(-3.76653e-38 -2.90256e-38 1.44179e-38)
(-2.8e-40 -2.15672e-40 1.07181e-40)
(-2.03575e-42 -1.56735e-42 7.79265e-43)
(-8.10389e-26 -6.2706e-26 3.10208e-26)
(-7.11512e-28 -5.50456e-28 2.72359e-28)
(-6.02803e-30 -4.66238e-30 2.30747e-30)
(-4.97682e-32 -3.84805e-32 1.90507e-32)
(-4.02485e-34 -3.11078e-34 1.54067e-34)
(-3.19553e-36 -2.46873e-36 1.22322e-36)
(-2.49238e-38 -1.92463e-38 9.54058e-39)
(-1.90963e-40 -1.47393e-40 7.30986e-41)
(-1.43703e-42 -1.10865e-42 5.50079e-43)
(-1.06198e-44 -8.18932e-45 4.06513e-45)
(-3.25703e-28 -2.5216e-28 1.24675e-28)
(-3.02018e-30 -2.33793e-30 1.15609e-30)
(-2.66533e-32 -2.0629e-32 1.02026e-32)
(-2.26397e-34 -1.75189e-34 8.66625e-35)
(-1.86598e-36 -1.44354e-36 7.14278e-37)
(-1.50061e-38 -1.16053e-38 5.74419e-39)
(-1.18178e-40 -9.13629e-41 4.52371e-41)
(-9.13465e-43 -7.05929e-43 3.49665e-43)
(-6.93949e-45 -5.36071e-45 2.65636e-45)
(-5.18531e-47 -4.00397e-47 1.98488e-47)
(-6.74538e-24 -5.20742e-24 2.57195e-24)
(-6.1562e-26 -4.74948e-26 2.34692e-26)
(-5.60679e-28 -4.32263e-28 2.1371e-28)
(-4.96916e-30 -3.82859e-30 1.89374e-30)
(-4.24847e-32 -3.2714e-32 1.61882e-32)
(-3.50021e-34 -2.69378e-34 1.33348e-34)
(-2.78419e-36 -2.14165e-36 1.06052e-36)
(-2.14431e-38 -1.64866e-38 8.16649e-39)
(-1.60379e-40 -1.23251e-40 6.10693e-41)
(-1.16805e-42 -8.97243e-43 4.44696e-43)
(-4.21553e-26 -3.25843e-26 1.60705e-26)
(-3.69486e-28 -2.85509e-28 1.40834e-28)
(-3.2004e-30 -2.47192e-30 1.21967e-30)
(-2.73679e-32 -2.11274e-32 1.04282e-32)
(-2.30143e-34 -1.77567e-34 8.76783e-35)
(-1.89613e-36 -1.46216e-36 7.22257e-37)
(-1.52697e-38 -1.17687e-38 5.81541e-39)
(-1.2007e-40 -9.24943e-41 4.57208e-41)
(-9.21891e-43 -7.09827e-43 3.50983e-43)
(-6.91548e-45 -5.3223e-45 2.63242e-45)
(-2.08544e-28 -1.61321e-28 7.9488e-29)
(-1.90251e-30 -1.47145e-30 7.25037e-31)
(-1.67273e-32 -1.29341e-32 6.37366e-33)
(-1.43163e-34 -1.10662e-34 5.45412e-35)
(-1.19899e-36 -9.26433e-37 4.56709e-37)
(-9.84853e-39 -7.60635e-39 3.75079e-39)
(-7.93935e-41 -6.12897e-41 3.02319e-41)
(-6.2813e-43 -4.84671e-43 2.39143e-43)
(-4.87634e-45 -3.76086e-45 1.85622e-45)
(-3.71431e-47 -2.86335e-47 1.41365e-47)
(-8.72668e-31 -6.75453e-31 3.32567e-31)
(-8.39752e-33 -6.49894e-33 3.19972e-33)
(-7.6807e-35 -5.94323e-35 2.92611e-35)
(-6.75389e-37 -5.22499e-37 2.57261e-37)
(-5.75663e-39 -4.45232e-39 2.19239e-39)
(-4.78288e-41 -3.69804e-41 1.82125e-41)
(-3.88797e-43 -3.00504e-43 1.48023e-43)
(-3.09935e-45 -2.39458e-45 1.1798e-45)
(-2.42626e-47 -1.87378e-47 9.23427e-48)
(-1.86666e-49 -1.44101e-49 7.10328e-50)
)
;

boundaryField
{
    inlet
    {
        type            zeroGradient;
    }
    outlet
    {
        type            zeroGradient;
    }
    bottom
    {
        type            zeroGradient;
    }
    top
    {
        type            symmetryPlane;
    }
    side1
    {
        type            symmetryPlane;
    }
    side2
    {
        type            symmetryPlane;
    }
    procBoundary9to1
    {
        type            processor;
        value           nonuniform List<vector> 
50
(
(-8.81206e-12 -6.7988e-12 3.37316e-12)
(-6.42319e-14 -4.95309e-14 2.45873e-14)
(-4.51784e-16 -3.48199e-16 1.72938e-16)
(-3.08001e-18 -2.37257e-18 1.17899e-18)
(-2.04269e-20 -1.57268e-20 7.8192e-21)
(-1.32192e-22 -1.01722e-22 5.06017e-23)
(-8.36892e-25 -6.4365e-25 3.20354e-25)
(-5.19446e-27 -3.99293e-27 1.98839e-27)
(-3.16685e-29 -2.43304e-29 1.21224e-29)
(-1.8994e-31 -1.45851e-31 7.27072e-32)
(-6.8762e-14 -5.30242e-14 2.63213e-14)
(-5.27465e-16 -4.06528e-16 2.01908e-16)
(-3.89458e-18 -3.00005e-18 1.4908e-18)
(-2.78089e-20 -2.14103e-20 1.0645e-20)
(-1.92771e-22 -1.48338e-22 7.37907e-23)
(-1.30146e-24 -1.00095e-24 4.98183e-25)
(-8.58076e-27 -6.59597e-27 3.28463e-27)
(-5.53776e-29 -4.25459e-29 2.1198e-29)
(-3.50522e-31 -2.6916e-31 1.34176e-31)
(-2.17974e-33 -1.6729e-33 8.34381e-34)
(-2.83101e-16 -2.18192e-16 1.08368e-16)
(-2.27998e-18 -1.7563e-18 8.72751e-19)
(-1.76343e-20 -1.35768e-20 6.75022e-21)
(-1.31627e-22 -1.01288e-22 5.03856e-23)
(-9.52023e-25 -7.32199e-25 3.64424e-25)
(-6.69462e-27 -5.14611e-27 2.56263e-27)
(-4.59007e-29 -3.52649e-29 1.75703e-29)
(-3.07596e-31 -2.36198e-31 1.17745e-31)
(-2.01893e-33 -1.54948e-33 7.72825e-34)
(-1.30021e-35 -9.97357e-36 4.97707e-36)
(-8.16398e-19 -6.28884e-19 3.12508e-19)
(-6.88755e-21 -5.30279e-21 2.63648e-21)
(-5.5689e-23 -4.28529e-23 2.13172e-23)
(-4.33726e-25 -3.33578e-25 1.66026e-25)
(-3.26754e-27 -2.51174e-27 1.25078e-27)
(-2.38952e-29 -1.83584e-29 9.14682e-30)
(-1.70126e-31 -1.30637e-31 6.51225e-32)
(-1.18224e-33 -9.07344e-34 4.5255e-34)
(-8.03647e-36 -6.16456e-36 3.07628e-36)
(-5.35378e-38 -4.10458e-38 2.04937e-38)
(-1.85379e-21 -1.42724e-21 7.06924e-22)
(-1.63508e-23 -1.2582e-23 6.2342e-24)
(-1.37956e-25 -1.06102e-25 5.2591e-26)
(-1.11926e-27 -8.60368e-28 4.26609e-28)
(-8.76977e-30 -6.7377e-30 3.34207e-30)
(-6.66018e-32 -5.11423e-32 2.53771e-32)
(-4.91768e-34 -3.77421e-34 1.87346e-34)
(-3.53961e-36 -2.71514e-36 1.34824e-36)
(-2.4892e-38 -1.90839e-38 9.47982e-39)
(-1.71362e-40 -1.31309e-40 6.52507e-41)
)
;
    }
    procBoundary9to8
    {
        type            processor;
        value           nonuniform List<vector> 
20
(
(-5.50621e-12 -4.25675e-12 2.10772e-12)
(-2.20734e-14 -1.70814e-14 8.44947e-15)
(-7.76327e-17 -6.01178e-17 2.9717e-17)
(-2.45754e-19 -1.9041e-19 9.40721e-20)
(-4.29653e-14 -3.32017e-14 1.64467e-14)
(-1.81262e-16 -1.40219e-16 6.9385e-17)
(-6.69222e-19 -5.18082e-19 2.56171e-19)
(-2.21887e-21 -1.71872e-21 8.49361e-22)
(-1.76891e-16 -1.36636e-16 6.77119e-17)
(-7.83496e-19 -6.05878e-19 2.99914e-19)
(-3.03015e-21 -2.3451e-21 1.15991e-21)
(-1.05025e-23 -8.13304e-24 4.02025e-24)
(-5.10106e-19 -3.93856e-19 1.95263e-19)
(-2.36682e-21 -1.82962e-21 9.05994e-22)
(-9.56912e-24 -7.40353e-24 3.66296e-24)
(-3.46068e-26 -2.67921e-26 1.32471e-26)
(-1.15828e-21 -8.93934e-22 4.41698e-22)
(-5.61867e-24 -4.34187e-24 2.14228e-24)
(-2.3705e-26 -1.83348e-26 9.0367e-27)
(-8.93053e-29 -6.91206e-29 3.40389e-29)
)
;
    }
    procBoundary9to10
    {
        type            processor;
        value           nonuniform List<vector> 
20
(
(-3.81749e-36 -2.93925e-36 1.46129e-36)
(-2.73165e-38 -2.10626e-38 1.04565e-38)
(-1.52656e-40 -1.17844e-40 5.8435e-41)
(-7.42276e-43 -5.73594e-43 2.84135e-43)
(-4.64535e-38 -3.57522e-38 1.77819e-38)
(-3.44212e-40 -2.65317e-40 1.31761e-40)
(-1.98685e-42 -1.53332e-42 7.60547e-43)
(-9.96621e-45 -7.69944e-45 3.81496e-45)
(-2.93374e-40 -2.257e-40 1.12301e-40)
(-2.24877e-42 -1.73274e-42 8.60805e-43)
(-1.33952e-44 -1.03344e-44 5.12753e-45)
(-6.92578e-47 -5.34917e-47 2.65111e-47)
(-1.27694e-42 -9.8199e-43 4.88801e-43)
(-1.01146e-44 -7.79093e-45 3.87177e-45)
(-6.21173e-47 -4.79094e-47 2.37778e-47)
(-3.3076e-49 -2.55399e-49 1.26611e-49)
(-4.31448e-45 -3.31656e-45 1.64238e-45)
(-3.52824e-47 -2.71674e-47 1.34285e-47)
(-2.23217e-49 -1.7211e-49 8.49426e-50)
(-1.22316e-51 -9.44228e-52 4.65379e-52)
)
;
    }
    procBoundary9to17
    {
        type            processor;
        value           nonuniform List<vector> 
50
(
(-3.12311e-24 -2.42114e-24 1.19549e-24)
(-2.95793e-26 -2.29253e-26 1.13227e-26)
(-2.71972e-28 -2.10747e-28 1.04108e-28)
(-2.36741e-30 -1.83411e-30 9.0622e-31)
(-1.95537e-32 -1.51459e-32 7.48496e-33)
(-1.54494e-34 -1.19641e-34 5.91385e-35)
(-1.17694e-36 -9.11219e-37 4.50521e-37)
(-8.70089e-39 -6.73469e-39 3.33061e-39)
(-6.27309e-41 -4.85415e-41 2.40127e-41)
(-4.4269e-43 -3.42453e-43 1.69457e-43)
(-3.02611e-26 -2.34544e-26 1.15836e-26)
(-2.99075e-28 -2.31746e-28 1.14483e-28)
(-2.86511e-30 -2.21965e-30 1.09673e-30)
(-2.59321e-32 -2.00861e-32 9.92652e-33)
(-2.22303e-34 -1.72154e-34 8.50952e-35)
(-1.8201e-36 -1.4092e-36 6.96715e-37)
(-1.43488e-38 -1.11068e-38 5.49257e-39)
(-1.09641e-40 -8.48467e-41 4.19696e-41)
(-8.16147e-43 -6.31401e-43 3.12412e-43)
(-5.94052e-45 -4.59441e-45 2.27397e-45)
(-1.53351e-28 -1.18832e-28 5.87012e-29)
(-1.57898e-30 -1.22325e-30 6.04416e-31)
(-1.57369e-32 -1.2189e-32 6.02393e-33)
(-1.47904e-34 -1.14537e-34 5.6616e-35)
(-1.31435e-36 -1.01763e-36 5.03119e-37)
(-1.1139e-38 -8.62251e-39 4.26391e-39)
(-9.07824e-41 -7.02559e-41 3.47505e-41)
(-7.16311e-43 -5.54202e-43 2.74196e-43)
(-5.50036e-45 -4.25435e-45 2.10548e-45)
(-4.12604e-47 -3.19038e-47 1.5794e-47)
(-5.39737e-31 -4.18152e-31 2.06606e-31)
(-5.7807e-33 -4.47739e-33 2.21279e-33)
(-5.98506e-35 -4.63472e-35 2.29102e-35)
(-5.83324e-37 -4.5163e-37 2.2329e-37)
(-5.36702e-39 -4.15451e-39 2.05444e-39)
(-4.7029e-41 -3.63964e-41 1.80022e-41)
(-3.9582e-43 -3.06257e-43 1.51516e-43)
(-3.22191e-45 -2.49222e-45 1.23331e-45)
(-2.54978e-47 -1.97174e-47 9.76029e-48)
(-1.96951e-49 -1.52254e-49 7.53907e-50)
(-1.48466e-33 -1.14997e-33 5.65728e-34)
(-1.65169e-35 -1.27903e-35 6.29268e-36)
(-1.77419e-37 -1.3736e-37 6.75823e-38)
(-1.79107e-39 -1.38641e-39 6.82136e-40)
(-1.70435e-41 -1.31902e-41 6.48999e-42)
(-1.54261e-43 -1.19359e-43 5.87314e-44)
(-1.33957e-45 -1.03624e-45 5.09928e-46)
(-1.12391e-47 -8.69176e-48 4.2776e-48)
(-9.15949e-50 -7.08145e-50 3.48554e-50)
(-7.27975e-52 -5.62641e-52 2.76977e-52)
)
;
    }
}


// ************************************************************************* //
