/*--------------------------------*- C++ -*----------------------------------*\
| =========                 |                                                 |
| \\      /  F ield         | OpenFOAM: The Open Source CFD Toolbox           |
|  \\    /   O peration     | Version:  2.4.0                                 |
|   \\  /    A nd           | Web:      www.OpenFOAM.org                      |
|    \\/     M anipulation  |                                                 |
\*---------------------------------------------------------------------------*/
FoamFile
{
    version     2.0;
    format      ascii;
    class       volVectorField;
    location    "0.09";
    object      Ur;
}
// * * * * * * * * * * * * * * * * * * * * * * * * * * * * * * * * * * * * * //

dimensions      [0 1 -1 0 0 0 0];

internalField   nonuniform List<vector> 
200
(
(-4.27588e+06 -734840 592723)
(-2.67499e+06 736309 -1.04723e+06)
(-2.93546e+06 239098 -83661.3)
(-2.4236e+06 776594 -1.05636e+06)
(-2.29726e+06 900275 -510367)
(-2.02686e+06 1.11455e+06 -825172)
(-1.80623e+06 1.13313e+06 -415798)
(-1.83481e+06 1.09146e+06 -801888)
(-1.91466e+06 1.08157e+06 -475417)
(-2.24903e+06 1.31559e+06 -1.10487e+06)
(-3.01081e+06 91690.7 -711280)
(-2.98153e+06 61680.1 20752.2)
(-2.65318e+06 570731 -780878)
(-2.42049e+06 868147 -369029)
(-2.25529e+06 1.0868e+06 -710617)
(-2.03041e+06 1.40026e+06 -334251)
(-2.0023e+06 1.47797e+06 -597848)
(-1.87311e+06 1.69818e+06 -279402)
(-1.9789e+06 1.77545e+06 -536062)
(-1.998e+06 1.94736e+06 -234525)
(-2.68047e+06 -258647 72596.4)
(-2.55473e+06 250023 -556661)
(-2.32089e+06 712937 -253966)
(-2.24571e+06 954632 -561182)
(-2.01527e+06 1.37853e+06 -279497)
(-2.02192e+06 1.53749e+06 -504597)
(-1.84592e+06 1.88359e+06 -240870)
(-1.907e+06 1.94386e+06 -425566)
(-1.77684e+06 2.24209e+06 -186944)
(-1.89174e+06 2.37131e+06 -348669)
(-2.26012e+06 -11055.2 -323181)
(-1.99897e+06 410768 -157098)
(-2.04512e+06 729802 -442955)
(-1.83612e+06 1.3857e+06 -268398)
(-1.88166e+06 1.6016e+06 -430132)
(-1.73522e+06 2.01125e+06 -252194)
(-1.86304e+06 1.97631e+06 -357643)
(-1.7173e+06 2.34138e+06 -207974)
(-1.80613e+06 2.42442e+06 -301635)
(-1.7372e+06 2.78388e+06 -153388)
(907670 3.15046e+06 -2.68115e+06)
(-3.67598e+06 -140054 -535656)
(-734193 2.13647e+06 -2.08711e+06)
(-1.94106e+06 1.03484e+06 -1.08058e+06)
(-1.2751e+06 1.6761e+06 -1.8528e+06)
(-1.57318e+06 1.40118e+06 -1.23638e+06)
(-1.58174e+06 1.58518e+06 -1.65714e+06)
(-1.6929e+06 1.70765e+06 -1.26164e+06)
(-1.90583e+06 1.93602e+06 -1.46449e+06)
(-2.1428e+06 1.83558e+06 -1.10037e+06)
(-4.28679e+06 -936604 81468.7)
(-1.66425e+06 1.85081e+06 -1.69384e+06)
(-2.36499e+06 837866 -762101)
(-1.79505e+06 1.63391e+06 -1.51845e+06)
(-1.76622e+06 1.62238e+06 -1.04267e+06)
(-1.69067e+06 1.90307e+06 -1.3154e+06)
(-1.64785e+06 2.02088e+06 -914671)
(-1.72236e+06 2.14621e+06 -1.16269e+06)
(-1.72824e+06 2.33931e+06 -833588)
(-1.93423e+06 2.4992e+06 -1.0625e+06)
(-2.26745e+06 976652 -1.33978e+06)
(-2.44417e+06 544048 -585190)
(-2.03778e+06 1.32315e+06 -1.30496e+06)
(-1.89519e+06 1.53382e+06 -847577)
(-1.77608e+06 1.77902e+06 -1.20263e+06)
(-1.62875e+06 2.0599e+06 -820247)
(-1.66529e+06 2.14712e+06 -1.04569e+06)
(-1.53265e+06 2.44177e+06 -742122)
(-1.69164e+06 2.92319e+06 -893825)
(-1.76704e+06 3.03488e+06 -655045)
(-2.16064e+06 216329 -404073)
(-1.97388e+06 851222 -1.06956e+06)
(-1.77301e+06 1.23877e+06 -713982)
(-1.71129e+06 1.52282e+06 -1.04416e+06)
(-1.50594e+06 1.91759e+06 -744107)
(-1.57764e+06 2.16411e+06 -950559)
(-1.4826e+06 2.50735e+06 -697265)
(-1.55863e+06 2.53124e+06 -797789)
(-1.49712e+06 3.75556e+06 -635417)
(-1.88189e+06 3.90257e+06 -552984)
(-1.79837e+06 -192989 297572)
(2.52916e+06 3.05268e+06 -2.36823e+06)
(-416009 1.56449e+06 -1.44688e+06)
(89007.4 2.45864e+06 -2.09271e+06)
(-824348 2.14396e+06 -1.48367e+06)
(-657610 2.48906e+06 -1.75586e+06)
(-1.05802e+06 2.56615e+06 -1.35253e+06)
(-1.31072e+06 2.56633e+06 -1.59704e+06)
(-1.62418e+06 2.63033e+06 -1.27136e+06)
(-1.95989e+06 2.63434e+06 -1.54059e+06)
(1.60152e+06 3.8743e+06 -2.56059e+06)
(-2.50473e+06 1.01921e+06 -832016)
(-127045 2.89028e+06 -2.15042e+06)
(-1.08398e+06 2.21374e+06 -1.4225e+06)
(-919795 2.93882e+06 -1.74686e+06)
(-1.03253e+06 2.59791e+06 -1.14695e+06)
(-1.15858e+06 2.66616e+06 -1.43013e+06)
(-1.25936e+06 2.76243e+06 -1.01811e+06)
(-1.44516e+06 2.87773e+06 -1.20701e+06)
(-1.55996e+06 2.95874e+06 -897384)
(-3.19054e+06 -105214 -736402)
(-930577 2.43124e+06 -2.12928e+06)
(-1.62345e+06 1.72973e+06 -1.25489e+06)
(-1.19898e+06 2.51299e+06 -1.69937e+06)
(-1.21395e+06 2.54569e+06 -1.14231e+06)
(-1.18855e+06 2.61125e+06 -1.38133e+06)
(-1.15535e+06 2.7563e+06 -965176)
(-1.29145e+06 2.79226e+06 -1.1766e+06)
(-1.25463e+06 3.01929e+06 -851937)
(-1.46952e+06 3.04641e+06 -1.05237e+06)
(-1.58396e+06 1.58798e+06 -1.80838e+06)
(-1.75608e+06 1.30633e+06 -1.00584e+06)
(-1.47169e+06 2.02741e+06 -1.45858e+06)
(-1.34454e+06 2.19308e+06 -986042)
(-1.29014e+06 2.34938e+06 -1.27193e+06)
(-1.13024e+06 2.58691e+06 -903419)
(-1.20616e+06 2.6288e+06 -1.10113e+06)
(-1.07311e+06 2.88203e+06 -788650)
(-1.20114e+06 2.96277e+06 -1.0424e+06)
(-1.19907e+06 3.473e+06 -735775)
(2.9825e+06 3.61771e+06 -1.21355e+06)
(1.25643e+06 2.46222e+06 -627483)
(1.61058e+06 3.32341e+06 -1.19454e+06)
(-131891 3.47343e+06 -574337)
(489313 3.02166e+06 -1.03986e+06)
(-342530 2.95662e+06 -613450)
(-702629 2.96768e+06 -933234)
(-1.02416e+06 2.89769e+06 -517321)
(-1.40157e+06 2.90844e+06 -862316)
(-1.68562e+06 3.00661e+06 -430975)
(46959.3 2.0694e+06 -232128)
(1.40551e+06 3.54771e+06 -1.34188e+06)
(268986 3.04645e+06 -771524)
(-289006 3.49922e+06 -1.21458e+06)
(-20202.5 3.13032e+06 -639833)
(-492216 3.09773e+06 -1.01738e+06)
(-694242 3.13937e+06 -574385)
(-989600 3.05677e+06 -912441)
(-1.13407e+06 3.17077e+06 -476459)
(-1.44413e+06 3.14225e+06 -825909)
(930726 3.87662e+06 -1.83332e+06)
(-539605 2.55301e+06 -914417)
(-177627 3.321e+06 -1.40904e+06)
(-415722 3.27502e+06 -821055)
(-528062 3.15981e+06 -1.12436e+06)
(-591746 3.14666e+06 -633068)
(-834686 3.05981e+06 -965593)
(-862610 3.21506e+06 -501935)
(-1.11568e+06 3.14364e+06 -848455)
(-1.15062e+06 3.3542e+06 -433886)
(-1.22513e+06 1.75165e+06 -1.12508e+06)
(-727447 2.95851e+06 -1.55688e+06)
(-841238 2.73306e+06 -876194)
(-812158 2.88049e+06 -1.17925e+06)
(-728475 2.9817e+06 -654115)
(-853451 2.88946e+06 -990239)
(-769987 3.09183e+06 -512949)
(-949592 3.00885e+06 -867939)
(-879522 3.24582e+06 -441246)
(-1.07752e+06 3.21849e+06 -797717)
(1.84888e+06 3.06084e+06 263700)
(1.52247e+06 3.24002e+06 -263275)
(1.05978e+06 3.00688e+06 299841)
(564874 2.9149e+06 -169567)
(123275 2.98509e+06 186443)
(-390458 2.96589e+06 -356519)
(-688845 3.08707e+06 166767)
(-1.085e+06 3.02459e+06 -358579)
(-1.30057e+06 3.08232e+06 190323)
(-1.64419e+06 3.09772e+06 -337905)
(307130 3.80909e+06 -681669)
(190271 3.77464e+06 -73547.8)
(367574 3.40587e+06 -406720)
(-26649.1 3.46383e+06 194454)
(-229350 3.23812e+06 -471556)
(-403455 3.39437e+06 61110.7)
(-690765 3.20299e+06 -492570)
(-807994 3.34454e+06 61295.9)
(-1.14021e+06 3.19883e+06 -485559)
(-1.27178e+06 3.415e+06 71604.3)
(197718 3.65044e+06 -284319)
(31371.7 3.55737e+06 -743771)
(47224.3 3.44772e+06 -99039.7)
(-247317 3.29649e+06 -582711)
(-303111 3.46031e+06 -4088.94)
(-564176 3.24334e+06 -577410)
(-573397 3.45945e+06 15628.7)
(-850831 3.24523e+06 -562756)
(-875254 3.51885e+06 37636.9)
(-1.16357e+06 3.35201e+06 -540552)
(-377427 3.47081e+06 -871180)
(-385381 3.55525e+06 -239886)
(-498800 3.17257e+06 -719533)
(-415418 3.34182e+06 -77336.8)
(-613251 3.09012e+06 -643665)
(-524497 3.35801e+06 -7166.52)
(-744672 3.10799e+06 -616232)
(-658652 3.44023e+06 38713.1)
(-896923 3.22835e+06 -584402)
(-837675 3.59348e+06 58043.6)
)
;

boundaryField
{
    inlet
    {
        type            calculated;
        value           nonuniform 0();
    }
    outlet
    {
        type            calculated;
        value           nonuniform 0();
    }
    bottom
    {
        type            calculated;
        value           uniform (0 0 0);
    }
    top
    {
        type            symmetryPlane;
    }
    side1
    {
        type            symmetryPlane;
    }
    side2
    {
        type            symmetryPlane;
    }
    procBoundary9to1
    {
        type            processor;
        value           nonuniform List<vector> 
50
(
(-1.23823e+06 1.47303e+06 -1.86782e+06)
(-3.6993e+06 -556874 31342.9)
(-1.68375e+06 761782 -1.24881e+06)
(-2.48159e+06 241043 -663567)
(-1.71565e+06 716471 -1.56219e+06)
(-2.08565e+06 1.04406e+06 -593377)
(-1.53398e+06 813534 -1.17179e+06)
(-1.14674e+06 -181711 -843021)
(-1.431e+06 287797 -1.87864e+06)
(-1.54523e+06 -1.39383e+06 -297003)
(-2.16027e+06 -2.25017e+06 -6338.91)
(2.12976e+06 2.09169e+06 -2.83627e+06)
(-1.35717e+06 -25032.1 -1.25316e+06)
(-74420.7 1.41685e+06 -2.09823e+06)
(-1.32364e+06 658100 -1.33828e+06)
(-956427 1.14301e+06 -2.04962e+06)
(-1.13661e+06 1.00989e+06 -1.94926e+06)
(-1.48297e+06 1.20647e+06 -2.15876e+06)
(-1.837e+06 654618 -1.59021e+06)
(-2.49328e+06 1.39534e+06 -2.47384e+06)
(3.95604e+06 2.68799e+06 -2.65922e+06)
(462201 745525 -1.4249e+06)
(1.42546e+06 2.27274e+06 -2.74574e+06)
(-701172 1.47649e+06 -1.91124e+06)
(-131543 2.2803e+06 -1.89649e+06)
(-556817 2.31333e+06 -1.47768e+06)
(-850197 2.34861e+06 -1.96199e+06)
(-1.36761e+06 1.97628e+06 -1.62601e+06)
(-1.97072e+06 2.49196e+06 -1.99375e+06)
(-2.23009e+06 2.57357e+06 -1.40401e+06)
(2.34838e+06 1.892e+06 -420883)
(2.66536e+06 2.94732e+06 -1.25544e+06)
(1.79961e+06 2.67162e+06 -802544)
(949757 3.24063e+06 -1.36995e+06)
(-257960 3.30046e+06 -1.30324e+06)
(-318642 2.64562e+06 -927294)
(-888791 2.84564e+06 -612183)
(-1.48209e+06 2.95473e+06 -804169)
(-1.77996e+06 2.70404e+06 -316716)
(-2.32367e+06 3.06626e+06 -721138)
(3.04399e+06 2.90293e+06 -399068)
(2.22823e+06 2.0342e+06 391291)
(1.95496e+06 2.28767e+06 -435573)
(1.25655e+06 1.83966e+06 461177)
(619164 2.08751e+06 -262390)
(-370222 2.19544e+06 435316)
(-1.18844e+06 2.61251e+06 -133653)
(-1.46629e+06 2.33221e+06 438011)
(-1.92242e+06 2.80418e+06 -299879)
(-2.05118e+06 2.31806e+06 560516)
)
;
    }
    procBoundary9to8
    {
        type            processor;
        value           nonuniform List<vector> 
20
(
(-2.35867e+06 979144 -1.12841e+06)
(-3.87435e+06 -1.24737e+06 702077)
(-2.83989e+06 -655973 -420827)
(-2.4007e+06 -623376 289291)
(-5.82101e+06 -3.98853e+06 2.52571e+06)
(-675618 1.93621e+06 -1.72568e+06)
(-3.64404e+06 -1.47641e+06 236773)
(-2.22874e+06 125653 -940637)
(5.14314e+06 4.36844e+06 -2.57286e+06)
(-5.39387e+06 -2.71993e+06 2.83742e+06)
(184608 2.3751e+06 -2.44769e+06)
(-2.82232e+06 -886751 -669179)
(920192 1.35376e+06 859259)
(3.3429e+06 4.92137e+06 -1.49361e+06)
(-1.90071e+06 -73601 1.22477e+06)
(-2399.77 2.99672e+06 -1.98513e+06)
(2.49061e+06 3.81167e+06 -185977)
(876894 3.42579e+06 148971)
(623152 4.19333e+06 -766425)
(-517219 3.19273e+06 -558791)
)
;
    }
    procBoundary9to10
    {
        type            processor;
        value           nonuniform List<vector> 
20
(
(-2.38827e+06 1.00627e+06 -409774)
(-2.23445e+06 2.12348e+06 -536568)
(-1.83734e+06 2.71892e+06 -182052)
(-1.94245e+06 3.11613e+06 -196072)
(-2.49647e+06 2.16522e+06 -1.50634e+06)
(-2.02197e+06 2.69084e+06 -758919)
(-2.07902e+06 3.03874e+06 -757993)
(-1.98105e+06 3.52709e+06 -489630)
(-2.19003e+06 2.8124e+06 -1.17221e+06)
(-1.78242e+06 3.03027e+06 -1.09299e+06)
(-1.54939e+06 3.326e+06 -738489)
(-1.4787e+06 3.53417e+06 -823023)
(-2.00685e+06 3.19284e+06 -771871)
(-1.55049e+06 3.33086e+06 -410487)
(-1.41241e+06 3.32439e+06 -767871)
(-1.05998e+06 3.50819e+06 -418352)
(-1.86796e+06 3.19799e+06 227479)
(-1.58818e+06 3.3261e+06 -465563)
(-1.19828e+06 3.66806e+06 48537.4)
(-1.0746e+06 3.41314e+06 -559861)
)
;
    }
    procBoundary9to17
    {
        type            processor;
        value           nonuniform List<vector> 
50
(
(-2.39797e+06 -384902 545162)
(-1.73395e+06 1.47131e+06 -241559)
(-1.39976e+06 1.4781e+06 -180186)
(-1.60316e+06 1.30646e+06 -345276)
(-1.62993e+06 1.95407e+06 -294121)
(-1.65884e+06 2.2827e+06 -225603)
(-1.50246e+06 2.41993e+06 -196236)
(-1.67123e+06 2.43923e+06 -265436)
(-1.63656e+06 2.97611e+06 -426945)
(-1.94439e+06 3.28644e+06 -314088)
(-1.72727e+06 439070 -802175)
(-1.48416e+06 913084 -524833)
(-1.49555e+06 1.20799e+06 -850855)
(-1.33144e+06 1.70804e+06 -677978)
(-1.36341e+06 2.11649e+06 -871773)
(-1.23053e+06 2.70745e+06 -682746)
(-1.67983e+06 2.67121e+06 -728953)
(-2.04403e+06 2.44259e+06 -568054)
(-1.21323e+06 4.05653e+06 -167867)
(-1.6474e+06 3.94353e+06 -540736)
(-1.57403e+06 977198 -685185)
(-1.47221e+06 1.4735e+06 -1.18003e+06)
(-1.27673e+06 1.79227e+06 -784881)
(-1.26387e+06 1.93901e+06 -1.10865e+06)
(-1.04814e+06 2.25043e+06 -812859)
(-1.13389e+06 2.37636e+06 -1.0789e+06)
(-979697 2.62957e+06 -791039)
(-1.0916e+06 2.8102e+06 -871816)
(-1.02622e+06 3.14047e+06 -792842)
(-1.24404e+06 4.00494e+06 -699427)
(-1.14133e+06 2.22261e+06 -1.43927e+06)
(-1.05886e+06 2.2198e+06 -797389)
(-1.01653e+06 2.3597e+06 -1.13022e+06)
(-843804 2.57382e+06 -587848)
(-913793 2.53677e+06 -953588)
(-740076 2.79617e+06 -480790)
(-874153 2.72269e+06 -838481)
(-714405 2.99863e+06 -400610)
(-858049 2.95323e+06 -766865)
(-740023 3.29329e+06 -414774)
(-734832 2.98465e+06 -238597)
(-801425 2.73892e+06 -772843)
(-604655 3.00709e+06 -89272.9)
(-740242 2.71705e+06 -695476)
(-556000 3.07486e+06 -1540.9)
(-727211 2.80745e+06 -643776)
(-551842 3.19296e+06 61518.9)
(-746130 2.95511e+06 -613671)
(-593574 3.3766e+06 94260.7)
(-787750 3.16936e+06 -591021)
)
;
    }
}


// ************************************************************************* //
