/*--------------------------------*- C++ -*----------------------------------*\
| =========                 |                                                 |
| \\      /  F ield         | OpenFOAM: The Open Source CFD Toolbox           |
|  \\    /   O peration     | Version:  2.4.0                                 |
|   \\  /    A nd           | Web:      www.OpenFOAM.org                      |
|    \\/     M anipulation  |                                                 |
\*---------------------------------------------------------------------------*/
FoamFile
{
    version     2.0;
    format      ascii;
    class       volVectorField;
    location    "0.01";
    object      A_Source;
}
// * * * * * * * * * * * * * * * * * * * * * * * * * * * * * * * * * * * * * //

dimensions      [1 -2 -2 0 0 0 0];

internalField   nonuniform List<vector> 
60
(
(-4.63847e-90 -5.88929e-90 9.04819e-90)
(-2.53335e-92 -3.21626e-92 4.94176e-92)
(-1.35852e-94 -1.72459e-94 2.65005e-94)
(-7.18263e-97 -9.11713e-97 1.4011e-96)
(-3.75572e-99 -4.76667e-99 7.32622e-99)
(-1.80209e-92 -2.28863e-92 3.51531e-92)
(-1.02732e-94 -1.30457e-94 2.00398e-94)
(-5.76614e-97 -7.32168e-97 1.12479e-96)
(-3.18975e-99 -4.04992e-99 6.22218e-99)
(-1.74154e-101 -2.21099e-101 3.3972e-101)
(-6.4661e-95 -8.21362e-95 1.26133e-94)
(-3.81093e-97 -4.84045e-97 7.43391e-97)
(-2.21561e-99 -2.81393e-99 4.32196e-99)
(-1.27098e-101 -1.61407e-101 2.47927e-101)
(-7.19771e-104 -9.13999e-104 1.40405e-103)
(-2.12816e-97 -2.68719e-97 4.15136e-97)
(-1.30096e-99 -1.64224e-99 2.53777e-99)
(-7.83252e-102 -9.8844e-102 1.52788e-101)
(-4.64916e-104 -5.86542e-104 9.06904e-104)
(-2.72299e-106 -3.43435e-106 5.31169e-106)
(-1.56727e-92 -1.98996e-92 3.05725e-92)
(-9.52889e-95 -1.2098e-94 1.85879e-94)
(-5.62927e-97 -7.14644e-97 1.09809e-96)
(-3.24916e-99 -4.12448e-99 6.33808e-99)
(-1.84047e-101 -2.33604e-101 3.59017e-101)
(-7.09399e-95 -9.00962e-95 1.38381e-94)
(-4.42049e-97 -5.61368e-97 8.62297e-97)
(-2.69584e-99 -3.42323e-99 5.25872e-99)
(-1.61121e-101 -2.04578e-101 3.14296e-101)
(-9.45458e-104 -1.20037e-103 1.84429e-103)
(-2.89596e-97 -3.67875e-97 5.6491e-97)
(-1.84474e-99 -2.34318e-99 3.5985e-99)
(-1.15372e-101 -1.46532e-101 2.25053e-101)
(-7.08932e-104 -9.00338e-104 1.3829e-103)
(-4.28391e-106 -5.44011e-106 8.35656e-106)
(-1.06372e-99 -1.3423e-99 2.07497e-99)
(-6.97566e-102 -8.80036e-102 1.36073e-101)
(-4.48654e-104 -5.65867e-104 8.75182e-104)
(-2.83464e-106 -3.57427e-106 5.52949e-106)
(-1.76148e-108 -2.22049e-108 3.43609e-108)
(-2.9878e-95 -3.79371e-95 5.81181e-95)
(-1.99854e-97 -2.53744e-97 3.88654e-97)
(-1.28875e-99 -1.63615e-99 2.50559e-99)
(-8.06132e-102 -1.02335e-101 1.56688e-101)
(-4.91699e-104 -6.24129e-104 9.55472e-104)
(-1.55411e-97 -1.97385e-97 3.02186e-97)
(-1.04885e-99 -1.332e-99 2.03892e-99)
(-6.8967e-102 -8.75787e-102 1.34037e-101)
(-4.42485e-104 -5.6185e-104 8.59753e-104)
(-2.7756e-106 -3.52406e-106 5.39166e-106)
(-7.13099e-100 -9.05882e-100 1.38608e-99)
(-4.87602e-102 -6.19369e-102 9.47542e-102)
(-3.26072e-104 -4.14154e-104 6.33493e-104)
(-2.13499e-106 -2.71151e-106 4.14684e-106)
(-1.3703e-108 -1.7402e-108 2.66091e-108)
(-2.8965e-102 -3.65266e-102 5.62808e-102)
(-2.02634e-104 -2.55482e-104 3.93636e-104)
(-1.38547e-106 -1.74641e-106 2.69075e-106)
(-9.277e-109 -1.16911e-108 1.80127e-108)
(-6.09276e-111 -7.67633e-111 1.18271e-110)
)
;

boundaryField
{
    inlet
    {
        type            zeroGradient;
    }
    outlet
    {
        type            zeroGradient;
    }
    bottom
    {
        type            zeroGradient;
    }
    top
    {
        type            symmetryPlane;
    }
    side1
    {
        type            symmetryPlane;
    }
    side2
    {
        type            symmetryPlane;
    }
    procBoundary120to56
    {
        type            processor;
        value           nonuniform List<vector> 
20
(
(-1.93167e-87 -2.45287e-87 3.76808e-87)
(-1.07346e-89 -1.36288e-89 2.09398e-89)
(-5.93122e-92 -7.52911e-92 1.15699e-91)
(-3.25918e-94 -4.13654e-94 6.35762e-94)
(-1.78141e-96 -2.26059e-96 3.47496e-96)
(-8.46224e-90 -1.07506e-89 1.65071e-89)
(-4.78965e-92 -6.08394e-92 9.34308e-92)
(-2.69453e-94 -3.42215e-94 5.25617e-94)
(-1.50706e-96 -1.91373e-96 2.93979e-96)
(-8.38177e-99 -1.0642e-98 1.63502e-98)
(-3.50619e-92 -4.45616e-92 6.83946e-92)
(-2.02058e-94 -2.56768e-94 3.94151e-94)
(-1.15701e-96 -1.47008e-96 2.25696e-96)
(-6.58469e-99 -8.36523e-99 1.28446e-98)
(-3.72531e-101 -4.73199e-101 7.2669e-101)
(-1.38577e-94 -1.74867e-94 2.70319e-94)
(-8.12911e-97 -1.02553e-96 1.58573e-96)
(-4.7368e-99 -5.97412e-99 9.23999e-99)
(-2.74241e-101 -3.45785e-101 5.34956e-101)
(-1.57792e-103 -1.98904e-103 3.07801e-103)
)
;
    }
    procBoundary120to104
    {
        type            processor;
        value           nonuniform List<vector> 
15
(
(-3.20507e-86 -4.06778e-86 6.25208e-86)
(-1.63468e-88 -2.07444e-88 3.18874e-88)
(-8.28775e-91 -1.05157e-90 1.61668e-90)
(-4.19086e-93 -5.31648e-93 8.17504e-93)
(-2.11685e-95 -2.68487e-95 4.12931e-95)
(-1.1488e-88 -1.45793e-88 2.24095e-88)
(-6.51682e-91 -8.26953e-91 1.27123e-90)
(-3.62819e-93 -4.60338e-93 7.07746e-93)
(-1.9937e-95 -2.52916e-95 3.88907e-95)
(-1.0851e-97 -1.37628e-97 2.11669e-97)
(-3.28054e-91 -4.16233e-91 6.35845e-91)
(-1.96931e-93 -2.49838e-93 3.81678e-93)
(-1.16063e-95 -1.47225e-95 2.24921e-95)
(-6.73926e-98 -8.54753e-98 1.30584e-97)
(-3.86599e-100 -4.90252e-100 7.48981e-100)
)
;
    }
    procBoundary120to119
    {
        type            processor;
        value           nonuniform List<vector> 
12
(
(-2.39511e-86 -3.04081e-86 4.67211e-86)
(-9.15612e-89 -1.16283e-88 1.78607e-88)
(-3.33062e-91 -4.23102e-91 6.49699e-91)
(-1.12496e-93 -1.42025e-93 2.19443e-93)
(-8.98974e-89 -1.14134e-88 1.75361e-88)
(-3.9847e-91 -5.06077e-91 7.77289e-91)
(-1.63644e-93 -2.07893e-93 3.19217e-93)
(-6.14705e-96 -7.75588e-96 1.19909e-95)
(-2.67422e-91 -3.39492e-91 5.18262e-91)
(-1.28218e-93 -1.62841e-93 2.4847e-93)
(-5.67537e-96 -7.21023e-96 1.09965e-95)
(-2.30936e-98 -2.91227e-98 4.47337e-98)
)
;
    }
    procBoundary120to121
    {
        type            processor;
        value           nonuniform List<vector> 
12
(
(-1.61825e-114 -2.05478e-114 3.1567e-114)
(-1.03445e-116 -1.31342e-116 2.01787e-116)
(-3.8451e-119 -4.8822e-119 7.50058e-119)
(-1.09728e-121 -1.38655e-121 2.14045e-121)
(-1.91871e-117 -2.43811e-117 3.7428e-117)
(-1.69347e-119 -2.15106e-119 3.30342e-119)
(-8.00013e-122 -1.01619e-121 1.56057e-121)
(-2.8014e-124 -3.53765e-124 5.46464e-124)
(2.38295e-120 3.01844e-120 -4.60247e-120)
(6.61394e-123 8.3575e-123 -1.26125e-122)
(-1.40376e-125 -1.80199e-125 2.8377e-125)
(-1.89923e-127 -2.39369e-127 3.72623e-127)
)
;
    }
}


// ************************************************************************* //
