/*--------------------------------*- C++ -*----------------------------------*\
| =========                 |                                                 |
| \\      /  F ield         | OpenFOAM: The Open Source CFD Toolbox           |
|  \\    /   O peration     | Version:  2.4.0                                 |
|   \\  /    A nd           | Web:      www.OpenFOAM.org                      |
|    \\/     M anipulation  |                                                 |
\*---------------------------------------------------------------------------*/
FoamFile
{
    version     2.0;
    format      ascii;
    class       volVectorField;
    location    "0.01";
    object      A_Source_unsmoothed;
}
// * * * * * * * * * * * * * * * * * * * * * * * * * * * * * * * * * * * * * //

dimensions      [1 -2 -2 0 0 0 0];

internalField   nonuniform List<vector> 
60
(
(-7.3921e+34 -9.46922e+34 1.44196e+35)
(0 0 -0)
(-0 -0 -0)
(0 0 0)
(-0 -0 -0)
(0 0 -0)
(-0 -0 -0)
(-0 -0 -0)
(-0 -0 -0)
(-0 -0 -0)
(0 0 0)
(-0 -0 -0)
(0 0 0)
(0 0 0)
(0 0 0)
(-0 -0 -0)
(-0 -0 -0)
(0 0 0)
(-0 -0 -0)
(0 0 0)
(-0 -0 -0)
(0 0 0)
(0 0 -0)
(0 0 -0)
(-0 -0 0)
(0 0 0)
(-0 0 -0)
(-0 -0 0)
(0 0 -0)
(-0 -0 0)
(-0 0 -0)
(-0 0 -0)
(0 0 -0)
(-0 0 -0)
(-0 0 -0)
(-0 -0 0)
(-0 -0 0)
(-0 -0 0)
(-0 -0 -0)
(-0 0 -0)
(0 0 0)
(0 0 0)
(0 0 0)
(0 0 -0)
(0 0 0)
(0 0 0)
(0 0 0)
(0 0 -0)
(-0 -0 -0)
(0 0 -0)
(-0 -0 -0)
(0 0 -0)
(-0 -0 -0)
(0 0 -0)
(0 0 -0)
(0 0 0)
(0 0 -0)
(0 0 -0)
(-0 -0 -0)
(-0 -0 -0)
)
;

boundaryField
{
    inlet
    {
        type            zeroGradient;
    }
    outlet
    {
        type            zeroGradient;
    }
    bottom
    {
        type            zeroGradient;
    }
    top
    {
        type            symmetryPlane;
    }
    side1
    {
        type            symmetryPlane;
    }
    side2
    {
        type            symmetryPlane;
    }
    procBoundary0to1
    {
        type            processor;
        value           uniform (0 0 0);
    }
    procBoundary0to16
    {
        type            processor;
        value           uniform (0 0 0);
    }
    procBoundary0to64
    {
        type            processor;
        value           uniform (0 0 0);
    }
}


// ************************************************************************* //
