/*--------------------------------*- C++ -*----------------------------------*\
| =========                 |                                                 |
| \\      /  F ield         | OpenFOAM: The Open Source CFD Toolbox           |
|  \\    /   O peration     | Version:  2.4.0                                 |
|   \\  /    A nd           | Web:      www.OpenFOAM.org                      |
|    \\/     M anipulation  |                                                 |
\*---------------------------------------------------------------------------*/
FoamFile
{
    version     2.0;
    format      ascii;
    class       volVectorField;
    location    "0.01";
    object      gradp;
}
// * * * * * * * * * * * * * * * * * * * * * * * * * * * * * * * * * * * * * //

dimensions      [1 -2 -2 0 0 0 0];

internalField   nonuniform List<vector> 
200
(
(29.9036 -88.6073 11.3657)
(164.286 -110.532 -4.26762)
(64.7707 -192.75 -54.8254)
(-210.39 -211.828 -40.0928)
(224.701 -225.096 -16.3678)
(214.47 -431.388 -173.742)
(-446.419 -449.664 -154.641)
(-990.963 -506.058 -121.64)
(-1175.1 -198.448 37.0336)
(-319.317 11.6338 124.32)
(-13.945 -186.082 45.7354)
(-43.9981 -198.951 36.832)
(-137.821 -239.788 23.8224)
(-275.083 -219.527 36.1879)
(-214.421 -34.1624 57.0374)
(-234.667 -537.708 39.4117)
(-595.759 -699.602 86.0566)
(-488.531 -1005.66 87.8377)
(-139.717 -328.905 22.401)
(159.775 -1698.31 -79.2364)
(4.16531 -192.658 93.6714)
(56.8729 -226.652 77.7068)
(23.6187 -212.244 77.5906)
(200.862 -207.596 134.337)
(-411.661 -68.2342 27.0685)
(-1116.41 15.6782 174.663)
(-1382.31 -77.1184 255.206)
(-249.569 -87.9617 415.538)
(-2560.42 -21.2456 -220.531)
(-1136.18 -124.583 398.217)
(-81.9324 -106.972 138.624)
(-83.1701 -181.719 133.571)
(-99.7094 -273.172 137.933)
(12.9364 -339.226 187.036)
(232.127 -731.442 173.603)
(-252.435 -367.111 75.9018)
(-803.039 -84.5631 71.911)
(-376.786 534.879 162.09)
(-212.959 454.595 13.1124)
(25.037 1911.75 -102.546)
(-20.1231 -33.6158 -48.465)
(-47.525 -44.7722 -72.2219)
(-49.8698 -66.9132 -156.708)
(-87.3256 -89.7785 -171.266)
(-202.976 -107.648 -109.289)
(-228.006 -90.3426 -268.791)
(-279.695 -64.5478 -302.325)
(-377.604 -170.893 -163.856)
(-388.028 -221.861 -153.287)
(-476.773 -314.057 112.675)
(-42.436 -54.3925 17.0738)
(-114.12 -67.7916 12.7053)
(-139.882 -27.9228 3.67228)
(-168.796 59.5603 34.3436)
(-204.105 35.3358 169.147)
(-141.805 19.7396 34.2911)
(-440.796 -43.846 120.732)
(-692.229 -146.17 198.527)
(-674.355 -741.009 5.7162)
(-403.358 -1260.08 21.2884)
(-46.9214 -44.0372 106.295)
(5.41439 -71.8687 109.396)
(204.834 -29.6666 95.5869)
(39.1915 33.7617 123.48)
(-282.618 118.271 92.136)
(-386.369 74.0623 328.554)
(-611.514 -99.7513 477.018)
(-1771.93 30.8428 1379.5)
(-2615.84 -36.1073 652.842)
(-2413.63 -161.878 1566.2)
(-98.0991 -19.7482 166.569)
(-85.3788 -1.99681 199.558)
(71.3786 -22.4435 209.341)
(127.08 -151.903 238.977)
(-123.503 -93.6332 230.127)
(-577.85 -52.5997 226.436)
(-527.235 -65.2605 353.42)
(-564.941 239.32 526.18)
(-1059.8 786.921 625.662)
(-357.848 1217.25 330.703)
(-46.1186 16.2547 -48.7018)
(-182.091 25.3519 -49.5328)
(-252.171 63.8587 -37.1819)
(-58.6504 117.148 -11.0024)
(-87.3787 220.402 15.7207)
(-403.246 53.5431 44.105)
(-110.626 227.227 29.7839)
(-514.041 73.7541 101.06)
(-290.204 55.9569 174.032)
(-34.2676 -134.585 137.129)
(-27.924 61.5347 1.17492)
(-86.8829 91.6372 12.7922)
(-68.5788 163.883 54.2526)
(254.436 252.067 86.0994)
(-214.589 288.118 156.296)
(-389.596 418.044 282.639)
(-70.2042 547.347 260.484)
(-856.58 1463.72 319.834)
(-706.881 960.901 348.266)
(-364.999 627.33 379.526)
(14.0864 46.5346 39.394)
(22.6066 72.3119 63.3041)
(68.6885 116.826 74.7873)
(189.819 119.817 67.5338)
(244.575 29.334 148.214)
(115.212 323.111 338.828)
(1980.72 295.183 581.557)
(313.066 436.283 751.539)
(-1962.98 970.668 1219.15)
(-1077.16 370.481 1368.31)
(23.6305 -62.2444 51.9293)
(53.699 -49.193 99.8647)
(26.431 0.83747 131.293)
(79.4528 -4.85279 229.774)
(191.999 -113.284 154.989)
(142.102 -222.201 229.394)
(156.14 -306.803 378.453)
(494.389 -1402.17 502.476)
(-838.486 -593.455 709.41)
(-1717.06 -569.127 683.372)
(-22.7821 46.187 58.8967)
(-10.6613 54.9477 96.3553)
(73.4273 79.3819 166.924)
(81.9628 65.5844 176.89)
(-26.6327 117.273 112.063)
(-183.004 291.313 142.568)
(-97.438 304.573 195.821)
(83.9914 179.145 141.556)
(-272.607 56.9136 355.732)
(-751.568 73.7789 -101.241)
(-5.26069 86.5608 61.5937)
(55.7285 112.747 88.4818)
(94.7007 151.228 170.287)
(157.745 185.218 157.976)
(424.824 247.324 -27.8812)
(191.596 491.297 128.325)
(-321.774 838.991 23.261)
(-411.327 894.597 72.3049)
(-483.338 931.178 224.857)
(-664.701 709.811 71.131)
(29.5912 37.1698 -16.9679)
(118.673 67.4472 -3.95236)
(218.369 93.5973 2.94894)
(274.156 263.641 -20.4531)
(585.524 116.179 -92.2498)
(1000.33 -11.1298 -130.824)
(709.161 88.9979 -127.433)
(268.365 323.069 -644.007)
(-642.178 541.722 4.37852)
(-1711.91 324.274 -221.573)
(55.2941 -81.4988 -37.4842)
(168.583 -92.8539 -51.2667)
(487.087 -190.197 -117.98)
(202.909 -290.161 -109.34)
(-124.717 -376.248 -132.341)
(137.233 -515.453 -187.518)
(346.624 -771.062 -207.782)
(494.122 -814.465 -234.923)
(-480.928 -905.359 -514.239)
(-1497 -546.5 -336.481)
(73.7491 20.5699 47.7678)
(163.595 12.7543 77.9338)
(5.53993 69.2407 102.223)
(-234.204 86.885 56.719)
(-197.209 -3.50886 3.42076)
(-135.22 30.754 3.41392)
(-113.865 -48.8697 18.3532)
(-2.3265 -37.0475 -1.71953)
(-1067.15 -153.442 -8.62111)
(-1515.09 141.211 -250.016)
(58.1178 -59.8487 31.7571)
(260.937 -68.8551 51.5629)
(153.801 -98.4758 95.8846)
(-379.703 -63.682 70.0319)
(-309.471 -38.7824 -72.0679)
(-225.941 -19.3837 -159.435)
(-249.468 30.1412 -202.548)
(-211.472 206.815 -136.84)
(-710.638 398.735 -140.094)
(-727.243 434.799 -207.871)
(55.7363 -111.99 -43.7381)
(86.3406 -151.286 -35.5678)
(15.8861 -344.402 -53.842)
(-114.817 -307.888 -98.8437)
(-108.613 -137.802 -175.396)
(2.62756 -182.238 -315.762)
(338.533 -74.4859 -487.178)
(734.862 -55.2817 -431.583)
(-611.187 -211.886 -341.398)
(-1667.37 -281.699 -421.898)
(-20.4734 -57.5482 -61.4678)
(-203.886 -103.878 -85.1452)
(-159.403 -161.864 -177.865)
(33.4954 -201.141 -287.173)
(-58.1714 -154.384 -230.806)
(-99.3086 -221.268 -266.378)
(4.44481 -356.717 -304.726)
(-486.271 -690.195 -373.309)
(-1163.47 -1655.74 -611.099)
(-743.096 -993.239 -586.604)
)
;

boundaryField
{
    inlet
    {
        type            zeroGradient;
    }
    outlet
    {
        type            zeroGradient;
    }
    bottom
    {
        type            zeroGradient;
    }
    top
    {
        type            symmetryPlane;
    }
    side1
    {
        type            symmetryPlane;
    }
    side2
    {
        type            symmetryPlane;
    }
    procBoundary0to1
    {
        type            processor;
        value           nonuniform List<vector> 
20
(
(-224.154 41.0977 -12.1714)
(867.707 -737.337 -153.578)
(3341.93 -88.6147 -619.735)
(621.893 658.49 -106.539)
(-434.618 -185.153 -64.2093)
(233.149 -1709.44 -158.276)
(1460.03 -13.3524 671.287)
(485.012 1718.84 81.2576)
(-729.804 -109.409 88.1589)
(-445.162 439.457 266.597)
(-1639.6 294.638 1438.44)
(-879.36 -275.044 353.424)
(-869.646 100.347 -107.025)
(-905.121 451.006 111.656)
(-1845.54 125.571 -180.063)
(-1288.64 -311.236 -209.876)
(-256.469 240.482 -247.222)
(-405.41 322.596 -159.638)
(-1001.64 -219.813 -327.479)
(-141.672 -1051.12 -375.503)
)
;
    }
    procBoundary0to8
    {
        type            processor;
        value           nonuniform List<vector> 
50
(
(-145.329 -14.7746 148.186)
(-275.528 -13.6868 190.033)
(-291.397 -112.892 234.296)
(-715.679 -111.103 251.413)
(-467.43 -224.212 425.699)
(177.349 -432.425 371.232)
(421.666 -56.3953 267.27)
(828.747 280.309 230.813)
(193.332 556.095 -12.8276)
(-728.39 725.706 -35.8488)
(-11.4186 40.6797 134.25)
(0.0237976 122.873 192.224)
(-94.9788 75.6747 266.843)
(-103.188 52.0539 332.463)
(-84.0106 100.465 478.485)
(-329.624 206.6 419.123)
(-27.6756 101.358 338.118)
(-67.5662 134.242 168.844)
(-659.985 261.798 -2.18988)
(-549.789 372.514 15.6509)
(40.1892 -43.3149 0.79983)
(148.77 -37.2617 6.51849)
(157.369 -46.6741 -30.0585)
(-38.4229 -102.65 -18.8773)
(-190.12 -91.2864 -28.4206)
(-271.827 -103.851 49.5448)
(-379.226 -349.596 140.431)
(-260.237 -467.236 92.9237)
(-296.885 -696.498 161.474)
(-440.332 -151.121 265.967)
(6.88108 -129.719 -14.0328)
(-98.7228 -241.313 -38.1307)
(-176.245 -392.15 -98.7397)
(-97.9466 -822.926 -143.133)
(134.94 -648.228 -117.938)
(210.7 -294.067 -130.241)
(111.137 -251.476 -158.628)
(-0.228818 -528.76 -199.021)
(-106.246 -671.234 -659.551)
(-523.664 -260.071 -486.643)
(-36.9242 5.15112 -28.7689)
(-122.292 0.5352 -42.4581)
(-178.64 70.0169 -36.1343)
(-99.8565 28.8519 -43.2064)
(-148.865 -9.07943 -36.7311)
(-402.037 40.8832 -131.895)
(-599.321 160.601 -228.212)
(-1863.19 -95.2133 -353.914)
(-1217.28 -141.815 -810.387)
(-458.128 -17.0807 -701.11)
)
;
    }
}


// ************************************************************************* //
