/*--------------------------------*- C++ -*----------------------------------*\
| =========                 |                                                 |
| \\      /  F ield         | OpenFOAM: The Open Source CFD Toolbox           |
|  \\    /   O peration     | Version:  2.4.0                                 |
|   \\  /    A nd           | Web:      www.OpenFOAM.org                      |
|    \\/     M anipulation  |                                                 |
\*---------------------------------------------------------------------------*/
FoamFile
{
    version     2.0;
    format      ascii;
    class       volScalarField;
    location    "0.01";
    object      p;
}
// * * * * * * * * * * * * * * * * * * * * * * * * * * * * * * * * * * * * * //

dimensions      [1 -1 -2 0 0 0 0];

internalField   nonuniform List<scalar> 
200
(
-13.0754
-13.0381
-12.8701
-12.9571
-13.1331
-12.6762
-12.865
-13.2343
-14.1037
-14.7031
-13.297
-13.3144
-13.352
-13.4867
-13.6958
-13.7547
-13.9892
-14.4994
-14.5998
-14.674
-13.5407
-13.5354
-13.4696
-13.5059
-13.2185
-14.0205
-14.614
-15.7484
-14.926
-18.9489
-13.7786
-13.881
-13.8826
-14.0057
-13.8664
-13.7155
-14.1819
-14.7193
-14.6529
-14.9855
-13.03
-13.0551
-13.0894
-13.1175
-13.1985
-13.3712
-13.4836
-13.7208
-13.9556
-14.2058
-13.114
-13.1671
-13.2567
-13.3419
-13.4677
-13.5971
-13.6449
-14.148
-14.5102
-14.991
-13.166
-13.2246
-13.1592
-12.9686
-13.1102
-13.3218
-13.5932
-14.0862
-15.8081
-17.356
-13.2241
-13.3467
-13.3308
-13.2575
-13.172
-13.4119
-13.8943
-14.0709
-14.6005
-15.3957
-13.2693
-13.327
-13.4969
-13.6422
-13.5702
-13.7514
-14.0743
-13.8897
-14.7168
-14.2524
-13.2287
-13.2636
-13.3373
-13.3493
-13.0192
-13.6175
-13.5062
-13.7053
-14.5769
-14.5889
-13.1155
-13.0979
-13.0872
-13.012
-12.8499
-12.7063
-12.7059
-10.2304
-12.3146
-12.6841
-13.1123
-13.0828
-13.0452
-13.0498
-12.9459
-12.8098
-12.7683
-12.6146
-12.1503
-13.6627
-13.2248
-13.2533
-13.2381
-13.1615
-13.1357
-13.1948
-13.3644
-13.3166
-13.2594
-13.6573
-13.1093
-13.1159
-13.0397
-12.9975
-12.8425
-12.4665
-12.603
-12.8687
-13.1171
-13.4729
-13.0084
-12.9714
-12.86
-12.6984
-12.5174
-11.9665
-11.2669
-11.0801
-10.9315
-11.8828
-13.0164
-12.9473
-12.8057
-12.3384
-12.552
-12.4943
-12.3805
-12.061
-11.7628
-12.6622
-13.0337
-12.9415
-12.8292
-12.9346
-13.122
-13.1811
-13.291
-13.3235
-13.2939
-14.6574
-12.9823
-12.9096
-12.6561
-12.7174
-13.1308
-13.1042
-13.4132
-13.4161
-13.6775
-14.3044
-13.1833
-13.1137
-13.0754
-13.0938
-13.2189
-13.2296
-13.2157
-12.8064
-12.2971
-13.5704
-13.2623
-13.2879
-13.5171
-13.4871
-13.4753
-13.5598
-13.5994
-13.5543
-14.2072
-15.0086
)
;

boundaryField
{
    inlet
    {
        type            zeroGradient;
    }
    outlet
    {
        type            fixedValue;
        value           nonuniform 0();
    }
    bottom
    {
        type            zeroGradient;
    }
    top
    {
        type            symmetryPlane;
    }
    side1
    {
        type            symmetryPlane;
    }
    side2
    {
        type            symmetryPlane;
    }
    procBoundary0to1
    {
        type            processor;
        value           nonuniform List<scalar> 
20
(
-14.5028
-14.4001
-16.3462
-14.6216
-14.5515
-15.0144
-18.8251
-15.0478
-14.7597
-15.0332
-13.661
-14.2966
-14.1989
-13.948
-13.0714
-13.6341
-15.1878
-14.5866
-14.3813
-15.1361
)
;
    }
    procBoundary0to8
    {
        type            processor;
        value           nonuniform List<scalar> 
50
(
-13.8081
-13.9897
-14.1525
-14.354
-15.0471
-14.9383
-14.8254
-14.4112
-13.7895
-14.1695
-13.2153
-13.2296
-13.2153
-13.3483
-13.3443
-13.4533
-13.7563
-13.4879
-13.8408
-14.3129
-13.2711
-13.2208
-13.0851
-13.0241
-13.1331
-13.2618
-13.4729
-13.7358
-13.7982
-14.1069
-13.2121
-13.2035
-13.3355
-13.4238
-13.458
-13.2552
-13.1946
-13.1162
-13.1949
-13.2491
-13.3272
-13.3734
-13.4801
-13.5967
-13.6049
-13.7827
-14.1074
-14.5319
-16.4364
-16.0535
)
;
    }
}


// ************************************************************************* //
