/*--------------------------------*- C++ -*----------------------------------*\
| =========                 |                                                 |
| \\      /  F ield         | OpenFOAM: The Open Source CFD Toolbox           |
|  \\    /   O peration     | Version:  2.4.0                                 |
|   \\  /    A nd           | Web:      www.OpenFOAM.org                      |
|    \\/     M anipulation  |                                                 |
\*---------------------------------------------------------------------------*/
FoamFile
{
    version     2.0;
    format      ascii;
    class       surfaceScalarField;
    location    "0.01";
    object      phia;
}
// * * * * * * * * * * * * * * * * * * * * * * * * * * * * * * * * * * * * * //

dimensions      [0 3 -1 0 0 0 0];

internalField   nonuniform List<scalar> 
490
(
2.00291e-06
8.12328e-09
2.00559e-09
2.00288e-06
8.13482e-09
2.00316e-09
2.00284e-06
8.14574e-09
1.99979e-09
2.00277e-06
8.15571e-09
1.99473e-09
2.00265e-06
8.16376e-09
1.98633e-09
2.00233e-06
8.16702e-09
1.96959e-09
1.98037e-06
8.15137e-09
1.92007e-09
1.97849e-06
5.80971e-09
-2.16894e-09
1.99033e-06
7.89153e-09
-4.80634e-10
1.91677e-08
-2.94525e-09
2.00288e-06
8.18481e-09
2.00298e-09
2.00284e-06
8.19041e-09
2.00011e-09
2.00279e-06
8.19531e-09
1.99613e-09
2.00272e-06
8.19906e-09
1.99016e-09
2.00257e-06
8.20054e-09
1.98025e-09
2.00219e-06
8.19635e-09
1.96052e-09
1.98048e-06
8.16995e-09
1.90228e-09
1.9786e-06
5.8515e-09
-2.14331e-09
1.99022e-06
7.95046e-09
-4.93996e-10
1.93004e-08
-2.90214e-09
2.00285e-06
8.20718e-09
2.00038e-09
2.00281e-06
8.21033e-09
1.99707e-09
2.00275e-06
8.2127e-09
1.99247e-09
2.00266e-06
8.21376e-09
1.98559e-09
2.00249e-06
8.2122e-09
1.97416e-09
2.00205e-06
8.20413e-09
1.95145e-09
1.98058e-06
8.17063e-09
1.88456e-09
1.9787e-06
5.88031e-09
-2.11813e-09
1.99011e-06
7.99228e-09
-5.07134e-10
1.93887e-08
-2.85996e-09
2.00282e-06
1.99784e-09
2.00277e-06
1.99407e-09
2.00271e-06
1.98885e-09
2.0026e-06
1.98104e-09
2.00241e-06
1.96808e-09
2.00191e-06
1.94239e-09
1.98067e-06
1.86694e-09
1.9788e-06
-2.09341e-09
1.98999e-06
-5.2003e-10
-2.81875e-09
2.00288e-06
8.10899e-09
2.00296e-09
2.00284e-06
8.12026e-09
2.0001e-09
2.00279e-06
8.1308e-09
1.99611e-09
2.00272e-06
8.14022e-09
1.99014e-09
2.00257e-06
8.14739e-09
1.98022e-09
2.00219e-06
8.14891e-09
1.96049e-09
1.98048e-06
8.1283e-09
1.90223e-09
1.9786e-06
5.82144e-09
-2.14323e-09
1.99022e-06
7.90972e-09
-4.94036e-10
1.9201e-08
-2.90202e-09
2.00285e-06
8.17621e-09
2.00038e-09
2.00281e-06
8.18152e-09
1.99707e-09
2.00275e-06
8.18604e-09
1.99247e-09
2.00266e-06
8.18925e-09
1.98559e-09
2.00249e-06
8.18984e-09
1.97416e-09
2.00205e-06
8.18395e-09
1.95144e-09
1.98058e-06
8.15265e-09
1.88456e-09
1.9787e-06
5.86724e-09
-2.11812e-09
1.99011e-06
7.97455e-09
-5.07139e-10
1.93455e-08
-2.85995e-09
2.00282e-06
8.20081e-09
1.99784e-09
2.00277e-06
8.20365e-09
1.99408e-09
2.00271e-06
8.20561e-09
1.98885e-09
2.0026e-06
8.20611e-09
1.98104e-09
2.00241e-06
8.20366e-09
1.96808e-09
2.00191e-06
8.19389e-09
1.94239e-09
1.98067e-06
8.15555e-09
1.86695e-09
1.9788e-06
5.89746e-09
-2.09343e-09
1.98999e-06
8.01874e-09
-5.20025e-10
1.94371e-08
-2.81877e-09
2.00279e-06
1.99536e-09
2.00274e-06
1.99114e-09
2.00266e-06
1.98529e-09
2.00255e-06
1.97654e-09
2.00233e-06
1.96204e-09
2.00177e-06
1.93336e-09
1.98077e-06
1.84943e-09
1.9789e-06
-2.06919e-09
1.98988e-06
-5.32674e-10
-2.77852e-09
2.00285e-06
8.09476e-09
2.00036e-09
2.00281e-06
8.10575e-09
1.99705e-09
2.00275e-06
8.1159e-09
1.99245e-09
2.00266e-06
8.12477e-09
1.98556e-09
2.00249e-06
8.13104e-09
1.97412e-09
2.00205e-06
8.13085e-09
1.9514e-09
1.98058e-06
8.10535e-09
1.88449e-09
1.9787e-06
5.83297e-09
-2.11801e-09
1.99011e-06
7.92811e-09
-5.07192e-10
1.92323e-08
-2.85978e-09
2.00282e-06
8.16769e-09
1.99783e-09
2.00277e-06
8.17269e-09
1.99407e-09
2.00271e-06
8.17681e-09
1.98885e-09
2.0026e-06
8.17945e-09
1.98104e-09
2.00241e-06
8.17916e-09
1.96808e-09
2.00191e-06
8.17157e-09
1.94238e-09
1.98067e-06
8.13544e-09
1.86693e-09
1.9788e-06
5.8828e-09
-2.0934e-09
1.98999e-06
7.99886e-09
-5.2004e-10
1.93887e-08
-2.81872e-09
2.00279e-06
8.19448e-09
1.99536e-09
2.00274e-06
8.197e-09
1.99114e-09
2.00266e-06
8.19856e-09
1.98529e-09
2.00255e-06
8.19849e-09
1.97654e-09
2.00233e-06
8.19514e-09
1.96204e-09
2.00177e-06
8.18368e-09
1.93336e-09
1.98077e-06
8.14057e-09
1.84943e-09
1.9789e-06
5.91447e-09
-2.06918e-09
1.98988e-06
8.04543e-09
-5.32679e-10
1.94838e-08
-2.7785e-09
2.00276e-06
1.99294e-09
2.0027e-06
1.98828e-09
2.00262e-06
1.98179e-09
2.00249e-06
1.97209e-09
2.00225e-06
1.95603e-09
2.00163e-06
1.92435e-09
1.98086e-06
1.83202e-09
1.979e-06
-2.04542e-09
1.98977e-06
-5.45084e-10
-2.73919e-09
2.00282e-06
8.08065e-09
1.99518e-09
2.00277e-06
8.09133e-09
1.99159e-09
2.00271e-06
8.10107e-09
1.98653e-09
2.0026e-06
8.10936e-09
1.97889e-09
2.00241e-06
8.11473e-09
1.9661e-09
2.00191e-06
8.11285e-09
1.94058e-09
1.98067e-06
8.08255e-09
1.86531e-09
1.9788e-06
5.84431e-09
-2.09156e-09
1.98999e-06
7.94667e-09
-5.19659e-10
1.92616e-08
-2.81621e-09
2.00279e-06
8.15923e-09
1.99256e-09
2.00274e-06
8.16392e-09
1.98852e-09
2.00266e-06
8.16763e-09
1.98283e-09
2.00255e-06
8.1697e-09
1.97425e-09
2.00233e-06
8.16851e-09
1.95993e-09
2.00177e-06
8.15922e-09
1.93144e-09
1.98077e-06
8.11834e-09
1.84773e-09
1.9789e-06
5.8982e-09
-2.06728e-09
1.98988e-06
8.02336e-09
-5.32202e-10
1.94301e-08
-2.77593e-09
2.00276e-06
8.18817e-09
1.98999e-09
2.0027e-06
8.19039e-09
1.9855e-09
2.00262e-06
8.19155e-09
1.97918e-09
2.00249e-06
8.1909e-09
1.96965e-09
2.00225e-06
8.18665e-09
1.95377e-09
2.00163e-06
8.17349e-09
1.92229e-09
1.98086e-06
8.12569e-09
1.8302e-09
1.979e-06
5.93132e-09
-2.04338e-09
1.98977e-06
8.07233e-09
-5.44539e-10
1.95287e-08
-2.73646e-09
2.00273e-06
1.98748e-09
2.00267e-06
1.98253e-09
2.00258e-06
1.97559e-09
2.00244e-06
1.96511e-09
2.00217e-06
1.94766e-09
2.00149e-06
1.91315e-09
1.98095e-06
1.81277e-09
1.97909e-06
-2.01993e-09
1.98966e-06
-5.56645e-10
-2.69787e-09
2.00279e-06
8.0666e-09
2.00274e-06
8.07697e-09
2.00266e-06
8.0863e-09
2.00255e-06
8.094e-09
2.00233e-06
8.09847e-09
2.00177e-06
8.09489e-09
1.98077e-06
8.05986e-09
1.9789e-06
5.85548e-09
1.98988e-06
7.9654e-09
1.9289e-08
2.00276e-06
8.15079e-09
2.0027e-06
8.15518e-09
2.00262e-06
8.15848e-09
2.00249e-06
8.15998e-09
2.00225e-06
8.15788e-09
2.00163e-06
8.1469e-09
1.98086e-06
8.10134e-09
1.979e-06
5.91345e-09
1.98977e-06
8.04807e-09
1.94697e-08
2.00273e-06
8.18187e-09
2.00267e-06
8.1838e-09
2.00258e-06
8.18457e-09
2.00244e-06
8.18335e-09
2.00217e-06
8.17819e-09
2.00149e-06
8.16332e-09
1.98095e-06
8.1109e-09
1.97909e-06
5.94803e-09
1.98966e-06
8.09943e-09
1.9572e-08
2.0027e-06
2.00264e-06
2.00254e-06
2.00238e-06
2.00209e-06
2.00135e-06
1.98104e-06
1.97918e-06
1.98955e-06
)
;

boundaryField
{
    inlet
    {
        type            calculated;
        value           uniform 0;
    }
    outlet
    {
        type            calculated;
        value           nonuniform 0();
    }
    bottom
    {
        type            calculated;
        value           uniform 0;
    }
    top
    {
        type            symmetryPlane;
        value           uniform 0;
    }
    side1
    {
        type            symmetryPlane;
        value           uniform 0;
    }
    side2
    {
        type            symmetryPlane;
        value           nonuniform 0();
    }
    procBoundary0to1
    {
        type            processor;
        value           nonuniform List<scalar> 
20
(
1.97245e-06
1.9724e-06
1.97235e-06
1.9723e-06
1.9724e-06
1.97235e-06
1.9723e-06
1.97225e-06
1.97235e-06
1.9723e-06
1.97225e-06
1.9722e-06
1.9723e-06
1.97225e-06
1.9722e-06
1.97216e-06
1.97225e-06
1.9722e-06
1.97216e-06
1.97211e-06
)
;
    }
    procBoundary0to8
    {
        type            processor;
        value           nonuniform List<scalar> 
50
(
8.21875e-09
8.2204e-09
8.22119e-09
8.2205e-09
8.21686e-09
8.20589e-09
8.16633e-09
5.90536e-09
8.02938e-09
1.94632e-08
8.2136e-09
8.21494e-09
8.21533e-09
8.21408e-09
8.20954e-09
8.19686e-09
8.1525e-09
5.92319e-09
8.05712e-09
1.95127e-08
8.20844e-09
8.20949e-09
8.2095e-09
8.20769e-09
8.20226e-09
8.18788e-09
8.13875e-09
5.94088e-09
8.08506e-09
1.95605e-08
8.2033e-09
8.20407e-09
8.20369e-09
8.20133e-09
8.19502e-09
8.17894e-09
8.12509e-09
5.95842e-09
8.11318e-09
1.96065e-08
8.19815e-09
8.19866e-09
8.19791e-09
8.19501e-09
8.18781e-09
8.17003e-09
8.11153e-09
5.97583e-09
8.14148e-09
1.9651e-08
)
;
    }
}


// ************************************************************************* //
