/*--------------------------------*- C++ -*----------------------------------*\
| =========                 |                                                 |
| \\      /  F ield         | OpenFOAM: The Open Source CFD Toolbox           |
|  \\    /   O peration     | Version:  2.4.0                                 |
|   \\  /    A nd           | Web:      www.OpenFOAM.org                      |
|    \\/     M anipulation  |                                                 |
\*---------------------------------------------------------------------------*/
FoamFile
{
    version     2.0;
    format      ascii;
    class       volVectorField;
    location    "0.01";
    object      Ua;
}
// * * * * * * * * * * * * * * * * * * * * * * * * * * * * * * * * * * * * * //

dimensions      [0 1 -1 0 0 0 0];

internalField   nonuniform List<vector> 
200
(
(0.857976 0.00785488 -0.00569343)
(0.857989 0.00787039 -0.00568764)
(0.858007 0.00788542 -0.00567995)
(0.858031 0.00789985 -0.00566921)
(0.858068 0.0079132 -0.00565312)
(0.858129 0.0079244 -0.00562641)
(0.85825 0.00793022 -0.00557331)
(0.858608 0.00791513 -0.005417)
(0.880682 0.00600735 0.00423026)
(0.875526 0.012637 0.00139631)
(0.857994 0.00795341 -0.00568542)
(0.85801 0.00796042 -0.00567847)
(0.858031 0.00796691 -0.00566926)
(0.858061 0.00797265 -0.0056564)
(0.858105 0.00797708 -0.00563714)
(0.858178 0.00797891 -0.00560516)
(0.858323 0.00797435 -0.0055417)
(0.858749 0.0079452 -0.00535555)
(0.880593 0.00608163 0.00418807)
(0.875517 0.0126784 0.00140094)
(0.858013 0.00798542 -0.00567738)
(0.858031 0.00798939 -0.00566928)
(0.858056 0.00799278 -0.00565855)
(0.85809 0.0079953 -0.00564356)
(0.858141 0.00799631 -0.00562113)
(0.858226 0.00799431 -0.00558391)
(0.858395 0.00798496 -0.00551015)
(0.858888 0.00794754 -0.00529455)
(0.880505 0.00613407 0.00414642)
(0.875509 0.0126754 0.0014054)
(0.858031 0.00800089 -0.00566952)
(0.858052 0.00800315 -0.00566024)
(0.85808 0.00800477 -0.00564797)
(0.858119 0.00800541 -0.00563082)
(0.858178 0.00800434 -0.00560518)
(0.858275 0.00799991 -0.0055627)
(0.858467 0.00798722 -0.0054787)
(0.859027 0.00794315 -0.00523408)
(0.880418 0.00618058 0.00410536)
(0.875501 0.0126617 0.00140969)
(0.857994 0.00783671 -0.00568539)
(0.85801 0.00785195 -0.00567843)
(0.858031 0.00786663 -0.00566922)
(0.858061 0.0078806 -0.00565635)
(0.858105 0.00789328 -0.00563708)
(0.858178 0.0079034 -0.0056051)
(0.858323 0.00790718 -0.00554162)
(0.858749 0.00788644 -0.00535541)
(0.880593 0.00603632 0.00418798)
(0.875517 0.0125846 0.00140095)
(0.858013 0.00794338 -0.00567739)
(0.858031 0.00795015 -0.00566928)
(0.858056 0.00795632 -0.00565855)
(0.85809 0.00796162 -0.00564356)
(0.858141 0.00796541 -0.00562113)
(0.858226 0.00796621 -0.00558392)
(0.858395 0.00795968 -0.00551015)
(0.858888 0.00792511 -0.00529456)
(0.880505 0.00611658 0.00414643)
(0.875509 0.0126397 0.0014054)
(0.858031 0.00797838 -0.00566954)
(0.858052 0.00798206 -0.00566026)
(0.85808 0.00798508 -0.00564798)
(0.858119 0.00798713 -0.00563083)
(0.858178 0.00798747 -0.0056052)
(0.858275 0.00798444 -0.00556273)
(0.858467 0.00797317 -0.00547874)
(0.859027 0.00793055 -0.00523414)
(0.880418 0.00617062 0.00410541)
(0.875501 0.0126417 0.00140968)
(0.858048 0.00799531 -0.00566191)
(0.858072 0.00799727 -0.00565145)
(0.858104 0.00799852 -0.00563762)
(0.858148 0.00799869 -0.00561828)
(0.858214 0.00799696 -0.0055894)
(0.858323 0.00799149 -0.00554163)
(0.858539 0.00797692 -0.00544742)
(0.859164 0.00792788 -0.00517425)
(0.880332 0.00621766 0.00406496)
(0.875492 0.0126307 0.0014138)
(0.858013 0.00781856 -0.00567733)
(0.858031 0.00783354 -0.00566922)
(0.858056 0.00784788 -0.00565849)
(0.85809 0.00786139 -0.00564349)
(0.858141 0.00787341 -0.00562105)
(0.858226 0.00788248 -0.00558382)
(0.858395 0.00788427 -0.00551002)
(0.858889 0.00785814 -0.00529434)
(0.880505 0.00606457 0.00414628)
(0.875509 0.0125329 0.00140541)
(0.858031 0.00793353 -0.00566952)
(0.858052 0.00794002 -0.00566024)
(0.85808 0.00794584 -0.00564797)
(0.858119 0.00795067 -0.00563082)
(0.858178 0.0079538 -0.00560518)
(0.858275 0.00795357 -0.0055627)
(0.858467 0.00794511 -0.0054787)
(0.859027 0.00790536 -0.00523408)
(0.880418 0.00615088 0.00410537)
(0.875501 0.0126015 0.00140969)
(0.858048 0.00797141 -0.00566191)
(0.858072 0.00797479 -0.00565145)
(0.858104 0.00797744 -0.00563761)
(0.858148 0.00797901 -0.00561828)
(0.858214 0.00797869 -0.0055894)
(0.858323 0.00797463 -0.00554163)
(0.858539 0.00796147 -0.00544742)
(0.859164 0.00791388 -0.00517424)
(0.880332 0.00620659 0.00406495)
(0.875492 0.0126085 0.0014138)
(0.858065 0.00798975 -0.00565451)
(0.858092 0.00799142 -0.00564288)
(0.858127 0.00799232 -0.00562748)
(0.858176 0.00799202 -0.00560595)
(0.85825 0.00798963 -0.00557379)
(0.858371 0.00798314 -0.00552068)
(0.85861 0.00796671 -0.00541624)
(0.8593 0.00791291 -0.00511491)
(0.880248 0.00625417 0.00402509)
(0.875483 0.0126002 0.00141775)
(0.858031 0.00780058 -0.00566946)
(0.858052 0.00781528 -0.00566018)
(0.85808 0.00782926 -0.00564789)
(0.858119 0.00784228 -0.00563073)
(0.858178 0.00785363 -0.00560508)
(0.858275 0.00786165 -0.00556259)
(0.858467 0.00786151 -0.00547855)
(0.859027 0.00783024 -0.00523381)
(0.880417 0.00609209 0.00410518)
(0.875501 0.0124818 0.00140971)
(0.858048 0.00792378 -0.00566189)
(0.858072 0.00792998 -0.00565143)
(0.858104 0.00793543 -0.00563759)
(0.858148 0.00793979 -0.00561825)
(0.858214 0.00794226 -0.00558937)
(0.858323 0.00794099 -0.00554159)
(0.858539 0.00793065 -0.00544737)
(0.859164 0.00788595 -0.00517415)
(0.880332 0.00618454 0.00406489)
(0.875492 0.012564 0.00141381)
(0.858065 0.00796447 -0.00565451)
(0.858092 0.00796756 -0.00564287)
(0.858127 0.00796986 -0.00562747)
(0.858176 0.00797096 -0.00560594)
(0.85825 0.00796997 -0.00557378)
(0.858371 0.00796489 -0.00552066)
(0.85861 0.00794988 -0.00541622)
(0.8593 0.00789753 -0.00511488)
(0.880247 0.00624194 0.00402507)
(0.875483 0.0125758 0.00141776)
(0.858082 0.0079842 -0.00564733)
(0.858111 0.00798561 -0.00563453)
(0.85815 0.00798617 -0.00561757)
(0.858204 0.0079854 -0.00559385)
(0.858285 0.00798236 -0.0055584)
(0.858419 0.00797486 -0.00549989)
(0.858681 0.0079566 -0.00538517)
(0.859435 0.00789826 -0.00505611)
(0.880164 0.00629011 0.00398579)
(0.875474 0.0125703 0.00142154)
(0.858048 0.00778272 -0.00564598)
(0.858072 0.00779713 -0.00563647)
(0.858104 0.00781073 -0.00562358)
(0.858148 0.00782327 -0.0056052)
(0.858214 0.00783393 -0.00557729)
(0.858323 0.00784091 -0.0055305)
(0.858539 0.00783889 -0.00543731)
(0.859165 0.0078027 -0.00516531)
(0.880331 0.00611893 0.00405796)
(0.875492 0.0124314 0.00141148)
(0.858065 0.00791408 -0.00563775)
(0.858092 0.00792 -0.00562708)
(0.858127 0.00792509 -0.00561263)
(0.858176 0.00792897 -0.00559207)
(0.85825 0.00793077 -0.0055609)
(0.858371 0.00792849 -0.0055088)
(0.85861 0.0079163 -0.00540545)
(0.8593 0.00786686 -0.0051055)
(0.880247 0.0062176 0.00401768)
(0.875483 0.0125269 0.00141517)
(0.858082 0.00795754 -0.00562969)
(0.858111 0.00796037 -0.00561785)
(0.85815 0.00796232 -0.00560185)
(0.858204 0.00796295 -0.0055791)
(0.858285 0.00796131 -0.00554465)
(0.858419 0.00795521 -0.00548719)
(0.858681 0.00793838 -0.00537361)
(0.859435 0.0078815 -0.00504606)
(0.880164 0.00627673 0.00397786)
(0.875474 0.0125436 0.00141871)
(0.858098 0.00797867 -0.0056218)
(0.85813 0.00797982 -0.00560882)
(0.858172 0.00798005 -0.00559128)
(0.858231 0.00797884 -0.00556635)
(0.85832 0.00797515 -0.00552861)
(0.858466 0.00796664 -0.00546574)
(0.858752 0.00794658 -0.00534188)
(0.859568 0.0078839 -0.00498715)
(0.880082 0.0063255 0.00393858)
(0.875465 0.0125408 0.0014221)
)
;

boundaryField
{
    inlet
    {
        type            calculated;
        value           uniform (0 0 0);
    }
    outlet
    {
        type            calculated;
        value           nonuniform 0();
    }
    bottom
    {
        type            calculated;
        value           uniform (0 0 0);
    }
    top
    {
        type            symmetryPlane;
    }
    side1
    {
        type            symmetryPlane;
    }
    side2
    {
        type            symmetryPlane;
    }
    procBoundary0to1
    {
        type            processor;
        value           nonuniform List<vector> 
20
(
(0.867984 0.0111447 7.80426e-05)
(0.868037 0.0112936 7.54062e-05)
(0.868089 0.0114011 7.28909e-05)
(0.868139 0.0114968 7.04975e-05)
(0.868037 0.0112092 7.54004e-05)
(0.868089 0.0113685 7.28914e-05)
(0.868139 0.0114782 7.04999e-05)
(0.868187 0.0115741 6.82271e-05)
(0.868089 0.0112715 7.28825e-05)
(0.868139 0.0114414 7.04977e-05)
(0.868187 0.0115534 6.82267e-05)
(0.868233 0.0116496 6.60715e-05)
(0.868139 0.0113317 7.04874e-05)
(0.868187 0.0115123 6.82236e-05)
(0.868233 0.0116267 6.60703e-05)
(0.868278 0.0117233 6.40298e-05)
(0.868187 0.0113898 6.81006e-05)
(0.868234 0.0115813 6.59476e-05)
(0.868278 0.0116983 6.39023e-05)
(0.868322 0.0117953 6.19674e-05)
)
;
    }
    procBoundary0to8
    {
        type            processor;
        value           nonuniform List<vector> 
50
(
(0.858048 0.00801008 -0.00566214)
(0.858072 0.00801114 -0.00565175)
(0.858103 0.0080115 -0.00563798)
(0.858147 0.00801078 -0.00561873)
(0.858213 0.00800815 -0.0055899)
(0.858322 0.00800177 -0.00554211)
(0.858538 0.00798624 -0.00544766)
(0.859164 0.00793625 -0.00517417)
(0.880332 0.00622434 0.00406492)
(0.875492 0.012644 0.00141383)
(0.858065 0.00800541 -0.00565491)
(0.858091 0.0080062 -0.00564339)
(0.858126 0.00800623 -0.00562813)
(0.858174 0.00800505 -0.00560676)
(0.858247 0.00800178 -0.00557477)
(0.858369 0.00799438 -0.00552173)
(0.858608 0.00797697 -0.00541703)
(0.8593 0.00792211 -0.00511494)
(0.880248 0.00626149 0.00402513)
(0.875483 0.0126147 0.0014178)
(0.858081 0.00800073 -0.00564791)
(0.85811 0.00800127 -0.00563527)
(0.858148 0.00800097 -0.00561853)
(0.858201 0.00799936 -0.00559507)
(0.858282 0.00799546 -0.00555993)
(0.858415 0.00798708 -0.00550166)
(0.858678 0.00796783 -0.00538673)
(0.859435 0.00790826 -0.00505619)
(0.880164 0.00629808 0.00398587)
(0.875474 0.012586 0.00142161)
(0.858096 0.00799605 -0.00564111)
(0.858128 0.00799635 -0.00562738)
(0.858169 0.00799575 -0.00560917)
(0.858227 0.00799372 -0.00558364)
(0.858315 0.00798922 -0.00554537)
(0.85846 0.00797987 -0.00548191)
(0.858746 0.00795883 -0.00535678)
(0.859568 0.00789471 -0.004998)
(0.880082 0.00633411 0.00394718)
(0.875465 0.0125577 0.00142527)
(0.858112 0.00799137 -0.00561488)
(0.858145 0.00799145 -0.00560107)
(0.85819 0.00799055 -0.00558243)
(0.858253 0.00798812 -0.00555587)
(0.858348 0.00798303 -0.00551556)
(0.858505 0.00797273 -0.00544803)
(0.858814 0.00794994 -0.00531398)
(0.8597 0.00788144 -0.00492897)
(0.880001 0.0063696 0.0039)
(0.875456 0.0125299 0.00142545)
)
;
    }
}


// ************************************************************************* //
