/*--------------------------------*- C++ -*----------------------------------*\
| =========                 |                                                 |
| \\      /  F ield         | OpenFOAM: The Open Source CFD Toolbox           |
|  \\    /   O peration     | Version:  2.4.0                                 |
|   \\  /    A nd           | Web:      www.OpenFOAM.org                      |
|    \\/     M anipulation  |                                                 |
\*---------------------------------------------------------------------------*/
FoamFile
{
    version     2.0;
    format      ascii;
    class       volVectorField;
    location    "0.01";
    object      Ub;
}
// * * * * * * * * * * * * * * * * * * * * * * * * * * * * * * * * * * * * * //

dimensions      [0 1 -1 0 0 0 0];

internalField   nonuniform List<vector> 
60
(
(7.52785e+13 9.94563e+13 -1.5106e+14)
(8.19949e+13 2.39984e+12 3.88378e+13)
(4.83205e+13 8.34493e+12 1.04642e+13)
(2.39839e+13 5.16373e+12 7.44733e+12)
(1.75457e+13 2.21094e+12 4.78757e+12)
(1.39413e+13 7.69989e+13 5.65011e+13)
(2.87634e+13 2.29349e+13 6.82573e+12)
(2.06728e+13 1.57492e+13 7.79153e+12)
(1.24068e+13 1.03483e+13 3.5073e+12)
(1.16661e+13 8.05772e+12 3.17995e+12)
(2.51305e+12 1.62401e+13 3.0447e+12)
(6.63018e+12 1.56075e+13 3.24099e+12)
(7.26945e+12 1.14537e+13 2.92726e+12)
(8.93003e+12 1.08297e+13 2.92912e+12)
(7.93724e+12 5.40294e+12 2.43312e+12)
(8.38967e+11 7.99516e+12 1.57017e+12)
(1.35763e+12 4.76122e+12 1.58389e+12)
(4.83333e+12 4.84512e+12 2.05996e+12)
(4.61469e+12 4.60212e+12 1.9485e+12)
(4.62241e+12 5.50955e+12 1.50778e+12)
(1.18097e+13 3.93287e+13 -2.9854e+14)
(-1.18077e+13 -7.35571e+12 -1.65749e+14)
(-2.48137e+13 -1.13343e+12 2.21625e+12)
(-3.94079e+12 -3.24357e+12 1.43355e+13)
(-4.89274e+12 -1.40329e+12 9.71087e+12)
(-1.50203e+12 1.17615e+13 -1.01068e+14)
(-1.64909e+12 -8.86794e+12 9.673e+12)
(-1.88289e+12 3.23805e+12 1.58e+13)
(1.14941e+12 -8.0594e+11 9.79204e+12)
(1.55166e+12 -5.64374e+11 5.85624e+12)
(2.15988e+12 -2.77939e+12 1.23511e+13)
(5.24433e+12 9.45039e+11 8.36173e+12)
(3.49528e+12 1.86888e+12 8.03013e+12)
(2.67539e+12 1.1378e+12 7.79616e+12)
(1.50152e+12 5.60506e+11 4.68612e+12)
(1.13998e+11 4.2777e+12 5.13296e+12)
(6.40566e+11 2.74755e+12 4.02077e+12)
(1.14601e+12 2.84364e+12 4.2043e+12)
(1.3636e+12 2.52943e+12 4.22082e+12)
(1.17447e+12 1.77528e+12 3.63606e+12)
(-1.01277e+13 -1.19146e+13 -1.24406e+14)
(-1.85327e+13 -9.68134e+12 -2.24302e+13)
(-1.54644e+13 -5.6483e+12 1.65776e+12)
(-7.95056e+12 -2.33341e+12 -8.4456e+11)
(-4.47941e+12 -8.80433e+11 2.77667e+11)
(-5.94473e+12 -1.94876e+13 -6.37557e+12)
(-8.41751e+12 -1.11125e+13 1.51704e+12)
(-6.35764e+12 -7.61831e+12 3.50051e+12)
(-3.59272e+12 -3.58343e+12 1.17546e+12)
(-2.02877e+12 -1.77289e+12 1.605e+12)
(-9.81148e+11 -8.56011e+12 5.13229e+12)
(-1.9428e+12 -4.38851e+12 2.53049e+12)
(-1.47539e+12 -3.14931e+12 3.4872e+12)
(-1.91308e+12 -4.84531e+12 4.61306e+12)
(-8.81965e+11 -1.50566e+12 2.28417e+12)
(-3.45517e+11 -2.64055e+12 9.22004e+11)
(-5.28147e+11 -1.3475e+12 1.6158e+12)
(-9.42581e+11 -1.4325e+12 2.01985e+12)
(-4.62913e+11 -1.10673e+12 2.27251e+12)
(-4.32414e+11 -7.6526e+11 1.72834e+12)
)
;

boundaryField
{
    inlet
    {
        type            fixedValue;
        value           uniform (6 0 0);
    }
    outlet
    {
        type            zeroGradient;
    }
    bottom
    {
        type            fixedValue;
        value           uniform (0 0 0);
    }
    top
    {
        type            symmetryPlane;
    }
    side1
    {
        type            symmetryPlane;
    }
    side2
    {
        type            symmetryPlane;
    }
    procBoundary0to1
    {
        type            processor;
        value           nonuniform List<vector> 
12
(
(1.55438e+13 1.63118e+12 3.54826e+12)
(8.44179e+12 3.78223e+12 2.50575e+12)
(6.94448e+12 1.85757e+12 1.87016e+12)
(4.44643e+12 4.02017e+12 6.99262e+11)
(-2.28728e+12 -8.42918e+11 5.82082e+12)
(1.2706e+12 -4.81283e+11 4.32756e+12)
(1.55188e+12 8.28972e+11 4.09566e+12)
(7.56433e+11 9.10211e+11 2.80552e+12)
(-2.99852e+12 -2.53453e+11 6.79146e+11)
(-1.22627e+12 -4.0729e+11 1.6176e+12)
(-9.92116e+11 -3.62182e+11 1.41228e+12)
(-3.51415e+11 -2.23064e+11 1.50781e+12)
)
;
    }
    procBoundary0to16
    {
        type            processor;
        value           nonuniform List<vector> 
15
(
(3.14881e+11 -2.1339e+11 9.97457e+11)
(4.91227e+11 8.38122e+11 7.36969e+11)
(8.01353e+11 3.06338e+12 9.21299e+11)
(1.5846e+12 4.34166e+12 9.3209e+11)
(1.54819e+12 3.97777e+12 9.8254e+11)
(5.43627e+09 1.47371e+12 2.67274e+12)
(1.65749e+11 1.36807e+12 2.68059e+12)
(2.65693e+11 1.4165e+12 2.98524e+12)
(5.77746e+11 1.87366e+12 2.31118e+12)
(8.28191e+11 2.00167e+12 2.22751e+12)
(-1.36308e+11 -6.73657e+11 1.55651e+12)
(-1.71165e+11 -4.21524e+11 1.59932e+12)
(-1.32445e+10 -1.10549e+12 2.38859e+12)
(-9.99472e+10 -7.72867e+11 1.91966e+12)
(-1.94299e+11 -2.90815e+11 1.4563e+12)
)
;
    }
    procBoundary0to64
    {
        type            processor;
        value           nonuniform List<vector> 
20
(
(-5.42442e+12 -7.87626e+12 -3.46432e+13)
(-9.58467e+12 -5.40955e+12 -1.90404e+13)
(-7.94495e+12 -4.78683e+12 -8.9953e+12)
(-5.28782e+12 -2.17044e+12 -3.94693e+12)
(-3.78847e+12 -9.25742e+11 -1.30359e+12)
(-2.65979e+12 -1.09759e+13 -1.44056e+13)
(-4.76121e+12 -8.19301e+12 -7.30222e+12)
(-6.05024e+12 -8.43215e+12 -4.81924e+12)
(-5.53805e+12 -4.03993e+12 -1.74801e+12)
(-4.50661e+12 -2.17857e+12 -1.58889e+11)
(-9.67111e+11 -5.68543e+12 -1.2985e+12)
(-2.07569e+12 -5.93075e+12 -1.09949e+12)
(-2.76215e+12 -6.04444e+12 -3.26582e+11)
(-2.75975e+12 -4.09818e+12 8.27834e+11)
(-2.54725e+12 -2.95997e+12 1.06141e+12)
(-3.48432e+11 -3.15679e+12 2.97962e+11)
(-8.02018e+11 -4.04968e+12 9.1379e+11)
(-1.35805e+12 -4.30465e+12 1.11142e+12)
(-1.58673e+12 -3.00425e+12 9.0527e+11)
(-1.6044e+12 -2.66999e+12 8.95552e+11)
)
;
    }
}


// ************************************************************************* //
