/*--------------------------------*- C++ -*----------------------------------*\
| =========                 |                                                 |
| \\      /  F ield         | OpenFOAM: The Open Source CFD Toolbox           |
|  \\    /   O peration     | Version:  2.4.0                                 |
|   \\  /    A nd           | Web:      www.OpenFOAM.org                      |
|    \\/     M anipulation  |                                                 |
\*---------------------------------------------------------------------------*/
FoamFile
{
    version     2.0;
    format      ascii;
    class       volVectorField;
    location    "0.04";
    object      Ua;
}
// * * * * * * * * * * * * * * * * * * * * * * * * * * * * * * * * * * * * * //

dimensions      [0 1 -1 0 0 0 0];

internalField   nonuniform List<vector> 
200
(
(8.99371 -5.58081 1.87657)
(8.99955 -5.57129 1.86657)
(11.6901 -6.53749 -3.30048)
(12.4566 -6.80174 -4.91258)
(12.5558 -6.83046 -5.594)
(-12.046 1.01472 -9.77067)
(-12.7391 1.23679 -9.87758)
(-12.739 1.23812 -9.87749)
(-12.7388 1.2394 -9.87728)
(-12.7379 1.24062 -9.87666)
(8.99356 -5.62207 1.87653)
(8.99794 -5.618 1.8603)
(9.76373 -5.94279 -5.7985)
(-0.967184 -2.19889 -20.7618)
(-2.57265 -1.83482 -20.3379)
(-12.7224 1.246 -9.89645)
(-12.7392 1.25126 -9.87764)
(-12.7391 1.25125 -9.87755)
(-12.7389 1.25123 -9.87737)
(-12.7382 1.25116 -9.87684)
(8.92512 -5.61611 1.69373)
(-0.366557 -2.87292 -22.7093)
(-1.24755 -2.52951 -24.4097)
(-1.20525 -2.43737 -23.533)
(-1.24909 -2.52903 -24.4121)
(-1.62653 -2.48721 -24.659)
(-12.6734 1.22862 -9.96899)
(-12.7391 1.25124 -9.8775)
(-12.7388 1.25122 -9.87728)
(-12.7379 1.25114 -9.87666)
(-1.39382 -2.94431 -28.1562)
(-1.41138 -2.89873 -27.9038)
(-1.39274 -2.85225 -27.4715)
(-1.36753 -2.79276 -26.9131)
(-1.39274 -2.85225 -27.4715)
(-1.41143 -2.89873 -27.9038)
(-1.5236 -2.90985 -28.1245)
(-13.7554 1.03578 -10.3447)
(-12.7395 1.25108 -9.87697)
(-12.7372 1.25109 -9.87599)
(8.99387 -5.59271 1.87661)
(9.00138 -5.58375 1.86321)
(12.1665 -6.72483 -4.21525)
(12.7574 -6.92523 -5.39358)
(12.8983 -6.96371 -5.81102)
(-10.8155 0.622325 -9.58879)
(-12.739 1.23806 -9.8776)
(-12.7391 1.23943 -9.87755)
(-12.7389 1.24072 -9.87737)
(-12.7382 1.24196 -9.87683)
(8.99371 -5.62811 1.87657)
(9.00131 -5.62512 1.8595)
(11.3308 -6.48336 -4.97319)
(-0.748197 -2.11734 -19.2953)
(-2.33007 -1.80067 -19.4649)
(-12.7238 1.24656 -9.89361)
(-12.7393 1.25127 -9.87769)
(-12.7392 1.25126 -9.87761)
(-12.739 1.25124 -9.87746)
(-12.7384 1.25118 -9.87702)
(8.96561 -5.63164 1.80316)
(0.417033 -3.03485 -20.1258)
(-1.22037 -2.43284 -23.5545)
(-1.1647 -2.31428 -22.4219)
(-1.22386 -2.4317 -23.5596)
(-1.58356 -2.4199 -24.0467)
(-12.6802 1.23101 -9.95771)
(-12.7394 1.25123 -9.87755)
(-12.7389 1.25123 -9.87737)
(-12.7382 1.25116 -9.87684)
(-1.39023 -2.90563 -27.8065)
(-1.43081 -2.84314 -27.5455)
(-1.40128 -2.78436 -26.9763)
(-1.36187 -2.70605 -26.2176)
(-1.40128 -2.78436 -26.9763)
(-1.43089 -2.84312 -27.5455)
(-1.64618 -2.8584 -27.8224)
(-17.5276 0.802652 -10.0361)
(-12.7426 1.25083 -9.87646)
(-12.7366 1.25107 -9.87548)
(8.99403 -5.60462 1.87664)
(9.00672 -5.59748 1.85313)
(12.7021 -6.93454 -5.24395)
(13.0303 -7.03946 -5.87423)
(13.1289 -7.06046 -6.06352)
(13.1695 -7.06044 -6.14797)
(0.519593 -2.92581 -7.99863)
(-11.8187 1.17388 -9.76143)
(-11.1309 1.12877 -9.67494)
(-8.84675 0.972605 -9.38706)
(8.99388 -5.63416 1.8766)
(9.00838 -5.63361 1.84977)
(12.6342 -6.95448 -5.1135)
(12.9979 -7.0802 -5.82764)
(13.0993 -7.1101 -6.04998)
(0.487893 -2.97845 -7.97652)
(-12.1872 1.21078 -9.80648)
(-11.9131 1.19346 -9.77311)
(-11.3005 1.15128 -9.69636)
(-9.27051 1.01021 -9.44051)
(8.99372 -5.64397 1.87655)
(9.00925 -5.64587 1.84431)
(12.1438 -6.80964 -5.58483)
(-0.667026 -2.6145 -22.8633)
(-0.965026 -2.62208 -24.0465)
(-11.2339 -1.99543 -20.1249)
(-34.2355 -0.290008 -8.82901)
(-30.1502 -0.0223141 -8.98588)
(-11.1756 1.13657 -9.67138)
(-8.84568 0.980738 -9.38435)
(8.96752 -5.64203 1.80132)
(0.401286 -3.37449 -22.6999)
(-1.42105 -2.84361 -27.5258)
(-1.4013 -2.78443 -26.9769)
(-1.43272 -2.84302 -27.5447)
(-7.35347 -2.49942 -24.8283)
(-37.4669 -0.511753 -8.70105)
(-37.5143 -0.50843 -8.67605)
(-32.6255 -0.429265 -6.90335)
(10.4873 0.09202 10.5753)
(9.55475 -5.79392 0.799593)
(13.2506 -7.13474 -6.2974)
(13.2629 -7.15429 -6.32098)
(13.2629 -7.13923 -6.32099)
(13.2629 -7.12419 -6.32099)
(13.2629 -7.10918 -6.32099)
(13.2497 -7.09243 -6.32162)
(-8.10688 -4.09634 -7.39957)
(-9.5851 0.981552 -9.44423)
(-5.34297 0.730508 -8.94354)
(9.62255 -5.85626 0.669106)
(13.2489 -7.17941 -6.29405)
(13.2629 -7.19212 -6.32098)
(13.2629 -7.18455 -6.32099)
(13.2629 -7.17697 -6.32099)
(13.1846 -7.15909 -6.32462)
(-30.9134 -1.32327 -8.37851)
(-36.6983 -0.458516 -8.69402)
(-10.2884 1.0076 -9.47136)
(-5.94944 0.779545 -9.01359)
(9.688 -5.89278 0.543111)
(13.2471 -7.19387 -6.29069)
(13.2629 -7.20472 -6.32097)
(13.2601 -7.19879 -6.32425)
(12.7063 -7.12011 -6.35348)
(-36.6173 -0.626823 -8.619)
(-37.5168 -0.508507 -8.66379)
(-37.5166 -0.508476 -8.66723)
(-36.338 -0.493915 -8.22371)
(9.71002 0.00283693 10.0328)
(9.2049 -4.85166 -0.395859)
(9.77259 -3.134 -5.64067)
(9.73055 -3.1291 -5.73965)
(-0.00145734 -2.87268 -24.3352)
(-34.3271 -0.694243 -9.79023)
(-37.5158 -0.508528 -8.66405)
(-37.5168 -0.508479 -8.6673)
(-37.5163 -0.508474 -8.67067)
(-35.5029 -0.488642 -7.84135)
(12.5104 -0.0357825 12.8211)
(10.091 -5.97361 -0.227368)
(13.2559 -7.1216 -6.28672)
(13.2629 -7.13919 -6.30276)
(13.2629 -7.12416 -6.30017)
(13.2629 -7.10914 -6.29757)
(13.093 -7.07212 -6.30275)
(-34.3577 -0.914809 -8.47957)
(-37.5161 -0.506228 -8.63173)
(-37.4937 -0.504758 -8.62512)
(-18.5927 0.0483505 -8.57619)
(10.189 -6.05533 -0.414897)
(13.255 -7.17407 -6.28247)
(13.2629 -7.18452 -6.30017)
(13.2627 -7.17693 -6.29759)
(12.3677 -7.05197 -6.33594)
(-36.9634 -0.581054 -8.59926)
(-37.5171 -0.5085 -8.6318)
(-37.5173 -0.508484 -8.63892)
(-37.5105 -0.508156 -8.63195)
(-27.4079 -0.191506 -8.61812)
(10.2017 -6.01798 -0.601624)
(13.2534 -7.19121 -6.27818)
(13.2603 -7.19929 -6.29768)
(6.87977 -6.35396 -6.58798)
(-37.4386 -0.518806 -8.62108)
(-37.5172 -0.508484 -8.6318)
(-37.5172 -0.508484 -8.63892)
(-37.5172 -0.508484 -8.64604)
(-37.5172 -0.508483 -8.63891)
(-37.4707 -0.508021 -8.61268)
(3.84837 1.3871 -1.61507)
(4.4078 -2.22417 -5.28218)
(-9.50087 -2.06022 -6.82843)
(-37.4588 -0.511985 -8.6409)
(-37.5169 -0.50846 -8.63174)
(-37.517 -0.508475 -8.63887)
(-37.5171 -0.508482 -8.64601)
(-37.5171 -0.508482 -8.65314)
(-37.5171 -0.508482 -8.646)
(-37.4332 -0.507702 -8.60239)
)
;

boundaryField
{
    inlet
    {
        type            calculated;
        value           nonuniform 0();
    }
    outlet
    {
        type            calculated;
        value           nonuniform 0();
    }
    bottom
    {
        type            calculated;
        value           uniform (0 0 0);
    }
    top
    {
        type            symmetryPlane;
    }
    side1
    {
        type            symmetryPlane;
    }
    side2
    {
        type            symmetryPlane;
    }
    procBoundary3to2
    {
        type            processor;
        value           nonuniform List<vector> 
20
(
(7.85853 -4.86464 1.63971)
(7.98577 -4.98403 1.66086)
(8.0698 -5.05522 1.61915)
(-1.32055 -2.99276 -28.1625)
(7.69615 -4.77396 1.60583)
(7.85909 -4.91044 1.63542)
(7.97927 -4.99855 1.63298)
(-1.24341 -2.97677 -27.6232)
(7.47983 -4.64925 1.5607)
(7.69655 -4.81415 1.60238)
(7.8602 -4.92523 1.63123)
(7.98065 -5.0057 1.62721)
(7.99953 -4.90123 1.17384)
(8.18789 -5.04789 1.15131)
(8.33956 -5.14546 1.11959)
(4.14055 0.980953 -1.4666)
(8.47938 -5.12076 0.724562)
(8.64686 -5.25434 0.654007)
(3.57881 1.03121 -1.36801)
(3.78905 1.38316 -1.59563)
)
;
    }
    procBoundary3to4
    {
        type            processor;
        value           nonuniform List<vector> 
20
(
(-11.0835 1.07958 -8.62561)
(-10.8582 1.06776 -8.44739)
(-11.0827 1.08996 -8.62495)
(-10.9143 1.09276 -8.45037)
(-10.8185 1.05596 -8.44472)
(-10.5218 1.03565 -8.20765)
(-10.8175 1.06501 -8.44396)
(-10.0542 1.04554 -7.72144)
(13.5981 -0.574139 -6.55953)
(13.609 -0.579754 -6.55816)
(13.5981 -0.578779 -6.55124)
(15.3718 -0.0616828 14.676)
(13.6325 -0.575746 -6.55262)
(13.6367 -0.581256 -6.54006)
(12.8602 -0.0467776 12.4602)
(15.0144 -0.0381932 15.1575)
(13.6072 -0.575704 -6.52967)
(13.5561 -0.581178 -6.5054)
(-3.76436 -0.20005 5.86572)
(5.52251 -0.127235 11.0132)
)
;
    }
    procBoundary3to11
    {
        type            processor;
        value           nonuniform List<vector> 
50
(
(-1.50912 -3.27884 -31.2305)
(-1.52187 -3.27644 -31.2603)
(-1.53464 -3.27404 -31.2903)
(-1.54744 -3.27163 -31.3202)
(-1.53464 -3.27404 -31.2903)
(-1.52187 -3.27644 -31.2603)
(-1.50913 -3.27884 -31.2305)
(-1.51426 -3.27064 -31.1493)
(-5.47966 1.02934 -6.83488)
(-1.84661 0.762819 -0.0122386)
(-1.63791 -3.25456 -31.5318)
(-1.63792 -3.25457 -31.5318)
(-1.63792 -3.25457 -31.5319)
(-1.63792 -3.25457 -31.5319)
(-1.63792 -3.25457 -31.5319)
(-1.63792 -3.25457 -31.5318)
(-1.63793 -3.25456 -31.5318)
(-1.67057 -3.24344 -31.4456)
(-0.0810256 0.379957 -0.584918)
(5.69944 0.416132 6.8073)
(-1.50127 -3.26173 -31.0961)
(-1.61886 -3.2446 -31.4682)
(-1.62946 -3.25012 -31.5036)
(-1.63791 -3.25456 -31.5318)
(-1.63786 -3.25456 -31.5317)
(-1.63838 -3.25448 -31.5309)
(-3.6605 -3.03336 -29.5054)
(-17.466 -0.313743 -0.985322)
(13.4495 -0.0347023 13.6016)
(15.4499 -0.0392957 15.597)
(6.34538 0.95558 -4.79467)
(6.36207 0.946112 -4.84778)
(6.34416 0.936716 -4.90752)
(-0.17712 -2.49141 -26.6678)
(4.20892 -2.39212 -16.7882)
(-20.105 -0.76231 -8.11731)
(-30.1754 -0.418785 -6.49928)
(-24.0059 -0.35908 -3.91485)
(12.7657 -0.0333411 12.9293)
(15.0153 -0.0381937 15.1582)
(4.27177 1.55727 -1.80232)
(6.15839 1.01626 -4.4711)
(6.36788 0.950246 -4.80418)
(-0.0766267 -1.28861 -19.1229)
(-29.5359 0.347319 -6.91916)
(-31.6187 -0.159207 -7.28668)
(-32.0982 -0.434862 -7.39008)
(-31.1966 -0.422818 -7.18818)
(-31.8009 -0.432429 -7.25322)
(13.4501 -0.0560977 14.5877)
)
;
    }
}


// ************************************************************************* //
