/*--------------------------------*- C++ -*----------------------------------*\
| =========                 |                                                 |
| \\      /  F ield         | OpenFOAM: The Open Source CFD Toolbox           |
|  \\    /   O peration     | Version:  2.4.0                                 |
|   \\  /    A nd           | Web:      www.OpenFOAM.org                      |
|    \\/     M anipulation  |                                                 |
\*---------------------------------------------------------------------------*/
FoamFile
{
    version     2.0;
    format      ascii;
    class       volScalarField;
    location    "0.05";
    object      alpha;
}
// * * * * * * * * * * * * * * * * * * * * * * * * * * * * * * * * * * * * * //

dimensions      [0 0 0 0 0 0 0];

internalField   nonuniform List<scalar> 
200
(
2.8955e-07
4.88959e-09
6.19313e-11
6.53698e-13
6.07202e-15
5.12744e-17
4.03156e-19
1.11579e-19
9.87805e-18
8.17272e-16
3.90393e-05
5.76567e-07
6.48811e-09
6.1604e-11
5.19938e-13
4.02263e-15
2.92759e-17
1.61152e-17
1.25728e-15
8.1267e-14
2.88333e-07
4.86648e-09
6.16062e-11
6.49926e-13
6.03382e-15
5.12742e-17
3.8591e-17
3.77108e-15
3.24972e-13
2.31046e-11
1.21692e-09
2.31056e-11
3.24993e-13
3.77137e-15
3.85945e-17
5.12707e-17
6.03342e-15
6.49887e-13
6.16029e-11
4.86627e-09
9.53479e-10
1.81094e-11
2.54801e-13
2.95778e-15
2.99652e-17
2.75228e-19
1.59628e-19
2.00599e-17
2.37524e-15
2.5568e-13
1.12449e-07
1.89754e-09
2.40168e-11
2.53321e-13
2.35134e-15
1.98413e-17
1.58765e-19
3.58517e-19
3.60428e-17
3.31677e-15
9.48975e-10
1.80144e-11
2.53331e-13
2.93918e-15
2.97612e-17
2.74033e-19
2.03737e-19
1.84316e-17
1.46171e-15
9.48212e-14
4.50497e-12
9.50153e-14
1.46975e-15
1.86021e-17
2.06317e-19
2.7089e-19
2.94867e-17
2.92013e-15
2.52473e-13
1.80156e-11
1.76784e-12
3.73031e-14
5.7729e-16
7.30993e-18
8.15445e-20
2.02141e-19
2.93431e-17
4.05349e-15
5.23597e-13
6.19982e-11
1.85241e-10
3.51624e-12
4.9445e-14
5.73635e-16
5.80814e-18
5.60435e-20
4.00181e-19
5.09995e-17
6.04199e-15
6.5074e-13
1.75858e-12
3.70882e-14
5.73664e-16
7.26019e-18
7.96346e-20
8.12876e-22
3.49376e-21
3.95369e-19
4.16262e-17
3.97889e-15
9.27556e-15
2.15168e-16
3.63056e-18
4.97757e-20
5.94791e-22
7.66373e-22
7.77094e-20
7.13192e-18
5.67692e-16
3.70204e-14
2.42859e-15
5.63651e-17
9.51531e-19
1.30522e-20
1.62432e-22
1.16406e-21
1.57304e-19
2.00589e-17
2.37516e-15
2.55677e-13
2.28917e-13
4.82772e-15
7.46714e-17
9.4501e-19
1.03654e-20
1.20073e-22
2.287e-21
2.71654e-19
2.97999e-17
2.94798e-15
2.41501e-15
5.60144e-17
9.45085e-19
1.29568e-20
1.53044e-22
1.77545e-24
1.89053e-23
2.0699e-21
2.08928e-19
1.89286e-17
4.2955e-17
5.52901e-19
7.78127e-21
1.03899e-22
1.27574e-24
1.54253e-24
1.46577e-22
1.25534e-20
9.27265e-19
5.57772e-17
2.75547e-18
6.9766e-20
1.27595e-21
1.88496e-23
2.65361e-25
3.56409e-24
4.50988e-22
5.35552e-20
5.87095e-18
5.804e-16
2.3598e-16
5.4744e-18
9.23748e-20
1.26654e-21
1.49618e-23
2.16212e-25
6.96998e-24
7.76531e-22
7.95083e-20
7.28739e-18
2.74051e-18
6.93106e-20
1.26676e-21
1.87028e-23
2.36705e-25
3.19286e-27
5.9277e-26
6.17398e-24
5.89688e-22
5.01537e-20
1.728e-19
1.62302e-21
1.74246e-23
2.02443e-25
2.37734e-27
2.48218e-27
2.22088e-25
1.78538e-23
1.23195e-21
6.88716e-20
)
;

boundaryField
{
    inlet
    {
        type            zeroGradient;
    }
    outlet
    {
        type            zeroGradient;
    }
    bottom
    {
        type            fixedValue;
        value           uniform 0;
    }
    top
    {
        type            symmetryPlane;
    }
    side1
    {
        type            symmetryPlane;
    }
    side2
    {
        type            symmetryPlane;
    }
    procBoundary6to5
    {
        type            processor;
        value           nonuniform List<scalar> 
20
(
9.80046e-06
0.00154223
9.76439e-06
3.60643e-08
2.82479e-08
3.80883e-06
2.81292e-08
1.18715e-10
4.65651e-11
5.49117e-09
4.63451e-11
2.20054e-13
5.75839e-14
6.03295e-12
5.73326e-14
4.30501e-15
5.94025e-17
5.59774e-15
5.93323e-17
2.0184e-17
)
;
    }
    procBoundary6to7
    {
        type            processor;
        value           nonuniform List<scalar> 
20
(
6.0204e-14
3.85271e-12
1.21692e-09
2.88332e-07
2.42202e-11
2.70067e-13
4.5064e-12
9.48968e-10
6.52549e-09
6.16771e-11
3.34054e-13
1.75981e-12
2.42202e-11
2.54225e-13
1.48632e-15
2.42076e-15
5.00187e-14
5.77297e-16
3.66369e-18
2.75476e-18
)
;
    }
    procBoundary6to14
    {
        type            processor;
        value           nonuniform List<scalar> 
50
(
3.85189e-12
8.12598e-14
1.25725e-15
1.61155e-17
2.92758e-17
4.02261e-15
5.19937e-13
6.16038e-11
6.48809e-09
5.76566e-07
1.58405e-14
3.67498e-16
6.20141e-18
8.61769e-20
1.56469e-19
1.98408e-17
2.35129e-15
2.53316e-13
2.40166e-11
1.89753e-09
3.58756e-17
9.07829e-19
1.65942e-20
2.4853e-22
4.49081e-22
5.29235e-20
5.79688e-18
5.73155e-16
4.9445e-14
3.5162e-12
4.55893e-19
4.54921e-21
5.24839e-23
6.51097e-25
9.16666e-25
1.00943e-22
1.02928e-20
9.41611e-19
7.46238e-17
4.82763e-15
2.37472e-21
2.04977e-23
1.85529e-25
1.82235e-27
1.49568e-27
1.54359e-25
1.47414e-23
1.25633e-21
9.21967e-20
5.47424e-18
)
;
    }
}


// ************************************************************************* //
