/*--------------------------------*- C++ -*----------------------------------*\
| =========                 |                                                 |
| \\      /  F ield         | OpenFOAM: The Open Source CFD Toolbox           |
|  \\    /   O peration     | Version:  2.4.0                                 |
|   \\  /    A nd           | Web:      www.OpenFOAM.org                      |
|    \\/     M anipulation  |                                                 |
\*---------------------------------------------------------------------------*/
FoamFile
{
    version     2.0;
    format      ascii;
    class       surfaceScalarField;
    location    "0.05";
    object      phia;
}
// * * * * * * * * * * * * * * * * * * * * * * * * * * * * * * * * * * * * * //

dimensions      [0 3 -1 0 0 0 0];

internalField   nonuniform List<scalar> 
490
(
-6.41571e-05
-1.19144e-06
9.07592e-06
-6.42328e-05
-1.22331e-06
1.50457e-05
-6.42328e-05
-1.22374e-06
1.50683e-05
-6.42328e-05
-1.22417e-06
1.50682e-05
-6.42328e-05
-1.2246e-06
1.50682e-05
-6.42328e-05
-1.22503e-06
1.50682e-05
-6.42328e-05
-1.22546e-06
1.50681e-05
-6.42328e-05
-1.22588e-06
1.50681e-05
-6.42328e-05
-1.22631e-06
1.50681e-05
-1.22674e-06
1.5068e-05
-6.41951e-05
-1.22123e-06
9.14304e-06
-6.42328e-05
-1.23192e-06
1.50572e-05
-6.42328e-05
-1.23192e-06
1.50683e-05
-6.42328e-05
-1.23192e-06
1.50682e-05
-6.42328e-05
-1.23192e-06
1.50682e-05
-6.42328e-05
-1.23192e-06
1.50682e-05
-6.42328e-05
-1.23192e-06
1.50681e-05
-6.42328e-05
-1.23192e-06
1.50681e-05
-6.42328e-05
-1.23192e-06
1.50681e-05
-1.23192e-06
1.5068e-05
-6.4233e-05
-1.98004e-07
1.3791e-05
-6.42328e-05
-1.23182e-06
1.50681e-05
-6.42328e-05
-1.23195e-06
1.50682e-05
-6.42328e-05
-1.23194e-06
1.50682e-05
-6.42328e-05
-1.23194e-06
1.50682e-05
-6.42328e-05
-1.23194e-06
1.50681e-05
-6.42328e-05
-1.23193e-06
1.50681e-05
-6.42328e-05
-1.23193e-06
1.50681e-05
-6.42328e-05
-1.23193e-06
1.5068e-05
-1.23192e-06
1.5068e-05
-6.81737e-05
8.28251e-06
-6.4234e-05
1.29916e-05
-6.42333e-05
1.50498e-05
-6.42331e-05
1.50558e-05
-6.42329e-05
1.50601e-05
-6.42327e-05
1.50632e-05
-6.42326e-05
1.50653e-05
-6.42325e-05
1.50667e-05
-6.42326e-05
1.50674e-05
1.50678e-05
-4.00936e-05
1.20943e-05
3.05327e-06
-6.41427e-05
-1.18538e-06
9.06061e-06
-6.42333e-05
-1.22337e-06
1.50393e-05
-6.4233e-05
-1.2238e-06
1.50676e-05
-6.42328e-05
-1.22422e-06
1.50679e-05
-6.42326e-05
-1.22464e-06
1.50681e-05
-6.42324e-05
-1.22506e-06
1.50682e-05
-6.42323e-05
-1.22549e-06
1.50682e-05
-6.42323e-05
-1.22591e-06
1.50682e-05
-1.22633e-06
1.50681e-05
-4.03886e-05
6.37086e-06
3.11185e-06
-6.41888e-05
-1.21929e-06
9.12433e-06
-6.42333e-05
-1.23197e-06
1.50493e-05
-6.42331e-05
-1.23197e-06
1.50644e-05
-6.42329e-05
-1.23196e-06
1.50658e-05
-6.42326e-05
-1.23196e-06
1.50667e-05
-6.42325e-05
-1.23195e-06
1.50674e-05
-6.42324e-05
-1.23194e-06
1.50678e-05
-6.42324e-05
-1.23194e-06
1.5068e-05
-1.23193e-06
1.5068e-05
-6.63881e-05
3.19736e-06
1.24229e-05
-6.42338e-05
1.61397e-07
1.49112e-05
-6.42333e-05
-1.22371e-06
1.50276e-05
-6.42331e-05
-1.22616e-06
1.50404e-05
-6.42329e-05
-1.22794e-06
1.50499e-05
-6.42327e-05
-1.22931e-06
1.50568e-05
-6.42326e-05
-1.23032e-06
1.50616e-05
-6.42325e-05
-1.23102e-06
1.50647e-05
-6.42326e-05
-1.23148e-06
1.50665e-05
-1.23175e-06
1.50675e-05
-8.12267e-05
1.02677e-05
-6.89753e-05
1.32778e-05
-6.41157e-05
7.9565e-06
-6.41539e-05
7.98904e-06
-6.41822e-05
8.05312e-06
-6.42021e-05
8.1398e-06
-6.42154e-05
8.26794e-06
-6.42238e-05
8.479e-06
-6.42287e-05
8.87609e-06
9.74388e-06
-1.58076e-05
1.23184e-05
5.12332e-06
-4.00148e-05
1.21277e-05
6.12965e-06
-6.41102e-05
-1.17437e-06
1.49149e-05
-6.42256e-05
-1.22143e-06
1.50644e-05
-6.42279e-05
-1.22247e-06
1.50658e-05
-6.42294e-05
-1.22335e-06
1.50669e-05
-6.42304e-05
-1.22412e-06
1.50676e-05
-6.4231e-05
-1.22477e-06
1.5068e-05
-6.42315e-05
-1.22535e-06
1.50682e-05
-1.22585e-06
1.50682e-05
-1.60055e-05
7.71503e-06
7.59678e-06
-4.02551e-05
5.75746e-06
8.18651e-06
-6.41391e-05
-1.19954e-06
1.4936e-05
-6.42055e-05
-1.21945e-06
1.5051e-05
-6.4215e-05
-1.22331e-06
1.5057e-05
-6.42217e-05
-1.22626e-06
1.50614e-05
-6.42261e-05
-1.22844e-06
1.50643e-05
-6.4229e-05
-1.22997e-06
1.50662e-05
-6.42308e-05
-1.23097e-06
1.50673e-05
-1.23155e-06
1.50678e-05
-2.88062e-05
1.66682e-06
1.34061e-05
-5.87306e-05
-9.28358e-08
1.47938e-05
-6.39659e-05
1.53737e-06
1.50053e-05
-6.40539e-05
1.65961e-06
1.49503e-05
-6.4118e-05
1.78832e-06
1.49908e-05
-6.41633e-05
1.92622e-06
1.502e-05
-6.41937e-05
2.06648e-06
1.50403e-05
-6.42129e-05
2.18872e-06
1.50535e-05
-6.42241e-05
2.23181e-06
1.50614e-05
2.00305e-06
1.50656e-05
-1.0405e-06
1.57099e-05
-5.4373e-06
1.57443e-05
-1.00413e-05
8.43045e-06
-1.08658e-05
1.00281e-06
-1.18739e-05
1.03141e-06
-1.31861e-05
1.157e-06
-1.50265e-05
1.345e-06
-1.79127e-05
1.65434e-06
-2.31862e-05
2.23561e-06
3.53054e-06
-7.83095e-06
4.42895e-06
9.71079e-06
-3.37167e-05
3.03369e-06
1.08507e-05
-6.25251e-05
-9.25724e-07
1.38774e-05
-6.42096e-05
-1.21566e-06
1.48808e-05
-6.42176e-05
-1.21847e-06
1.50364e-05
-6.4223e-05
-1.22064e-06
1.504e-05
-6.42266e-05
-1.22232e-06
1.50429e-05
-6.42289e-05
-1.2236e-06
1.50451e-05
-6.42304e-05
-1.22456e-06
1.50469e-05
-1.22529e-06
1.50484e-05
-2.21529e-06
1.0963e-06
1.25888e-05
-2.7893e-05
7.33429e-07
1.32642e-05
-5.90641e-05
-5.91655e-07
1.43013e-05
-6.41453e-05
-1.18441e-06
1.48037e-05
-6.41769e-05
-1.19987e-06
1.50169e-05
-6.41986e-05
-1.21125e-06
1.50284e-05
-6.42132e-05
-1.2194e-06
1.50366e-05
-6.42223e-05
-1.22498e-06
1.50423e-05
-6.42278e-05
-1.22856e-06
1.50462e-05
-1.23061e-06
1.50488e-05
-7.75245e-07
3.28485e-07
1.41837e-05
-1.41693e-05
3.3636e-07
1.45605e-05
-4.55446e-05
6.65154e-08
1.48534e-05
-6.36604e-05
2.2973e-06
1.4936e-05
-6.38698e-05
2.37249e-06
1.48633e-05
-6.40145e-05
2.45925e-06
1.49328e-05
-6.41112e-05
2.5775e-06
1.49815e-05
-6.41717e-05
2.72013e-06
1.50137e-05
-6.42065e-05
2.86007e-06
1.50338e-05
2.89068e-06
1.5045e-05
-8.26355e-07
1.52049e-05
-8.98369e-07
1.55898e-05
-5.71287e-06
1.58348e-05
-1.0967e-05
8.51111e-06
-1.19898e-05
1.24658e-06
-1.31197e-05
1.1091e-06
-1.44936e-05
1.21313e-06
-1.63494e-05
1.3797e-06
-1.93967e-05
1.68455e-06
2.38095e-06
-6.57904e-07
2.77468e-07
-6.91454e-07
2.85972e-07
-2.67853e-05
2.94538e-07
-5.85247e-05
-7.09835e-07
-6.42013e-05
-1.21151e-06
-6.42135e-05
-1.21613e-06
-6.42212e-05
-1.21946e-06
-6.42261e-05
-1.22184e-06
-6.42291e-05
-1.2235e-06
-1.22462e-06
-7.00186e-07
2.96583e-07
-7.24461e-07
3.05496e-07
-1.72899e-05
3.14477e-07
-4.89638e-05
-1.63673e-07
-6.41154e-05
-1.15695e-06
-6.41631e-05
-1.18437e-06
-6.41934e-05
-1.20338e-06
-6.42123e-05
-1.21621e-06
-6.42234e-05
-1.22434e-06
-1.22896e-06
-7.48557e-07
3.17807e-07
-7.70628e-07
3.27002e-07
-4.85351e-06
3.35588e-07
-3.61001e-05
2.65166e-07
-6.34682e-05
2.78079e-06
-6.37831e-05
2.88713e-06
-6.39831e-05
2.95885e-06
-6.41081e-05
3.08027e-06
-6.41795e-05
3.236e-06
3.36063e-06
-8.03075e-07
-8.24136e-07
-8.60336e-07
-6.20318e-06
-1.22503e-05
-1.36149e-05
-1.49744e-05
-1.66182e-05
-1.89772e-05
)
;

boundaryField
{
    inlet
    {
        type            calculated;
        value           nonuniform 0();
    }
    outlet
    {
        type            calculated;
        value           nonuniform 0();
    }
    bottom
    {
        type            calculated;
        value           uniform 0;
    }
    top
    {
        type            symmetryPlane;
        value           uniform 0;
    }
    side1
    {
        type            symmetryPlane;
        value           uniform 0;
    }
    side2
    {
        type            symmetryPlane;
        value           nonuniform 0();
    }
    procBoundary6to5
    {
        type            processor;
        value           nonuniform List<scalar> 
20
(
4.01547e-05
4.04734e-05
6.5797e-05
8.18776e-05
1.58594e-05
1.61149e-05
7.16231e-05
8.82266e-05
1.55819e-05
1.55798e-05
5.27615e-06
8.57912e-07
1.04223e-05
3.54408e-06
7.54403e-07
8.07395e-07
6.36364e-07
6.78191e-07
7.2632e-07
7.81011e-07
)
;
    }
    procBoundary6to7
    {
        type            processor;
        value           nonuniform List<scalar> 
20
(
-6.42329e-05
-6.42329e-05
-6.42329e-05
-6.42328e-05
-6.42326e-05
-6.42327e-05
-6.42328e-05
-6.42315e-05
-6.42323e-05
-6.42321e-05
-6.423e-05
-3.42879e-05
-6.42318e-05
-6.4231e-05
-6.42242e-05
-2.64778e-05
-6.42313e-05
-6.42295e-05
-6.42153e-05
-2.40146e-05
)
;
    }
    procBoundary6to14
    {
        type            processor;
        value           nonuniform List<scalar> 
50
(
3.44213e-06
1.03796e-06
-1.22434e-06
-1.22683e-06
-1.22841e-06
-1.22962e-06
-1.23052e-06
-1.23114e-06
-1.23155e-06
-1.23179e-06
5.87012e-06
3.74661e-06
1.98638e-06
2.11357e-06
2.26542e-06
2.42472e-06
2.58059e-06
2.70264e-06
2.70375e-06
2.32642e-06
3.63396e-07
5.08247e-07
4.4395e-06
4.72133e-06
5.02334e-06
5.35804e-06
5.72429e-06
6.1093e-06
6.46223e-06
6.6047e-06
3.52419e-07
3.59841e-07
4.31669e-07
6.09079e-06
6.25306e-06
6.44433e-06
6.71553e-06
7.06708e-06
7.48121e-06
7.86323e-06
3.42693e-07
3.51422e-07
3.5902e-07
3.89632e-07
7.09471e-06
7.32448e-06
7.48356e-06
7.76507e-06
8.16369e-06
8.62561e-06
)
;
    }
}


// ************************************************************************* //
