/*--------------------------------*- C++ -*----------------------------------*\
| =========                 |                                                 |
| \\      /  F ield         | OpenFOAM: The Open Source CFD Toolbox           |
|  \\    /   O peration     | Version:  2.4.0                                 |
|   \\  /    A nd           | Web:      www.OpenFOAM.org                      |
|    \\/     M anipulation  |                                                 |
\*---------------------------------------------------------------------------*/
FoamFile
{
    version     2.0;
    format      ascii;
    class       volVectorField;
    location    "0.05";
    object      Uc;
}
// * * * * * * * * * * * * * * * * * * * * * * * * * * * * * * * * * * * * * //

dimensions      [0 1 -1 0 0 0 0];

internalField   nonuniform List<vector> 
200
(
(9.42397e-07 -1.76609e-06 4.05722e-06)
(1.39007e-08 -2.60182e-08 5.98454e-08)
(1.56228e-10 -2.92056e-10 6.72597e-10)
(1.48152e-12 -2.76615e-12 6.37825e-12)
(1.24883e-14 -2.32883e-14 5.3765e-14)
(9.64974e-17 -1.79726e-16 4.15442e-16)
(7.03993e-19 -1.30416e-18 3.00498e-18)
(-6.64411e-20 -6.09612e-19 2.14871e-19)
(-8.46943e-17 -4.3534e-17 3.98865e-18)
(-1.41709e-14 -2.62204e-15 -9.10443e-16)
(0.000123476 -0.000233402 0.000531592)
(1.55966e-06 -2.94815e-06 6.71466e-06)
(1.5323e-08 -2.89645e-08 6.5969e-08)
(1.29039e-10 -2.43916e-10 5.55539e-10)
(9.78002e-13 -1.84867e-12 4.21051e-12)
(6.86343e-15 -1.29735e-14 2.95483e-14)
(5.23934e-17 -8.7863e-17 1.97078e-16)
(6.20378e-16 -1.80058e-16 1.40292e-16)
(4.74767e-14 -1.37447e-14 1.06469e-14)
(2.95174e-12 -8.54569e-13 6.61956e-13)
(9.38353e-07 -1.77373e-06 4.03981e-06)
(1.38325e-08 -2.6147e-08 5.9552e-08)
(1.55367e-10 -2.93684e-10 6.68889e-10)
(1.47245e-12 -2.7833e-12 6.33919e-12)
(1.24044e-14 -2.34473e-14 5.34029e-14)
(1.11165e-16 -1.85517e-16 4.15839e-16)
(1.65662e-15 -4.80673e-16 3.74318e-16)
(1.60493e-13 -4.64603e-14 3.59904e-14)
(1.35189e-11 -3.9135e-12 3.03159e-12)
(9.34073e-10 -2.704e-10 2.09466e-10)
(4.0439e-09 -7.64402e-09 1.74098e-08)
(6.81436e-11 -1.28809e-10 2.93372e-10)
(8.61272e-13 -1.62803e-12 3.70796e-12)
(9.0718e-15 -1.71478e-14 3.90554e-14)
(1.03276e-16 -1.64499e-16 3.66309e-16)
(2.43222e-15 -7.05223e-16 5.4832e-16)
(2.85686e-13 -8.27018e-14 6.40656e-14)
(3.0461e-11 -8.81798e-12 6.83091e-12)
(2.85131e-09 -8.25409e-10 6.39408e-10)
(2.21672e-07 -6.41707e-08 4.97102e-08)
(3.16861e-09 -5.93199e-09 1.36415e-08)
(5.34137e-11 -9.98757e-11 2.29957e-10)
(6.7535e-13 -1.26128e-12 2.90752e-12)
(7.11599e-15 -1.32737e-14 3.06358e-14)
(6.59824e-17 -1.22931e-16 2.84069e-16)
(5.12254e-19 -1.03575e-18 2.38927e-18)
(-5.94341e-18 -1.09695e-19 -7.01015e-19)
(-7.58441e-16 -1.29812e-17 -9.17822e-17)
(-8.98063e-14 -1.54014e-15 -1.08679e-14)
(-9.66721e-12 -1.66126e-13 -1.16988e-12)
(3.65942e-07 -6.91725e-07 1.57546e-06)
(5.39322e-09 -1.01946e-08 2.3219e-08)
(6.05629e-11 -1.1448e-10 2.60736e-10)
(5.73837e-13 -1.0847e-12 2.47049e-12)
(4.83305e-15 -9.13571e-15 2.08073e-14)
(3.73135e-17 -7.05326e-17 1.60644e-16)
(2.23183e-19 -5.22575e-19 1.15819e-18)
(-6.93186e-18 -1.16646e-18 -4.90983e-19)
(-8.88351e-16 -8.95431e-17 -8.30563e-17)
(-9.76801e-14 -5.95468e-15 -1.04016e-14)
(3.1534e-09 -5.96074e-09 1.3576e-08)
(5.31254e-11 -1.00421e-10 2.28716e-10)
(6.71301e-13 -1.26893e-12 2.89009e-12)
(7.06908e-15 -1.33624e-14 3.04339e-14)
(6.55093e-17 -1.23828e-16 2.82028e-16)
(6.41477e-19 -1.06913e-18 2.39566e-18)
(8.98772e-18 -2.6089e-18 2.00269e-18)
(8.06371e-16 -2.33453e-16 1.7884e-16)
(6.25358e-14 -1.81054e-14 1.39293e-14)
(3.95151e-12 -1.14411e-12 8.83772e-13)
(1.52104e-11 -2.87516e-11 6.54837e-11)
(2.88326e-13 -5.4501e-13 1.2413e-12)
(4.04886e-15 -7.65339e-15 1.74311e-14)
(4.69094e-17 -8.86694e-17 2.01951e-16)
(5.85354e-19 -9.28704e-19 2.06651e-18)
(1.30859e-17 -3.79505e-18 2.91535e-18)
(1.42098e-15 -4.11347e-16 3.15475e-16)
(1.3916e-13 -4.02845e-14 3.09867e-14)
(1.1873e-11 -3.43703e-12 2.65268e-12)
(8.33739e-10 -2.41355e-10 1.86992e-10)
(5.96925e-12 -1.11635e-11 2.56987e-11)
(1.13211e-13 -2.11472e-13 4.87393e-13)
(1.5906e-15 -2.96764e-15 6.84784e-15)
(1.84374e-17 -3.43589e-17 7.93776e-17)
(1.36517e-19 -3.48031e-19 7.96973e-19)
(-7.61136e-18 -1.33159e-19 -9.1397e-19)
(-1.10946e-15 -1.89839e-17 -1.34263e-16)
(-1.53263e-13 -2.62799e-15 -1.85472e-14)
(-1.97972e-11 -3.40179e-13 -2.39578e-12)
(-2.34415e-09 -4.03651e-11 -2.8368e-10)
(6.15542e-10 -1.16353e-09 2.65004e-09)
(1.03694e-11 -1.96008e-11 4.46423e-11)
(1.31021e-13 -2.47663e-13 5.64071e-13)
(1.37961e-15 -2.60783e-15 5.93953e-15)
(1.27832e-17 -2.4165e-17 5.50375e-17)
(-3.93942e-21 -2.05498e-19 4.50128e-19)
(-1.51134e-17 -2.63544e-19 -1.8254e-18)
(-1.92834e-15 -3.3454e-17 -2.33355e-16)
(-2.28452e-13 -3.96736e-15 -2.7646e-14)
(-2.46047e-11 -4.27731e-13 -2.97754e-12)
(5.93754e-12 -1.12235e-11 2.55623e-11)
(1.12543e-13 -2.12735e-13 4.84519e-13)
(1.58029e-15 -2.98715e-15 6.80344e-15)
(1.83072e-17 -3.46054e-17 7.88164e-17)
(1.85092e-19 -3.4988e-19 7.96876e-19)
(1.08774e-21 -3.28971e-21 7.22808e-21)
(-8.51339e-20 -9.54708e-21 -7.63483e-21)
(-1.10031e-17 -8.63712e-19 -1.11007e-18)
(-1.28568e-15 -7.06982e-17 -1.39535e-16)
(-1.33337e-13 -5.13545e-15 -1.51959e-14)
(3.17095e-14 -5.99467e-14 1.3653e-13)
(6.67937e-16 -1.26263e-15 2.8757e-15)
(1.03184e-17 -1.95048e-17 4.44233e-17)
(1.30425e-19 -2.46535e-19 5.61498e-19)
(1.7727e-21 -2.80028e-21 6.22533e-21)
(3.78837e-20 -1.09905e-20 8.28913e-21)
(3.82578e-18 -1.10766e-18 8.3628e-19)
(3.46477e-16 -1.00318e-16 7.62283e-17)
(2.71545e-14 -7.86275e-15 6.01896e-15)
(1.73762e-12 -5.03197e-13 3.88773e-13)
(8.30405e-15 -1.55139e-14 3.57501e-14)
(1.75002e-16 -3.2656e-16 7.53408e-16)
(2.70488e-18 -5.04149e-18 1.16449e-17)
(3.42055e-20 -6.36831e-20 1.47269e-19)
(6.55975e-23 -7.02451e-22 1.57674e-21)
(-4.395e-20 -7.5577e-22 -5.30312e-21)
(-5.94792e-18 -1.0156e-19 -7.1978e-19)
(-7.58453e-16 -1.29778e-17 -9.17836e-17)
(-8.9807e-14 -1.53992e-15 -1.0868e-14)
(-9.66725e-12 -1.66114e-13 -1.16989e-12)
(7.72896e-13 -1.46097e-12 3.32747e-12)
(1.46495e-14 -2.76912e-14 6.30688e-14)
(2.05697e-16 -3.88821e-16 8.85569e-16)
(2.38291e-18 -4.5043e-18 1.02589e-17)
(2.40868e-20 -4.554e-20 1.0372e-19)
(-4.70274e-22 -4.276e-22 8.64158e-22)
(-8.72143e-20 -1.51333e-21 -1.04526e-20)
(-1.03326e-17 -1.79057e-19 -1.24302e-18)
(-1.12996e-15 -1.96018e-17 -1.36356e-16)
(-1.11558e-13 -1.93726e-15 -1.3489e-14)
(8.24652e-15 -1.56072e-14 3.55402e-14)
(1.73813e-16 -3.28693e-16 7.48574e-16)
(2.68551e-18 -5.0773e-18 1.15636e-17)
(3.39457e-20 -6.41728e-20 1.46156e-19)
(3.71826e-22 -7.02968e-22 1.60104e-21)
(-1.52916e-24 -7.18997e-24 1.51875e-23)
(-6.33368e-22 -2.77574e-23 -6.96211e-23)
(-7.18383e-20 -2.55595e-21 -8.1451e-21)
(-7.44541e-18 -2.17092e-19 -8.65552e-19)
(-6.89312e-16 -1.67275e-17 -8.16321e-17)
(-6.18276e-16 -2.28294e-16 6.5653e-17)
(-3.44874e-18 -3.05712e-18 3.84863e-18)
(-1.10928e-20 -4.18695e-20 7.49256e-20)
(6.89987e-23 -5.28024e-22 1.0733e-21)
(2.64387e-24 -6.228e-24 1.30521e-23)
(7.8142e-23 -2.26854e-23 1.67458e-23)
(7.37929e-21 -2.1373e-21 1.58455e-21)
(6.21782e-19 -1.80114e-19 1.34909e-19)
(4.50749e-17 -1.30599e-17 9.89694e-18)
(2.64872e-15 -7.67747e-16 5.9063e-16)
(9.51818e-18 -1.77636e-17 4.0895e-17)
(2.20677e-19 -4.11367e-19 9.47973e-19)
(3.72152e-21 -6.9293e-21 1.59839e-20)
(5.09884e-23 -9.48414e-23 2.18986e-22)
(-4.20897e-25 -1.13574e-24 2.46339e-24)
(-1.3624e-22 -2.32833e-24 -1.61978e-23)
(-1.72057e-20 -2.93162e-22 -2.05515e-21)
(-2.03701e-18 -3.47813e-20 -2.44115e-19)
(-2.22616e-16 -3.80913e-18 -2.67681e-17)
(-2.19637e-14 -3.76609e-16 -2.64698e-15)
(8.0683e-16 -1.52512e-15 3.4672e-15)
(1.69949e-17 -3.21247e-17 7.30188e-17)
(2.62547e-19 -4.96281e-19 1.12783e-18)
(3.31869e-21 -6.27317e-21 1.42536e-20)
(3.6339e-23 -6.87245e-23 1.56121e-22)
(-1.9208e-24 -7.15038e-25 1.26866e-24)
(-2.70007e-22 -4.67527e-24 -3.17331e-23)
(-2.98645e-20 -5.16973e-22 -3.53865e-21)
(-3.03297e-18 -5.25578e-20 -3.62416e-19)
(-2.76391e-16 -4.79457e-18 -3.32261e-17)
(9.40495e-18 -1.78886e-17 4.06251e-17)
(2.18733e-19 -4.14338e-19 9.41343e-19)
(3.69052e-21 -6.98262e-21 1.58638e-20)
(5.05622e-23 -9.56228e-23 2.1722e-22)
(5.96541e-25 -1.12825e-24 2.56254e-24)
(-1.29372e-26 -1.25518e-26 2.48947e-26)
(-2.17798e-24 -6.56036e-26 -2.42812e-25)
(-2.2884e-22 -6.0147e-24 -2.61149e-23)
(-2.19224e-20 -5.09126e-22 -2.55807e-21)
(-1.87027e-18 -3.8984e-20 -2.21947e-19)
(-3.52024e-18 -8.49026e-19 -5.02467e-19)
(-2.49117e-20 -8.31095e-21 9.32036e-22)
(-1.58045e-22 -9.0832e-23 8.01447e-23)
(-8.44021e-25 -1.03452e-24 1.49803e-24)
(-1.66676e-27 -1.18849e-26 2.08388e-26)
(1.28785e-25 -3.74374e-26 2.69256e-26)
(1.14283e-23 -3.31228e-24 2.40248e-24)
(9.00606e-22 -2.61106e-22 1.92143e-22)
(6.07443e-20 -1.76201e-20 1.31777e-20)
(3.29915e-18 -9.57897e-19 7.3153e-19)
)
;

boundaryField
{
    inlet
    {
        type            calculated;
        value           nonuniform 0();
    }
    outlet
    {
        type            calculated;
        value           nonuniform 0();
    }
    bottom
    {
        type            calculated;
        value           uniform (0 0 0);
    }
    top
    {
        type            symmetryPlane;
    }
    side1
    {
        type            symmetryPlane;
    }
    side2
    {
        type            symmetryPlane;
    }
    procBoundary6to5
    {
        type            processor;
        value           nonuniform List<vector> 
20
(
(3.72767e-05 -6.99441e-05 0.000160484)
(0.0058661 -0.0110885 0.0252548)
(3.71396e-05 -7.02034e-05 0.000159894)
(1.37171e-07 -2.59288e-07 5.90549e-07)
(1.07441e-07 -2.01384e-07 4.62556e-07)
(1.44872e-05 -2.73845e-05 6.23704e-05)
(1.06989e-07 -2.02237e-07 4.60612e-07)
(4.51525e-10 -8.53499e-10 1.94391e-09)
(1.77107e-10 -3.31615e-10 7.62484e-10)
(2.08857e-08 -3.94793e-08 8.99174e-08)
(1.76271e-10 -3.33197e-10 7.58883e-10)
(8.36414e-13 -1.58199e-12 3.60281e-12)
(2.19013e-13 -4.09647e-13 9.42896e-13)
(2.29459e-11 -4.33737e-11 9.87872e-11)
(2.16698e-13 -4.12059e-13 9.37702e-13)
(-9.10404e-14 -2.10941e-14 -1.47798e-14)
(2.25927e-16 -4.22133e-16 9.70894e-16)
(2.12902e-14 -4.0244e-14 9.15081e-14)
(2.18358e-16 -4.25883e-16 9.63969e-16)
(-4.55662e-16 -9.62553e-17 -9.16629e-17)
)
;
    }
    procBoundary6to7
    {
        type            processor;
        value           nonuniform List<vector> 
20
(
(-1.57494e-12 -1.23664e-13 -1.57944e-13)
(1.33149e-10 -3.85513e-11 2.98616e-11)
(4.74146e-08 -1.37258e-08 1.0633e-08)
(1.28625e-05 -3.7235e-06 2.88449e-06)
(-9.15764e-10 -1.57694e-11 -1.10822e-10)
(-9.0368e-12 -3.3368e-13 -1.03419e-12)
(1.82056e-10 -5.27196e-11 4.08326e-11)
(4.32257e-08 -1.25132e-08 9.69357e-09)
(-2.46729e-07 -4.25751e-09 -2.98582e-08)
(-2.33201e-09 -4.0582e-11 -2.8221e-10)
(-1.1894e-11 -3.25985e-13 -1.39954e-12)
(8.1343e-11 -2.35621e-11 1.82463e-11)
(-9.15766e-10 -1.5769e-11 -1.10822e-10)
(-9.61225e-12 -1.67097e-13 -1.16324e-12)
(-5.50721e-14 -1.14336e-15 -6.60321e-15)
(1.12933e-13 -3.27643e-14 2.53495e-14)
(-1.89121e-12 -3.24968e-14 -2.28175e-13)
(-2.18275e-14 -3.79043e-16 -2.6328e-15)
(-1.37148e-16 -2.62062e-18 -1.64574e-17)
(1.29018e-16 -3.7542e-17 2.89394e-17)
)
;
    }
    procBoundary6to14
    {
        type            processor;
        value           nonuniform List<vector> 
50
(
(1.30065e-11 -2.45857e-11 5.59932e-11)
(2.46606e-13 -4.6615e-13 1.06166e-12)
(3.46387e-15 -6.54751e-15 1.49122e-14)
(5.05448e-17 -7.88863e-17 1.75141e-16)
(1.51773e-15 -4.40008e-16 3.42016e-16)
(2.09737e-13 -6.07157e-14 4.70349e-14)
(2.71093e-11 -7.84772e-12 6.07943e-12)
(3.212e-09 -9.29824e-10 7.20311e-10)
(3.38287e-07 -9.79288e-08 7.5863e-08)
(3.0062e-05 -8.70247e-06 6.74159e-06)
(5.41642e-14 -1.02384e-13 2.33174e-13)
(1.14093e-15 -2.15665e-15 4.91177e-15)
(1.76266e-17 -3.33182e-17 7.58827e-17)
(2.82658e-19 -4.38487e-19 9.72634e-19)
(8.10848e-18 -2.35119e-18 1.82832e-18)
(1.03451e-15 -2.99475e-16 2.31993e-16)
(1.22597e-13 -3.549e-14 2.74929e-14)
(1.3208e-11 -3.82351e-12 2.96195e-12)
(1.25222e-09 -3.62499e-10 2.80818e-10)
(9.89369e-08 -2.86407e-08 2.21872e-08)
(1.2387e-16 -2.34248e-16 5.33444e-16)
(2.87088e-18 -5.42751e-18 1.23607e-17)
(4.83901e-20 -9.14738e-20 2.0833e-19)
(8.47441e-22 -1.30616e-21 2.89419e-21)
(2.33646e-20 -6.77619e-21 5.24851e-21)
(2.76813e-18 -8.01328e-19 6.18831e-19)
(3.02831e-16 -8.76648e-17 6.77822e-17)
(2.9909e-14 -8.65817e-15 6.70179e-15)
(2.57803e-12 -7.46301e-13 5.78147e-13)
(1.83335e-10 -5.30726e-11 4.11138e-11)
(-8.22223e-18 -2.11903e-18 -9.17157e-19)
(-5.73869e-20 -2.26841e-20 9.01091e-21)
(-3.47303e-22 -2.70409e-22 3.14435e-22)
(-1.19192e-24 -3.38206e-24 5.48109e-24)
(4.807e-23 -1.39535e-23 1.07006e-23)
(5.31866e-21 -1.53966e-21 1.18034e-21)
(5.40395e-19 -1.56435e-19 1.20353e-19)
(4.92723e-17 -1.42635e-17 1.10102e-17)
(3.89333e-15 -1.12706e-15 8.72563e-16)
(2.51715e-13 -7.28676e-14 5.6448e-14)
(-4.87752e-20 -1.05934e-20 -9.2378e-21)
(-3.82455e-22 -9.44475e-23 -5.02309e-23)
(-2.7893e-24 -8.8616e-25 1.81909e-26)
(-1.80886e-26 -9.02078e-27 5.8132e-27)
(7.90875e-26 -2.30177e-26 1.7329e-26)
(8.21926e-24 -2.37931e-24 1.80023e-24)
(7.79733e-22 -2.25718e-22 1.71948e-22)
(6.60324e-20 -1.91152e-20 1.46565e-20)
(4.81637e-18 -1.39426e-18 1.07574e-18)
(2.85433e-16 -8.26284e-17 6.38823e-17)
)
;
    }
}


// ************************************************************************* //
