/*--------------------------------*- C++ -*----------------------------------*\
| =========                 |                                                 |
| \\      /  F ield         | OpenFOAM: The Open Source CFD Toolbox           |
|  \\    /   O peration     | Version:  2.4.0                                 |
|   \\  /    A nd           | Web:      www.OpenFOAM.org                      |
|    \\/     M anipulation  |                                                 |
\*---------------------------------------------------------------------------*/
FoamFile
{
    version     2.0;
    format      ascii;
    class       volScalarField;
    location    "0.03";
    object      alpha;
}
// * * * * * * * * * * * * * * * * * * * * * * * * * * * * * * * * * * * * * //

dimensions      [0 0 0 0 0 0 0];

internalField   nonuniform List<scalar> 
200
(
2.1523e-16
9.27658e-15
2.2008e-13
1.02669e-14
2.60947e-16
4.78459e-18
7.36955e-20
4.00002e-19
5.09252e-17
6.03384e-15
3.07729e-17
4.03963e-16
1.66159e-14
3.75816e-13
1.58429e-14
3.67473e-16
6.38976e-18
2.91858e-17
4.02262e-15
5.19938e-13
1.1636e-14
9.52497e-14
4.50501e-12
1.18715e-10
4.505e-12
9.50174e-14
1.46886e-15
1.8966e-17
5.11261e-17
6.03368e-15
4.10513e-12
1.80956e-11
9.4898e-10
2.81292e-08
9.48979e-10
1.80144e-11
2.5333e-13
2.93915e-15
3.01117e-17
3.8392e-17
9.48024e-14
4.49597e-12
1.18506e-10
4.73572e-12
1.04916e-13
1.70075e-15
2.25053e-17
2.6124e-19
4.50333e-19
5.06879e-17
1.64721e-15
9.67034e-14
4.21136e-12
1.01132e-10
3.83673e-12
8.09047e-14
1.25042e-15
1.5958e-17
2.00158e-17
2.35156e-15
3.25919e-13
2.3011e-11
1.21243e-09
3.59458e-08
1.21243e-09
2.30108e-11
3.23525e-13
3.75277e-15
3.82675e-17
3.00519e-17
6.13691e-11
4.84852e-09
2.87387e-07
9.73631e-06
2.87387e-07
4.84852e-09
6.13537e-11
6.46998e-13
6.00641e-15
5.09699e-17
2.30105e-11
1.21244e-09
3.59459e-08
1.21244e-09
2.3011e-11
3.2353e-13
3.75287e-15
3.82441e-17
3.31936e-17
4.2361e-15
8.69062e-14
3.83676e-12
1.01132e-10
4.21138e-12
9.67037e-14
1.6175e-15
2.20049e-17
2.61891e-19
4.67593e-19
5.70353e-17
5.19293e-13
1.08919e-13
4.73577e-12
1.18506e-10
4.49596e-12
9.48041e-14
1.46617e-15
1.86688e-17
2.50272e-18
5.44635e-19
2.58795e-13
1.79775e-11
9.47224e-10
2.80829e-08
9.47223e-10
1.79775e-11
2.52761e-13
2.9778e-15
1.01872e-15
4.6118e-17
9.48002e-14
4.49572e-12
1.18496e-10
4.49576e-12
9.48016e-14
1.46614e-15
1.85527e-17
2.05012e-19
1.79468e-19
2.09364e-17
3.95995e-16
1.58071e-14
3.75045e-13
1.65789e-14
4.02411e-16
7.08967e-18
1.02647e-19
5.07848e-20
9.8189e-19
3.33344e-19
2.35031e-15
2.80364e-16
1.02508e-14
2.19778e-13
9.26257e-15
2.14843e-16
4.21825e-18
2.35239e-17
5.06394e-16
2.34744e-17
6.02102e-16
3.70333e-14
1.75618e-12
4.6288e-11
1.75618e-12
3.70365e-14
8.07359e-16
1.01233e-14
2.40007e-13
1.01155e-14
2.14983e-16
9.27537e-15
2.20035e-13
9.27554e-15
2.1517e-16
3.6306e-18
4.97764e-20
5.92954e-22
5.197e-22
5.59908e-20
9.85179e-19
3.58789e-17
7.73919e-16
3.7046e-17
9.66878e-19
1.82093e-20
2.84576e-22
2.69661e-22
4.86372e-21
1.0645e-21
5.81764e-18
5.20246e-19
1.62463e-17
3.02286e-16
1.40119e-17
3.54599e-19
9.6701e-21
1.16463e-19
2.30113e-18
1.16038e-19
1.02203e-18
5.59782e-17
2.41462e-15
5.72822e-14
2.41464e-15
5.60333e-17
2.10815e-18
4.59728e-17
9.91268e-16
4.59193e-17
)
;

boundaryField
{
    inlet
    {
        type            zeroGradient;
    }
    outlet
    {
        type            zeroGradient;
    }
    bottom
    {
        type            fixedValue;
        value           uniform 0;
    }
    top
    {
        type            symmetryPlane;
    }
    side1
    {
        type            symmetryPlane;
    }
    side2
    {
        type            symmetryPlane;
    }
    procBoundary12to4
    {
        type            processor;
        value           nonuniform List<scalar> 
50
(
3.70882e-14
1.75859e-12
4.63451e-11
1.75859e-12
3.70884e-14
5.73667e-16
7.26025e-18
8.28243e-20
3.66474e-19
3.90983e-17
1.79774e-11
9.4722e-10
2.80829e-08
9.4722e-10
1.79775e-11
2.5276e-13
2.93196e-15
2.97664e-17
6.45924e-18
3.68007e-16
4.84851e-09
2.87386e-07
9.73631e-06
2.87386e-07
4.84851e-09
6.13535e-11
6.46994e-13
6.01996e-15
1.30529e-15
8.11805e-14
1.79774e-11
9.4722e-10
2.80829e-08
9.4722e-10
1.79774e-11
2.52759e-13
2.93194e-15
2.97662e-17
6.4677e-18
3.68029e-16
3.70885e-14
1.75859e-12
4.63451e-11
1.75859e-12
3.70883e-14
5.73665e-16
7.26021e-18
7.98771e-20
1.73842e-20
9.11705e-19
)
;
    }
    procBoundary12to11
    {
        type            processor;
        value           nonuniform List<scalar> 
20
(
4.61697e-18
5.16019e-16
2.41578e-13
1.01492e-10
1.4717e-15
2.95612e-15
2.57492e-13
1.02563e-12
3.25767e-13
6.48232e-13
6.13512e-11
6.5068e-13
1.46686e-15
2.93801e-15
2.52748e-13
2.94024e-15
3.77907e-18
7.27698e-18
5.73635e-16
7.27425e-18
)
;
    }
    procBoundary12to13
    {
        type            processor;
        value           nonuniform List<scalar> 
20
(
6.49932e-13
6.1604e-11
6.49927e-13
3.77136e-15
5.33064e-15
2.53351e-13
2.93938e-15
1.90019e-17
5.27739e-13
6.60129e-15
4.53031e-17
1.37095e-18
2.39151e-15
3.0744e-17
8.01293e-19
2.32614e-16
5.92193e-18
8.11603e-20
3.69902e-21
1.14088e-18
)
;
    }
    procBoundary12to20
    {
        type            processor;
        value           nonuniform List<scalar> 
50
(
1.24094e-09
1.92065e-09
1.12449e-07
3.80883e-06
1.12449e-07
1.89754e-09
2.40168e-11
2.53321e-13
2.35251e-15
2.00698e-17
6.46864e-09
5.74673e-07
3.89271e-05
0.00153843
3.89271e-05
5.74673e-07
6.46414e-09
6.13512e-11
5.18365e-13
4.03866e-15
2.39768e-11
1.89403e-09
1.12264e-07
3.80335e-06
1.12264e-07
1.89403e-09
2.39678e-11
2.68554e-13
3.77352e-13
1.58259e-14
4.93845e-14
3.51142e-12
1.85013e-10
5.48514e-09
1.85013e-10
3.51267e-12
1.30267e-13
3.83692e-12
1.01116e-10
3.83635e-12
7.46893e-17
4.82773e-15
2.28918e-13
6.03295e-12
2.28918e-13
4.83393e-15
4.42191e-16
1.58429e-14
3.7578e-13
1.58418e-14
)
;
    }
}


// ************************************************************************* //
