/*--------------------------------*- C++ -*----------------------------------*\
| =========                 |                                                 |
| \\      /  F ield         | OpenFOAM: The Open Source CFD Toolbox           |
|  \\    /   O peration     | Version:  2.4.0                                 |
|   \\  /    A nd           | Web:      www.OpenFOAM.org                      |
|    \\/     M anipulation  |                                                 |
\*---------------------------------------------------------------------------*/
FoamFile
{
    version     2.0;
    format      ascii;
    class       volScalarField;
    location    "0.03";
    object      nut;
}
// * * * * * * * * * * * * * * * * * * * * * * * * * * * * * * * * * * * * * //

dimensions      [0 2 -1 0 0 0 0];

internalField   nonuniform List<scalar> 
200
(
0.000533731
0.000305265
0.000604486
0.000538636
0.000569213
0.000880674
0.00103658
0.00115274
0.000772226
0.0012258
0.000328142
0.000393754
0.00037703
0.000461819
0.00034597
0.000560435
0.000388378
0.000890038
0.000899058
0.000819143
0.000495427
0.000444893
0.000535138
0.000568179
0.000579334
0.000549224
0.000592501
0.000582192
0.000681209
0.000809359
0.000357099
0.00042753
0.000541669
0.000543936
0.000581866
0.000717733
0.000688691
0.000632374
0.000762388
0.00079804
0.000159175
0.000707624
0.00033272
0.000570979
0.000312304
0.00115027
0.000658367
0.000523711
0.000590573
0.000328257
0.000452863
0.000318541
0.000642679
0.000665018
0.000794871
0.000571508
0.000417375
0.000472506
0.000529793
0.000580793
0.000250389
0.000388275
0.000684526
0.000793965
0.00058995
0.000572027
0.000445536
0.00036683
0.00052874
0.000628029
0.000308716
0.000571572
0.000350259
0.000386298
0.00059301
0.000900601
0.00138875
0.000684356
0.00125356
0.00102116
0.000877728
0.000950667
0.00172136
0.00133684
0.00216503
0.00183703
0.00115186
0.000662935
0.00064209
0.00048126
0.000466178
0.00148866
0.000788424
0.00161871
0.000445588
0.00111109
0.000565309
0.000463377
0.000528603
0.000400889
0.00103143
0.000619125
0.00079499
0.000346929
0.000706503
0.00061835
0.000874712
0.00080939
0.00094143
0.000751524
0.000441399
0.000663923
0.000588239
0.000710183
0.000548567
0.00099706
0.000686344
0.00146548
0.000926339
0.000795822
0.00076339
0.00138454
0.00319891
0.00181463
0.00547654
0.00281282
0.00524169
0.00215293
0.000800841
0.000793953
0.000944872
0.00130081
0.00121565
0.0025917
0.00155431
0.00140638
0.0016074
0.000486904
0.000478174
0.000329093
0.000327178
0.000851223
0.000856062
0.00100067
0.00171671
0.00127644
0.000518724
0.000836817
0.000589732
0.000494367
0.000478683
6.41971e-05
0.00078152
0.00312875
0.000654699
0.00132889
0.00128784
0.000662965
0.00113259
0.000685145
0.00114109
0.00270692
0.00305177
0.00451552
0.0052162
0.0123044
0.00396143
0.00685487
0.00253916
0.000298401
0.00144288
0.00141626
0.00299093
0.00280381
0.00735378
0.00221686
0.00273537
0.00160818
0.000258177
0.00036368
0.000439295
0.00126328
0.00117592
0.00332203
0.00136372
0.0015374
0.00117727
0.000632285
0.000510121
0.000336237
0.000557653
0.0004293
0.00091321
0.000925121
0.00177551
0.0007774
0.000736404
0.000645343
0.000446203
0.00051679
)
;

boundaryField
{
    inlet
    {
        type            calculated;
        value           nonuniform 0();
    }
    outlet
    {
        type            calculated;
        value           nonuniform 0();
    }
    bottom
    {
        type            calculated;
        value           nonuniform List<scalar> 
40
(
6.93422e-28
5.2065e-28
6.38045e-28
6.35016e-28
5.10316e-28
6.58892e-28
6.97076e-28
5.1754e-28
7.7664e-28
6.58686e-28
6.64859e-28
5.95158e-28
8.45714e-28
7.36043e-28
6.72477e-28
5.90321e-28
8.64907e-28
6.94104e-28
7.28579e-28
5.73842e-28
1.1877e-27
8.62344e-28
7.73461e-28
7.76198e-28
1.68692e-27
7.14528e-28
8.82589e-28
8.51646e-28
1.16792e-27
1.18451e-27
9.03397e-28
9.10616e-28
1.12227e-27
1.06502e-27
1.04569e-27
1.07117e-27
1.35209e-27
1.18548e-27
1.1365e-27
1.10884e-27
)
;
    }
    top
    {
        type            symmetryPlane;
    }
    side1
    {
        type            symmetryPlane;
    }
    side2
    {
        type            symmetryPlane;
    }
    procBoundary12to4
    {
        type            processor;
        value           nonuniform List<scalar> 
50
(
0.000236958
0.000809354
0.000179064
0.000590258
0.000518953
0.000276975
0.0010422
0.000435506
0.00111376
0.000455085
0.000589068
0.000313195
0.000569257
0.000329654
0.00108833
0.00218021
0.00111804
0.000734839
0.000479748
0.000782958
0.000354267
0.00111448
0.000987647
0.00157575
0.00266164
0.00171042
0.00624737
0.00147157
0.000783651
0.0013426
0.00109646
0.000849925
0.00176636
0.00366095
0.00202602
0.00979006
0.00435228
0.0113465
0.00244154
0.000638299
0.00156303
0.001815
0.00312883
0.00407223
0.00418227
0.00687145
0.0158616
0.00574494
0.0110281
0.00302134
)
;
    }
    procBoundary12to11
    {
        type            processor;
        value           nonuniform List<scalar> 
20
(
0.000299603
0.00035893
0.00029308
0.000440453
0.000700789
0.00011661
0.000245914
0.000247102
0.000309709
0.000983751
0.000301104
0.000344625
0.000973074
0.000330556
0.000397296
0.000234499
0.00104435
0.00036408
0.000316775
0.000284046
)
;
    }
    procBoundary12to13
    {
        type            processor;
        value           nonuniform List<scalar> 
20
(
0.00034413
0.000919661
0.000836986
0.000747414
0.000439475
0.00035371
0.00029412
0.00199971
0.000537724
0.000206313
0.000593059
0.00054717
0.000435184
0.000372829
0.000504746
0.000590137
0.000460602
0.000307718
0.000273488
0.00037127
)
;
    }
    procBoundary12to20
    {
        type            processor;
        value           nonuniform List<scalar> 
50
(
0.000278728
0.000417892
0.000368082
0.00068716
0.000563979
0.00103474
0.00116408
0.00157692
0.00130248
0.00149149
0.000424662
0.00034176
0.00050622
0.000338038
0.0012558
0.0018186
0.00094206
0.0017175
0.00105111
0.00186758
0.000422164
0.000435801
0.000679567
0.000677981
0.000614094
0.000449615
0.000515216
0.000339662
0.000807768
0.00168312
0.00018747
0.000429335
0.000324224
0.000698515
0.000699452
0.00117658
0.00037275
0.00063046
0.000742304
0.000722401
0.000229329
0.000670859
0.000326185
0.000356022
0.000352591
0.000262874
0.000370342
0.000325159
0.000424843
0.000428353
)
;
    }
}


// ************************************************************************* //
