/*--------------------------------*- C++ -*----------------------------------*\
| =========                 |                                                 |
| \\      /  F ield         | OpenFOAM: The Open Source CFD Toolbox           |
|  \\    /   O peration     | Version:  2.4.0                                 |
|   \\  /    A nd           | Web:      www.OpenFOAM.org                      |
|    \\/     M anipulation  |                                                 |
\*---------------------------------------------------------------------------*/
FoamFile
{
    version     2.0;
    format      ascii;
    class       volVectorField;
    location    "0.03";
    object      Ur;
}
// * * * * * * * * * * * * * * * * * * * * * * * * * * * * * * * * * * * * * //

dimensions      [0 1 -1 0 0 0 0];

internalField   nonuniform List<vector> 
200
(
(-13.4254 3.61435 3.98204)
(-14.4623 2.84112 4.26443)
(-16.0072 6.06847 3.92859)
(-15.2842 8.51953 5.4232)
(-14.0953 18.0229 5.35478)
(-30.9443 6.72617 8.52167)
(-10.7716 21.3591 18.451)
(-28.3501 16.2315 -2.95593)
(-29.8504 15.9569 -0.885618)
(-29.5855 15.1725 -1.82637)
(-7.32194 13.0163 -5.49474)
(-7.6498 14.9855 4.92808)
(-9.72337 16.4629 4.24595)
(-11.0124 19.2954 3.98476)
(-10.6095 19.9508 4.84884)
(-13.0316 23.1631 4.68544)
(-16.6646 20.3785 5.46943)
(-12.0288 25.684 3.54646)
(-16.4552 22.6647 2.53526)
(-21.0715 24.655 1.50484)
(-3.47658 13.6839 -4.3861)
(-2.92138 10.4717 10.1986)
(-6.76727 17.0034 5.91804)
(-7.95779 17.9869 4.81928)
(-9.9892 21.778 3.8892)
(-10.8007 21.9731 4.45338)
(-12.8444 25.8482 4.02965)
(-15.7155 25.4541 5.26801)
(-13.7542 27.8974 3.08682)
(-17.1053 26.4046 5.09336)
(2.64936 10.0011 -1.44397)
(-1.23742 11.9767 5.96818)
(4.73461 6.47552 7.65089)
(-1.51854 18.911 2.52847)
(0.115591 18.3905 3.68533)
(-8.0536 22.9123 5.18962)
(-7.6808 25.794 3.61209)
(-12.5097 27.7725 5.17404)
(-15.9963 28.3465 5.32594)
(-15.3934 28.9037 3.69561)
(-18.6561 -8.71516 -3.74251)
(-17.9949 -0.162012 -3.9026)
(-20.3184 -0.977242 -5.68832)
(-18.0095 -3.02894 -9.25551)
(-20.978 1.95045 -6.08656)
(-26.7553 1.15338 0.37965)
(-30.5004 2.87718 5.19328)
(-30.4737 10.0353 11.9863)
(-30.6604 15.5791 -6.16467)
(-31.6751 18.8572 -0.774144)
(-8.22468 10.3257 1.60934)
(-8.06838 11.5381 -0.3478)
(-10.4256 11.2791 -0.386105)
(-11.6862 19.4108 0.461396)
(-15.3513 16.0288 -0.869386)
(-18.3073 17.226 -0.312606)
(-20.8401 19.0105 4.85497)
(-23.4718 20.1373 2.39627)
(-21.0015 24.8474 5.57389)
(-25.3525 20.315 -6.59589)
(-1.56309 14.8891 5.76577)
(-3.66096 15.7088 8.58129)
(-4.47798 14.8347 8.85507)
(-5.70353 20.7659 10.1642)
(-5.14062 27.628 7.96369)
(-12.7912 26.473 3.72177)
(-15.4458 22.6287 3.10255)
(-18.6786 25.377 5.06256)
(-19.4297 27.6908 4.48817)
(-18.4293 32.9442 5.17048)
(1.01338 15.4274 5.41214)
(4.20207 19.9624 8.15503)
(4.14463 23.6276 6.59658)
(4.68981 19.2707 5.33432)
(0.862371 24.904 9.06862)
(4.22981 32.3327 11.4076)
(-5.06418 32.0644 4.12729)
(-14.5394 29.3959 2.46669)
(-14.2125 35.9411 -0.790648)
(-17.337 39.5955 3.88856)
(-27.823 1.05708 -6.86864)
(-28.3214 -3.82381 -6.27994)
(-27.1408 11.92 -23.1294)
(-19.8882 20.124 6.74132)
(-12.7843 31.689 7.00168)
(-8.9257 8.12446 14.2666)
(-22.2936 0.00728137 6.28548)
(-31.1187 3.2986 6.75852)
(-25.2678 17.8921 7.39677)
(-30.6884 23.2465 -0.391545)
(-17.9958 1.10979 -4.64732)
(-19.4378 7.83453 4.36165)
(-21.0837 11.0232 20.9376)
(-17.9623 21.688 4.25363)
(-8.4467 32.5662 14.2277)
(-20.0816 15.7774 1.42951)
(-23.7759 11.1783 3.99871)
(-26.3165 13.9518 8.49696)
(-23.3534 22.7038 2.34714)
(-26.8912 25.9534 4.67541)
(-7.20875 16.663 0.913436)
(2.22549 28.5382 3.06256)
(-5.24443 28.4813 10.2998)
(-6.36922 21.3869 18.4415)
(-9.42302 27.775 8.4261)
(-12.4352 25.4471 6.00099)
(-17.0319 23.8548 2.77909)
(-19.4563 24.5411 -0.510377)
(-24.2964 35.2143 4.04794)
(-24.7947 29.6016 5.32182)
(5.95219 21.1081 8.94756)
(4.71121 25.2787 0.786653)
(8.65494 35.474 5.94399)
(7.35323 36.0822 1.1362)
(6.85922 37.2215 -6.22155)
(7.88176 36.3305 -10.598)
(6.10609 38.6907 10.451)
(-2.65561 33.7682 -8.89754)
(-9.67714 53.1441 -7.24073)
(-12.1589 53.2602 0.403379)
(-34.802 4.17901 0.362183)
(-40.4754 6.89347 -28.6432)
(-38.7297 16.2283 7.61618)
(-38.3676 2.3321 -149.322)
(-32.1225 11.3193 34.9628)
(-33.2793 48.3761 73.4706)
(-2.29977 7.19197 43.1685)
(-20.8755 -6.509 11.5078)
(-25.46 5.30376 0.6633)
(-28.3838 14.6929 7.82283)
(-24.3984 14.1093 -2.51111)
(-24.6501 17.0941 5.6611)
(-25.4677 9.58541 -52.5888)
(-22.3987 13.7847 31.3482)
(-21.4745 26.1945 21.3992)
(-18.1877 20.8181 32.5758)
(-21.7744 9.63949 11.2048)
(-25.0913 15.7612 5.655)
(-28.7674 21.6747 10.5298)
(-27.1991 21.7628 2.66756)
(-5.48263 20.9895 13.3674)
(-5.67497 19.2156 -6.89446)
(-3.40974 31.7942 20.9609)
(-2.17124 35.8953 12.7384)
(-9.19105 34.2117 33.2279)
(-21.9991 23.7602 9.48635)
(-25.295 16.0468 8.14483)
(-27.9135 19.7366 9.65455)
(-33.9703 22.8543 -2.518)
(-36.0739 25.8564 3.78213)
(-2.37615 18.8655 1.80853)
(3.75087 25.7283 16.708)
(-5.07525 21.3855 4.06727)
(2.34162 41.4635 6.57479)
(24.381 80.4242 -16.0999)
(-10.3781 37.2966 -3.45324)
(-13.5351 25.2084 -5.9359)
(-9.73926 32.7311 8.89449)
(-22.5162 33.3811 2.78353)
(-25.5754 30.1076 2.58476)
(-29.1756 -5.8292 -39.083)
(-24.692 -1.39007 23.0925)
(-44.5915 -17.4856 -140.816)
(-37.157 -4.3008 56.0415)
(-83.0773 -59.7798 -285.43)
(-82.0455 -23.0744 30.0739)
(-110.51 40.939 119.555)
(-32.155 12.5702 73.146)
(-24.1941 9.25771 10.8817)
(-26.8566 3.60542 -7.0379)
(-17.161 1.67287 17.7145)
(-27.4215 -7.16773 -58.9968)
(-27.2138 -9.18268 37.4255)
(-48.9692 -40.8857 -153.754)
(-51.662 -18.0076 40.3537)
(-60.9286 -2.68964 36.5743)
(-39.3397 11.9287 40.8656)
(-28.4976 19.6537 14.1065)
(-29.1045 13.9645 2.28085)
(-29.3699 17.4913 6.7093)
(-11.4956 11.7958 -9.43286)
(-7.71312 7.6849 23.1967)
(-16.3066 -4.77198 -42.4489)
(-16.5374 9.018 27.2607)
(-21.5766 8.81645 17.7739)
(-26.5839 12.9323 26.9553)
(-27.6096 15.5117 10.0349)
(-28.5435 16.4355 6.52264)
(-31.4658 20.447 7.84198)
(-32.6685 19.4669 2.27601)
(-7.20744 15.4482 13.3043)
(-9.5443 14.3695 -0.0166185)
(-3.82551 20.7022 20.6239)
(-11.1574 17.5195 2.54647)
(-6.53661 31.6661 12.8792)
(-5.86816 42.3916 3.00396)
(-15.6734 37.5682 -0.6678)
(-15.8896 33.1499 -9.48886)
(-26.2232 27.8927 6.59338)
(-28.1677 24.4822 -3.11136)
)
;

boundaryField
{
    inlet
    {
        type            calculated;
        value           nonuniform 0();
    }
    outlet
    {
        type            calculated;
        value           nonuniform 0();
    }
    bottom
    {
        type            calculated;
        value           uniform (0 0 0);
    }
    top
    {
        type            symmetryPlane;
    }
    side1
    {
        type            symmetryPlane;
    }
    side2
    {
        type            symmetryPlane;
    }
    procBoundary12to4
    {
        type            processor;
        value           nonuniform List<vector> 
50
(
(-19.8407 -9.21589 1.18719)
(-18.0453 5.13976 0.484094)
(-22.9879 -5.25252 2.6451)
(-19.6575 4.28376 1.15315)
(-27.7955 -5.04102 4.83453)
(-26.8006 -1.20283 2.68894)
(-30.5533 0.881163 2.87944)
(-34.0759 2.092 2.67781)
(-29.0192 13.8454 3.58545)
(-21.901 19.8307 -6.74923)
(-18.6212 2.95862 -3.05309)
(-20.9784 -14.254 -6.50867)
(-15.3923 -2.85975 -8.00242)
(-19.669 -2.9269 -5.81039)
(-12.6679 9.06721 -10.3871)
(-10.7493 -19.0187 -16.7723)
(-37.9993 -5.65372 11.2446)
(-40.704 1.46456 4.94006)
(-31.2149 10.5649 5.09161)
(-35.2565 19.662 10.77)
(-24.9665 -19.9118 -16.2222)
(-27.0204 -3.46805 -14.5373)
(-23.5129 3.24908 -14.0631)
(-16.0347 19.1466 4.37517)
(-13.498 14.3166 1.0503)
(-6.90975 51.1105 94.1961)
(-3.84553 -6.55175 24.2544)
(-34.8252 -4.6775 16.6411)
(-36.4738 11.1817 8.95116)
(-29.5552 19.2544 19.502)
(-41.6778 -0.185579 -16.158)
(-44.9023 0.911121 -0.947074)
(-46.4204 3.06045 -47.1744)
(-46.6134 13.4987 7.27271)
(-36.1995 -2.43326 -155.418)
(-53.3826 15.5703 0.903626)
(-41.1113 80.3467 239.005)
(0.108666 -8.59193 64.8465)
(-34.7295 -4.18314 12.057)
(-40.8963 0.53204 3.00025)
(-21.3961 -5.97675 15.1612)
(-37.508 -10.5801 -77.4153)
(-36.0688 2.22217 27.9272)
(-57.0824 -23.3628 -188.932)
(-58.2399 -3.49436 60.2143)
(-98.0523 -55.2772 -305.99)
(-100.953 1.13542 -10.187)
(-126.403 69.9647 259.344)
(-17.352 8.10488 95.8385)
(-30.0799 7.22008 14.2086)
)
;
    }
    procBoundary12to11
    {
        type            processor;
        value           nonuniform List<vector> 
20
(
(-11.7423 2.85524 -0.614868)
(-4.91254 13.8353 -8.54405)
(-3.10545 11.8424 -8.33285)
(-0.451343 10.4954 -7.30432)
(-17.3574 4.05266 -1.12587)
(-7.86705 11.5622 1.41936)
(-5.52946 9.07356 5.60451)
(3.82435 14.4985 4.18294)
(-23.3253 -9.83828 -8.50771)
(-13.0622 12.7789 -4.35114)
(0.0417399 15.4366 11.2407)
(-0.308372 12.7541 1.67453)
(-30.4053 8.28846 0.578606)
(-11.1662 16.5561 9.6482)
(-9.61255 16.8126 0.310866)
(-3.52372 14.4082 12.6345)
(-17.0519 -2.01174 12.856)
(-16.0828 12.3117 -8.68821)
(-10.2521 12.7346 13.0021)
(-15.2296 14.4874 -16.4786)
)
;
    }
    procBoundary12to13
    {
        type            processor;
        value           nonuniform List<vector> 
20
(
(-23.4419 23.4955 -3.0171)
(-23.2861 21.7584 1.1913)
(-19.9117 28.8763 3.49896)
(-18.9881 27.3963 6.10341)
(-32.2628 21.3739 -3.09469)
(-30.1197 27.7695 2.60138)
(-23.8675 29.5051 2.23138)
(-18.4242 35.28 1.26832)
(-27.8502 26.0566 5.05891)
(-29.0575 26.6329 -2.35123)
(-28.7994 29.176 2.13006)
(-21.4392 46.3877 11.5929)
(-30.5921 16.6938 -2.51259)
(-30.6233 22.8945 3.60091)
(-33.8724 29.483 8.37758)
(-23.7332 31.4653 1.23216)
(-30.5503 13.8396 5.5992)
(-26.9967 11.4415 -7.89249)
(-33.855 22.6261 3.52978)
(-30.5679 24.6861 4.85592)
)
;
    }
    procBoundary12to20
    {
        type            processor;
        value           nonuniform List<vector> 
50
(
(4.15127 6.97045 -7.70749)
(5.58773 5.14679 2.89238)
(4.58812 14.7358 -1.54921)
(3.26307 15.0868 2.12355)
(4.07215 28.931 -6.44047)
(2.39827 26.391 -0.207249)
(2.85462 28.9967 3.81805)
(-4.85503 35.4527 -2.67185)
(-8.58207 40.4286 2.73771)
(-14.1966 38.1376 3.31081)
(6.87849 13.5806 6.81671)
(7.24699 19.1367 3.25764)
(9.01027 19.507 1.24946)
(9.9677 27.8028 -3.45764)
(9.00398 28.9236 0.198338)
(12.7723 49.793 -14.5899)
(13.4486 63.4751 3.49055)
(-0.233153 46.5831 -11.0538)
(0.136073 58.4874 -28.3995)
(5.75834 62.3947 -25.0564)
(5.67447 17.3376 2.14091)
(9.70142 23.1749 5.43881)
(10.66 22.3193 -1.56026)
(15.0277 30.2412 -5.741)
(11.3162 39.2754 -10.9564)
(13.6849 48.2436 -3.36341)
(3.40128 46.7574 -7.56567)
(15.8553 55.9414 -1.16994)
(0.532738 47.3686 1.96322)
(14.2729 48.8436 3.17754)
(1.87981 17.7138 14.096)
(-1.33986 15.9762 1.76974)
(3.3969 24.2144 11.7189)
(-3.20715 20.2137 -0.153802)
(3.23275 27.5475 -1.45418)
(1.20857 35.4333 -6.60299)
(5.2254 48.8831 -5.69618)
(-9.25372 33.7448 -8.39898)
(9.12308 47.4423 9.14966)
(-10.1438 38.6125 4.49521)
(-13.5779 16.4904 -20.2115)
(-9.11821 15.1757 13.5182)
(-11.7734 16.6216 1.42756)
(-5.88541 23.9473 13.14)
(-9.51504 24.0702 2.85355)
(-8.26576 26.1054 2.70261)
(-11.1867 30.0754 0.0385589)
(-11.199 34.0949 5.35373)
(-14.0719 32.5185 -4.0908)
(-18.5345 31.721 4.0009)
)
;
    }
}


// ************************************************************************* //
