/*--------------------------------*- C++ -*----------------------------------*\
| =========                 |                                                 |
| \\      /  F ield         | OpenFOAM: The Open Source CFD Toolbox           |
|  \\    /   O peration     | Version:  2.4.0                                 |
|   \\  /    A nd           | Web:      www.OpenFOAM.org                      |
|    \\/     M anipulation  |                                                 |
\*---------------------------------------------------------------------------*/
FoamFile
{
    version     2.0;
    format      ascii;
    class       volVectorField;
    location    "0.01";
    object      gradp;
}
// * * * * * * * * * * * * * * * * * * * * * * * * * * * * * * * * * * * * * //

dimensions      [1 -2 -2 0 0 0 0];

internalField   nonuniform List<vector> 
60
(
(-2.64087e+24 -1.46225e+23 -3.79776e+23)
(-1.80091e+24 3.05661e+22 -1.16644e+23)
(-7.63147e+23 9.81608e+22 -4.72667e+21)
(-2.46436e+23 5.7053e+22 -5.49946e+21)
(-1.48711e+23 3.16688e+22 -5.26293e+21)
(-2.06331e+24 -4.44832e+23 -2.98876e+23)
(-1.31214e+24 -6.13952e+22 -1.44559e+23)
(-7.10173e+23 7.7677e+22 -6.88535e+22)
(-3.7942e+23 3.22329e+22 -4.07165e+22)
(-2.37212e+23 2.70954e+22 -2.63854e+22)
(-1.0554e+24 -4.98202e+23 -1.85463e+23)
(-7.55892e+23 -2.16489e+23 -1.30548e+23)
(-5.7589e+23 -8.55266e+22 -7.65622e+22)
(-3.476e+23 -4.12135e+22 -3.53069e+22)
(-1.75507e+23 -1.57347e+22 -2.92005e+22)
(-6.70564e+23 -3.82818e+23 -1.30809e+23)
(-4.86788e+23 -2.58096e+23 -9.7627e+22)
(-3.59622e+23 -1.65247e+23 -6.55995e+22)
(-2.39837e+23 -8.30498e+22 -4.38155e+22)
(-1.75696e+23 -5.84463e+22 -3.21856e+22)
(-8.51584e+23 -1.67853e+22 -6.25262e+23)
(-6.00753e+23 -1.40977e+22 -2.79617e+23)
(-4.07483e+23 -4.44207e+21 -1.06994e+23)
(-2.48152e+23 7.05657e+20 -6.81225e+22)
(-1.45764e+23 -2.12717e+21 -4.40311e+22)
(-8.2267e+23 -1.33932e+23 -5.35413e+23)
(-5.76066e+23 -8.36412e+22 -2.97524e+23)
(-3.77876e+23 -3.72599e+22 -1.65702e+23)
(-2.43523e+23 -1.54591e+22 -1.00957e+23)
(-1.59312e+23 -1.12047e+22 -6.28676e+22)
(-6.02356e+23 -2.29295e+23 -3.534e+23)
(-4.07409e+23 -1.41397e+23 -2.42153e+23)
(-2.71119e+23 -8.03202e+22 -1.5218e+23)
(-1.96042e+23 -4.61718e+22 -8.45634e+22)
(-1.35643e+23 -2.50149e+22 -5.96337e+22)
(-4.28079e+23 -2.07181e+23 -2.47662e+23)
(-2.78117e+23 -1.3366e+23 -1.75924e+23)
(-1.87425e+23 -8.88151e+22 -1.18541e+23)
(-1.32912e+23 -5.55462e+22 -7.85478e+22)
(-9.05994e+22 -3.2323e+22 -5.55259e+22)
(-1.81961e+23 -2.46679e+21 -3.80732e+23)
(-1.42452e+23 1.91526e+21 -2.42647e+23)
(-8.63645e+22 4.22827e+21 -1.55176e+23)
(-4.49558e+22 4.51751e+21 -1.02388e+23)
(-2.91949e+22 1.53048e+21 -7.07695e+22)
(-1.91098e+23 -9.85335e+21 -3.71614e+23)
(-1.29062e+23 -1.45255e+21 -2.4099e+23)
(-8.116e+22 5.37864e+21 -1.57525e+23)
(-5.03514e+22 5.92751e+21 -1.04436e+23)
(-3.71875e+22 2.13134e+21 -6.71955e+22)
(-1.42898e+23 -3.78004e+22 -2.95307e+23)
(-1.11988e+23 -2.19293e+22 -2.08524e+23)
(-7.16044e+22 -1.00702e+22 -1.43126e+23)
(-5.14504e+22 -5.35848e+21 -9.07897e+22)
(-4.15541e+22 -3.98792e+21 -5.66762e+22)
(-1.06057e+23 -6.30516e+22 -2.09009e+23)
(-7.36016e+22 -3.74763e+22 -1.49206e+23)
(-4.80183e+22 -2.33556e+22 -1.03397e+23)
(-3.8187e+22 -1.56865e+22 -6.82278e+22)
(-3.31809e+22 -1.15568e+22 -4.51499e+22)
)
;

boundaryField
{
    inlet
    {
        type            zeroGradient;
    }
    outlet
    {
        type            zeroGradient;
    }
    bottom
    {
        type            zeroGradient;
    }
    top
    {
        type            symmetryPlane;
    }
    side1
    {
        type            symmetryPlane;
    }
    side2
    {
        type            symmetryPlane;
    }
    procBoundary2to1
    {
        type            processor;
        value           nonuniform List<vector> 
12
(
(-4.08759e+24 -2.58214e+23 -6.75797e+23)
(-3.0635e+24 -8.54135e+23 -5.32261e+23)
(-1.58871e+24 -9.12864e+23 -2.72123e+23)
(-9.33972e+23 -6.02057e+23 -1.73403e+23)
(-1.21361e+24 -2.8555e+22 -1.04803e+24)
(-1.18354e+24 -2.08255e+23 -8.82591e+23)
(-8.34642e+23 -3.38692e+23 -5.27308e+23)
(-5.80763e+23 -3.12208e+23 -3.52332e+23)
(-2.40813e+23 6.48398e+21 -5.85958e+23)
(-2.47985e+23 -2.09838e+22 -5.54794e+23)
(-1.29328e+23 -6.44498e+22 -4.30355e+23)
(-1.16727e+23 -8.96267e+22 -3.00645e+23)
)
;
    }
    procBoundary2to3
    {
        type            processor;
        value           nonuniform List<vector> 
12
(
(-9.21354e+22 1.28028e+22 -4.57849e+21)
(-1.53578e+23 1.88348e+22 -1.63729e+22)
(-1.2791e+23 -1.04556e+22 -2.28491e+22)
(-1.27706e+23 -4.04893e+22 -1.72229e+22)
(-9.04722e+22 -6.06825e+21 -3.07737e+22)
(-9.76676e+22 -1.03983e+22 -3.84497e+22)
(-8.13764e+22 -1.18155e+22 -4.2703e+22)
(-6.08602e+22 -1.99821e+22 -3.40119e+22)
(-2.54562e+22 5.21239e+20 -4.89528e+22)
(-2.86129e+22 -2.52082e+20 -4.26121e+22)
(-3.12983e+22 -3.35521e+21 -3.71372e+22)
(-2.61667e+22 -8.57236e+21 -3.26026e+22)
)
;
    }
    procBoundary2to18
    {
        type            processor;
        value           nonuniform List<vector> 
15
(
(-3.67473e+23 -3.2651e+23 -7.56902e+22)
(-3.20751e+23 -2.32949e+23 -5.27761e+22)
(-2.25799e+23 -1.5942e+23 -2.8792e+22)
(-1.33997e+23 -1.0635e+23 -1.81172e+22)
(-9.03864e+22 -7.5795e+22 -1.28735e+22)
(-2.45261e+23 -1.71789e+23 -1.53546e+23)
(-1.70677e+23 -1.13786e+23 -1.04266e+23)
(-1.1489e+23 -7.70492e+22 -6.34978e+22)
(-8.30578e+22 -5.11579e+22 -4.24613e+22)
(-6.45143e+22 -3.4464e+22 -3.03278e+22)
(-3.85974e+22 -5.98622e+22 -1.31758e+23)
(-3.25962e+22 -3.84247e+22 -9.52761e+22)
(-2.80248e+22 -2.75432e+22 -6.63501e+22)
(-2.78528e+22 -2.23952e+22 -4.8548e+22)
(-2.73259e+22 -1.59248e+22 -3.57831e+22)
)
;
    }
    procBoundary2to66
    {
        type            processor;
        value           nonuniform List<vector> 
20
(
(2.47011e+23 -2.19573e+21 -2.0074e+23)
(1.21027e+23 -1.1447e+22 -1.42947e+23)
(4.1347e+22 -8.19984e+21 -9.84021e+22)
(2.19499e+22 -2.57225e+21 -6.32717e+22)
(2.52271e+22 3.5912e+21 -4.18772e+22)
(1.81502e+23 2.74856e+21 -1.83172e+23)
(1.09019e+23 -2.90444e+22 -1.30953e+23)
(5.90966e+22 -1.79798e+22 -9.88405e+22)
(4.55319e+22 3.09753e+21 -7.33307e+22)
(3.85254e+22 1.13446e+22 -5.12262e+22)
(1.07503e+23 3.08731e+22 -1.48997e+23)
(7.95702e+22 5.45822e+21 -1.20388e+23)
(1.05631e+23 6.28477e+21 -1.04629e+23)
(8.05986e+22 1.17617e+22 -7.8557e+22)
(3.60454e+22 1.0258e+22 -5.15524e+22)
(5.65271e+22 5.44977e+22 -1.14673e+23)
(5.9842e+22 4.75361e+22 -9.95733e+22)
(7.17035e+22 3.40269e+22 -8.59556e+22)
(5.34785e+22 1.20405e+22 -5.84508e+22)
(2.34011e+22 1.10584e+21 -3.55976e+22)
)
;
    }
}


// ************************************************************************* //
