/*--------------------------------*- C++ -*----------------------------------*\
| =========                 |                                                 |
| \\      /  F ield         | OpenFOAM: The Open Source CFD Toolbox           |
|  \\    /   O peration     | Version:  2.4.0                                 |
|   \\  /    A nd           | Web:      www.OpenFOAM.org                      |
|    \\/     M anipulation  |                                                 |
\*---------------------------------------------------------------------------*/
FoamFile
{
    version     2.0;
    format      ascii;
    class       volVectorField;
    location    "0.01";
    object      Ub;
}
// * * * * * * * * * * * * * * * * * * * * * * * * * * * * * * * * * * * * * //

dimensions      [0 1 -1 0 0 0 0];

internalField   nonuniform List<vector> 
200
(
(3.0642 -0.296006 0.827023)
(2.56105 1.11266 0.517942)
(1.26349 -0.324981 0.820301)
(0.416908 1.26767 -2.75147)
(0.385543 -1.60984 -1.48015)
(1.65579 0.144946 -2.96363)
(1.6953 -0.998005 -1.63738)
(2.94676 0.239084 -10.3844)
(2.9573 -0.933113 -3.58898)
(4.44318 -0.876954 -22.3274)
(4.6302 1.81325 -0.356147)
(3.04637 0.0149504 0.41658)
(2.25226 3.11191 -2.7471)
(1.27057 0.113904 -1.25655)
(1.34514 1.9307 -3.19093)
(1.42024 -2.82086 -3.36927)
(3.6894 -0.255998 -3.51516)
(4.77325 0.809955 -0.666876)
(5.05281 1.38688 -10.0483)
(5.57173 1.01532 -0.987015)
(3.82328 -0.15881 0.301238)
(3.71352 7.34021 -4.86722)
(1.94063 1.32204 -0.248727)
(1.82493 6.45383 -6.42671)
(2.34569 0.0173363 -0.882726)
(1.88769 -1.68087 -3.87081)
(3.67905 -2.12727 -8.68265)
(7.13266 2.55893 -2.21801)
(7.62936 2.20832 0.803876)
(8.39477 -1.07752 -3.06264)
(4.25348 6.78982 -2.90804)
(4.35392 1.42978 0.489848)
(3.27092 11.895 -7.6126)
(5.57583 0.44472 0.71353)
(4.54239 -0.000236284 -2.25132)
(2.93709 -1.48291 -4.62008)
(3.95497 0.754116 -8.74401)
(6.40153 1.65439 0.386831)
(5.34675 -1.32604 4.40846)
(6.4402 -2.3729 1.03102)
(6.0765 0.426683 1.1874)
(5.75408 0.803814 2.09683)
(6.07133 0.305656 1.33116)
(5.30927 1.97814 1.57636)
(5.24232 -0.466389 1.28878)
(3.37132 -0.167051 -2.7277)
(5.01687 0.467705 4.37463)
(5.78692 -1.288 2.72437)
(6.00354 -1.00189 -4.1449)
(5.74872 -2.70491 -0.283809)
(6.33692 -0.127912 1.17098)
(7.37956 0.0250794 0.775187)
(5.83354 0.847706 2.026)
(5.38998 -0.0997818 1.01585)
(2.52211 -0.794232 -3.54766)
(3.50274 1.79749 -2.40712)
(0.502793 -5.50482 -16.4798)
(5.17086 -3.59635 -0.124568)
(6.04488 -1.79543 1.51481)
(5.7184 -2.93618 -6.11037)
(6.90689 0.179704 -0.777455)
(7.2395 -0.0986404 1.31839)
(6.28465 3.6129 -0.162754)
(5.70754 1.83986 3.51758)
(4.64498 0.142672 2.77259)
(3.02339 -2.5288 -6.3645)
(3.40931 2.76778 -5.72549)
(0.595614 -4.94729 -12.0719)
(4.75197 -4.41036 -0.0872432)
(5.4071 -3.13867 0.72704)
(6.1569 -2.79962 -2.62583)
(6.94866 2.38795 0.61038)
(7.71027 1.98064 4.67652)
(6.44525 0.793929 -0.294563)
(5.38992 4.89129 10.2689)
(4.85585 -1.70651 3.78153)
(3.83116 -2.03026 0.952156)
(3.93753 -3.47947 0.425101)
(2.59702 -2.7315 -0.129269)
(3.3136 -4.36109 -2.51915)
(7.52537 -0.0800883 0.358693)
(7.1481 0.48149 1.83292)
(9.14984 -3.01114 -2.3156)
(7.98204 -0.0580357 1.42519)
(5.85654 2.37827 3.47593)
(3.72222 2.30019 3.63988)
(1.68638 0.443691 -0.873399)
(3.38025 1.60492 -0.946649)
(4.4007 -0.164598 -0.587314)
(4.73024 -0.448963 -7.32913)
(7.61513 -0.551197 0.378016)
(8.15528 -1.04727 -0.143848)
(8.48908 -0.981156 0.520948)
(5.31488 0.633481 3.73734)
(5.31325 0.405618 6.16462)
(3.71386 -0.631204 -3.26455)
(3.44191 4.60553 -5.40727)
(0.0968807 -5.18559 -13.9623)
(4.18803 -3.20868 -2.9058)
(4.29888 -1.41649 0.143457)
(6.7022 -1.33628 -2.01351)
(8.00003 -0.227868 -2.17798)
(9.54804 3.71844 -0.247697)
(7.76243 -1.29681 -0.47779)
(5.62715 -2.17809 5.3011)
(4.88998 -0.422211 5.9138)
(4.89191 -2.06672 -2.50177)
(4.68811 0.822346 -7.46294)
(1.46944 -6.14072 -9.44721)
(5.74573 -3.67091 -0.608982)
(6.43147 -1.20905 2.19093)
(5.85189 -4.51666 -6.34161)
(7.06997 2.87672 -3.57168)
(6.3032 7.06598 9.75943)
(5.7418 -1.92283 4.18985)
(5.88471 -2.19304 2.46511)
(6.12552 -2.44512 1.30349)
(5.99688 -1.58041 1.85114)
(7.72931 -7.48254 -2.00297)
(4.09611 -1.86169 0.24997)
(7.75595 0.121914 -1.13904)
(7.86503 -0.0257898 -0.683877)
(8.16747 -0.0959417 3.86241)
(7.23367 1.21233 5.34956)
(6.15617 0.383778 13.9417)
(6.92965 0.787284 4.04056)
(8.14417 0.415001 -4.47921)
(0.703997 2.23833 -5.39956)
(2.40521 2.89421 -2.80089)
(2.84509 1.25465 -1.13091)
(7.79419 0.124819 -1.38486)
(8.45926 -0.660167 -1.26279)
(6.3392 -0.620892 2.73548)
(6.79454 -0.852119 10.4671)
(6.20916 -1.33248 4.78007)
(6.05414 0.258848 12.1343)
(6.21617 1.70894 -2.52848)
(5.69001 5.77433 -3.699)
(2.69445 -0.507726 -0.830395)
(4.61485 -0.621009 -2.78479)
(7.67669 -0.499534 -2.73127)
(7.51762 0.903177 -3.98157)
(7.81057 -2.18767 -3.72472)
(5.18739 -3.53573 6.24098)
(6.37947 -3.81399 13.4755)
(8.98234 -0.686933 0.471193)
(7.7308 4.25258 -1.22374)
(7.51394 -0.917483 0.348415)
(2.42536 16.3965 -11.4973)
(4.08426 -2.48348 -0.763683)
(7.09799 -0.128322 0.507535)
(7.02454 -0.561661 -2.98847)
(5.74359 2.74786 -0.618612)
(6.98368 -2.80235 4.18201)
(7.43229 -2.20302 2.88907)
(6.29357 1.19741 2.01249)
(7.62904 0.117804 -0.0863275)
(2.98508 8.53912 -5.8907)
(7.31281 -3.6572 -0.31178)
(9.54436 -1.92696 0.162756)
(3.75445 0.248638 -1.01278)
(3.26322 -0.293317 5.13262)
(3.68912 0.199785 0.614161)
(4.85514 -1.53733 12.013)
(10.5561 -0.159466 4.541)
(9.03889 1.42831 -2.64562)
(10.4062 0.0821428 25.874)
(11.6568 -3.08374 0.014712)
(15.0675 -4.37727 -22.0476)
(3.82006 3.49934 -5.89661)
(4.18212 0.475803 3.66114)
(4.31177 0.570705 0.841815)
(4.04564 -0.470976 15.4031)
(8.15145 0.307824 -0.644168)
(4.40429 -0.379706 41.9949)
(16.3658 1.78968 -12.6509)
(10.6989 0.904912 0.78931)
(10.4776 -0.551732 2.00814)
(10.3598 4.1271 -3.01768)
(6.63925 1.46142 -0.961197)
(5.27661 1.0011 -0.47165)
(4.55718 0.791881 3.54615)
(5.18187 1.13517 0.514275)
(4.93548 0.909634 10.4579)
(9.25157 2.33823 -3.58067)
(10.1323 -0.073827 5.31228)
(10.3776 3.11744 0.486349)
(11.6974 0.136565 8.93475)
(11.4526 0.730083 0.213703)
(7.30907 8.77777 -4.5744)
(5.52843 0.132605 -0.472908)
(5.47168 0.196681 -1.04461)
(5.25238 -0.923865 2.48306)
(5.58424 0.0260793 -1.0306)
(7.1913 -1.22805 10.5499)
(7.46915 -0.352087 -6.45843)
(8.86848 -2.87487 24.8121)
(11.3067 2.46293 5.21215)
(6.80856 7.11429 -2.66756)
(9.9925 2.07353 0.444281)
)
;

boundaryField
{
    inlet
    {
        type            fixedValue;
        value           nonuniform 0();
    }
    outlet
    {
        type            zeroGradient;
    }
    bottom
    {
        type            fixedValue;
        value           uniform (0 0 0);
    }
    top
    {
        type            symmetryPlane;
    }
    side1
    {
        type            symmetryPlane;
    }
    side2
    {
        type            symmetryPlane;
    }
    procBoundary2to1
    {
        type            processor;
        value           nonuniform List<vector> 
20
(
(3.74355 0.225679 0.674365)
(4.7018 -0.543151 0.729697)
(4.90194 1.58766 -0.413499)
(3.96812 -0.0940188 0.893)
(5.99117 0.248523 1.21405)
(6.57867 -0.245942 0.680656)
(6.26301 -0.899087 -0.00279599)
(5.33464 -2.04604 0.135242)
(7.13283 0.228169 0.531752)
(7.41966 -0.449154 1.26245)
(6.84007 -0.528659 0.388043)
(6.70449 -1.9559 -1.84638)
(7.43088 0.109315 -1.39387)
(8.094 0.024639 -1.21069)
(7.65211 -0.144979 -0.93602)
(6.6749 -0.782395 0.935408)
(4.01813 0.233733 -1.05487)
(4.46708 0.831726 -0.773513)
(5.24952 0.843317 -0.0887743)
(5.66182 0.360379 -0.826896)
)
;
    }
    procBoundary2to3
    {
        type            processor;
        value           nonuniform List<vector> 
20
(
(8.48158 -0.820948 -3.6968)
(7.82436 -0.977024 -17.012)
(9.70691 0.318146 -0.542507)
(7.02359 -2.16369 3.57618)
(4.95554 -3.18467 -16.4824)
(4.90843 -3.06187 -0.966629)
(5.04804 -6.5672 -4.07715)
(3.62488 -3.54829 1.35942)
(3.91416 -1.46375 -0.514827)
(5.08519 -2.57602 -12.4124)
(3.85882 -1.84488 1.38906)
(4.06975 -4.7084 -7.65209)
(3.42219 0.655503 -4.38237)
(3.91532 -0.237233 -0.0265745)
(5.22533 -1.76611 0.262512)
(6.45352 0.478012 1.48093)
(3.97584 1.27183 -0.832496)
(7.15565 0.424034 -1.67188)
(8.71686 3.04282 0.313643)
(8.81812 -1.51969 2.53588)
)
;
    }
    procBoundary2to10
    {
        type            processor;
        value           nonuniform List<vector> 
50
(
(4.83017 0.840048 1.22132)
(5.88206 9.19535 -3.24074)
(6.06624 1.52421 2.55802)
(9.52633 3.92971 2.63427)
(3.77398 1.55475 3.26517)
(4.7125 -1.07848 -1.9019)
(5.83109 -0.769416 -2.882)
(6.4698 -1.56494 2.03772)
(6.36452 2.3013 0.124392)
(5.83606 -7.74373 22.7988)
(4.91419 -2.93657 -3.71706)
(7.20263 -1.39378 0.61239)
(8.41952 1.74012 1.00829)
(5.72421 2.8869 6.48229)
(5.01205 -0.590352 2.53588)
(5.4931 -3.23741 -0.685204)
(5.08833 -3.06484 -0.0901921)
(4.79785 -1.21893 1.88404)
(3.8568 -2.64611 1.00429)
(4.00161 -0.535026 -1.07336)
(5.89861 -1.30801 -1.26777)
(6.49986 1.29965 -0.161131)
(4.80105 1.99348 3.05618)
(6.06559 -0.107849 2.6652)
(6.85665 -0.578865 0.144525)
(5.96229 -1.37515 -0.943996)
(5.58869 -0.945255 -0.462289)
(8.69295 -2.39949 1.26589)
(6.72049 -0.925841 2.32451)
(6.38561 -1.39112 -4.21241)
(5.27946 -0.0303408 -0.573681)
(5.18842 -1.03608 -1.29613)
(6.72406 -2.68411 0.581469)
(7.5032 -2.97724 2.60427)
(8.04972 -2.24334 3.84495)
(7.35408 0.0303681 0.197348)
(4.95617 -1.58686 -9.1581)
(5.3656 0.219972 -0.306113)
(9.12723 -0.08271 -0.378488)
(7.53967 0.2922 0.180361)
(5.9844 0.192207 -0.229341)
(6.0567 -0.161839 -0.267755)
(5.76372 -0.0292305 -0.0823147)
(5.99841 0.188125 3.22569)
(6.53193 1.68777 0.739996)
(6.34094 -2.41087 16.4368)
(9.26686 11.6702 17.9988)
(6.01546 5.32767 -0.538792)
(7.15913 1.31606 -0.245353)
(7.58364 0.131228 0.33952)
)
;
    }
}


// ************************************************************************* //
