/*--------------------------------*- C++ -*----------------------------------*\
| =========                 |                                                 |
| \\      /  F ield         | OpenFOAM: The Open Source CFD Toolbox           |
|  \\    /   O peration     | Version:  2.4.0                                 |
|   \\  /    A nd           | Web:      www.OpenFOAM.org                      |
|    \\/     M anipulation  |                                                 |
\*---------------------------------------------------------------------------*/
FoamFile
{
    version     2.0;
    format      ascii;
    class       volScalarField;
    location    "0.13";
    object      p;
}
// * * * * * * * * * * * * * * * * * * * * * * * * * * * * * * * * * * * * * //

dimensions      [1 -1 -2 0 0 0 0];

internalField   nonuniform List<scalar> 
200
(
6.21078e+27
6.2028e+27
6.19936e+27
6.19435e+27
6.19459e+27
6.18301e+27
6.18428e+27
6.17601e+27
6.17289e+27
6.15465e+27
6.19633e+27
6.19309e+27
6.18984e+27
6.18684e+27
6.18851e+27
6.18018e+27
6.178e+27
6.17949e+27
6.18425e+27
6.16292e+27
6.18539e+27
6.17874e+27
6.1764e+27
6.17745e+27
6.17813e+27
6.18129e+27
6.18174e+27
6.18745e+27
6.17776e+27
6.1597e+27
6.16312e+27
6.16051e+27
6.16066e+27
6.16383e+27
6.16403e+27
6.16812e+27
6.17617e+27
6.17212e+27
6.15547e+27
6.1113e+27
6.19852e+27
6.19199e+27
6.18796e+27
6.18793e+27
6.18793e+27
6.17377e+27
6.16467e+27
6.1662e+27
6.17593e+27
6.15094e+27
6.18447e+27
6.18674e+27
6.1822e+27
6.1852e+27
6.18448e+27
6.18357e+27
6.16856e+27
6.18028e+27
6.16345e+27
6.13426e+27
6.16195e+27
6.16617e+27
6.16996e+27
6.171e+27
6.16973e+27
6.1587e+27
6.16397e+27
6.16771e+27
6.16399e+27
6.07182e+27
6.13184e+27
6.13885e+27
6.14439e+27
6.14608e+27
6.14459e+27
6.13428e+27
6.13166e+27
6.11826e+27
6.07495e+27
6.0005e+27
6.18747e+27
6.17948e+27
6.1753e+27
6.18402e+27
6.18631e+27
6.18946e+27
6.18183e+27
6.18292e+27
6.16975e+27
6.15528e+27
6.16254e+27
6.16361e+27
6.16698e+27
6.17223e+27
6.17873e+27
6.1861e+27
6.18848e+27
6.16618e+27
6.15527e+27
6.09928e+27
6.13028e+27
6.13754e+27
6.146e+27
6.15448e+27
6.15736e+27
6.15133e+27
6.14593e+27
6.13552e+27
6.11721e+27
6.06372e+27
6.07525e+27
6.08661e+27
6.10496e+27
6.11949e+27
6.12018e+27
6.11973e+27
6.10718e+27
6.08345e+27
6.04832e+27
6.11292e+27
6.18132e+27
6.18237e+27
6.18657e+27
6.19195e+27
6.19884e+27
6.20929e+27
6.20157e+27
6.18432e+27
6.18591e+27
6.17878e+27
6.15513e+27
6.15818e+27
6.17443e+27
6.19164e+27
6.20559e+27
6.20772e+27
6.19508e+27
6.1956e+27
6.17872e+27
6.17172e+27
6.10063e+27
6.11997e+27
6.14481e+27
6.17111e+27
6.19107e+27
6.19186e+27
6.18626e+27
6.16836e+27
6.18039e+27
6.0834e+27
5.99677e+27
6.02228e+27
6.07058e+27
6.12846e+27
6.15386e+27
6.16433e+27
6.13222e+27
6.17763e+27
6.06893e+27
5.99992e+27
6.17566e+27
6.17875e+27
6.18735e+27
6.18605e+27
6.19999e+27
6.20073e+27
6.19529e+27
6.19044e+27
6.18693e+27
6.18118e+27
6.13282e+27
6.13851e+27
6.15415e+27
6.17382e+27
6.19147e+27
6.19812e+27
6.19502e+27
6.18154e+27
6.17022e+27
6.15524e+27
6.05987e+27
6.07612e+27
6.09917e+27
6.13451e+27
6.15854e+27
6.17794e+27
6.1778e+27
6.1617e+27
6.12107e+27
6.10079e+27
5.94345e+27
5.93538e+27
5.97021e+27
6.05706e+27
6.12732e+27
6.14798e+27
6.16023e+27
6.12338e+27
6.07437e+27
6.01604e+27
)
;

boundaryField
{
    inlet
    {
        type            zeroGradient;
    }
    outlet
    {
        type            fixedValue;
        value           nonuniform 0();
    }
    bottom
    {
        type            zeroGradient;
    }
    top
    {
        type            symmetryPlane;
    }
    side1
    {
        type            symmetryPlane;
    }
    side2
    {
        type            symmetryPlane;
    }
    procBoundary20to12
    {
        type            processor;
        value           nonuniform List<scalar> 
50
(
6.21972e+27
6.2138e+27
6.20452e+27
6.20202e+27
6.19219e+27
6.19267e+27
6.17661e+27
6.17053e+27
6.16e+27
6.14091e+27
6.20762e+27
6.20177e+27
6.19549e+27
6.19282e+27
6.19696e+27
6.18411e+27
6.17776e+27
6.17576e+27
6.17717e+27
6.1416e+27
6.20338e+27
6.1993e+27
6.19596e+27
6.1935e+27
6.19792e+27
6.19779e+27
6.19565e+27
6.19442e+27
6.19226e+27
6.1862e+27
6.20443e+27
6.20395e+27
6.2041e+27
6.20191e+27
6.19674e+27
6.19514e+27
6.1904e+27
6.18745e+27
6.18607e+27
6.19898e+27
6.19883e+27
6.20153e+27
6.19789e+27
6.19559e+27
6.19621e+27
6.1965e+27
6.19552e+27
6.19243e+27
6.1921e+27
6.19305e+27
)
;
    }
    procBoundary20to19
    {
        type            processor;
        value           nonuniform List<scalar> 
20
(
6.2145e+27
6.20725e+27
6.19263e+27
6.17302e+27
6.20548e+27
6.18298e+27
6.16596e+27
6.12743e+27
6.18774e+27
6.17005e+27
6.12709e+27
6.06021e+27
6.1829e+27
6.14981e+27
6.09444e+27
5.97364e+27
6.17424e+27
6.12771e+27
6.03721e+27
5.94395e+27
)
;
    }
    procBoundary20to21
    {
        type            processor;
        value           nonuniform List<scalar> 
20
(
6.12392e+27
6.13415e+27
6.10963e+27
6.03863e+27
6.11678e+27
6.07774e+27
5.9816e+27
5.98757e+27
6.11787e+27
6.02802e+27
6.04111e+27
5.97179e+27
6.16842e+27
6.08715e+27
5.98376e+27
6.08345e+27
6.17393e+27
6.14711e+27
6.06837e+27
5.95964e+27
)
;
    }
    procBoundary20to28
    {
        type            processor;
        value           nonuniform List<scalar> 
50
(
6.14242e+27
6.14006e+27
6.13914e+27
6.13976e+27
6.13929e+27
6.13916e+27
6.13765e+27
6.12589e+27
6.09783e+27
6.05742e+27
6.0886e+27
6.09404e+27
6.10165e+27
6.1085e+27
6.10723e+27
6.10357e+27
6.09225e+27
6.04807e+27
5.97837e+27
5.98687e+27
5.98639e+27
5.99789e+27
6.02662e+27
6.05722e+27
6.06175e+27
6.06152e+27
6.0382e+27
6.02249e+27
5.97579e+27
5.9125e+27
5.81975e+27
5.7941e+27
5.83145e+27
5.94602e+27
6.04144e+27
6.01887e+27
6.10625e+27
5.98277e+27
5.95497e+27
5.93386e+27
5.5439e+27
5.03808e+27
5.49836e+27
5.95699e+27
6.13889e+27
6.09768e+27
6.12263e+27
6.11725e+27
6.03784e+27
5.94096e+27
)
;
    }
}


// ************************************************************************* //
