/*--------------------------------*- C++ -*----------------------------------*\
| =========                 |                                                 |
| \\      /  F ield         | OpenFOAM: The Open Source CFD Toolbox           |
|  \\    /   O peration     | Version:  2.4.0                                 |
|   \\  /    A nd           | Web:      www.OpenFOAM.org                      |
|    \\/     M anipulation  |                                                 |
\*---------------------------------------------------------------------------*/
FoamFile
{
    version     2.0;
    format      ascii;
    class       volSymmTensorField;
    location    "0.15";
    object      B;
}
// * * * * * * * * * * * * * * * * * * * * * * * * * * * * * * * * * * * * * //

dimensions      [0 2 -2 0 0 0 0];

internalField   nonuniform List<symmTensor> 
200
(
(1.6886e+29 1.79899e+28 2.13197e+28 2.48966e+29 1.21577e+28 1.69397e+29)
(1.18565e+29 1.59865e+28 1.32213e+28 1.73554e+29 3.23762e+27 1.15092e+29)
(9.42799e+28 1.3983e+28 8.66328e+27 1.31371e+29 -4.233e+26 9.20903e+28)
(7.84071e+28 1.29113e+28 5.60131e+27 1.04691e+29 -7.37647e+26 7.46744e+28)
(5.75191e+28 1.09937e+28 3.22184e+27 7.47484e+28 -6.38322e+26 5.32998e+28)
(4.96124e+28 8.31232e+27 1.34022e+27 6.00493e+28 -5.17536e+26 4.53821e+28)
(3.63947e+28 6.14765e+27 3.87655e+26 4.16943e+28 -2.28219e+26 3.12053e+28)
(3.66614e+28 5.60684e+27 4.57756e+26 3.92812e+28 -1.89606e+26 3.01643e+28)
(2.98085e+28 4.30385e+27 4.98694e+26 3.0569e+28 1.42945e+26 2.4595e+28)
(2.82108e+28 3.79416e+27 3.05694e+26 2.75206e+28 3.45146e+26 2.31245e+28)
(4.95444e+28 -1.45417e+27 9.50216e+27 7.76354e+28 8.07057e+27 5.29681e+28)
(3.55778e+28 -1.43696e+26 9.15755e+27 6.69256e+28 7.97846e+27 4.23285e+28)
(3.27385e+28 1.59373e+27 4.87478e+27 5.37996e+28 3.16182e+27 3.58637e+28)
(2.36487e+28 2.83641e+27 4.05214e+27 4.22275e+28 2.98123e+27 2.63144e+28)
(2.10653e+28 3.38264e+27 2.09861e+27 3.35804e+28 1.87976e+27 2.17425e+28)
(1.58287e+28 3.21558e+27 1.24563e+27 2.44352e+28 1.56973e+27 1.53415e+28)
(1.45729e+28 3.13496e+27 9.09979e+26 1.97727e+28 1.29417e+27 1.24912e+28)
(1.09138e+28 2.59418e+27 9.23359e+26 1.36428e+28 8.70493e+26 8.23526e+27)
(1.09307e+28 2.35854e+27 6.21887e+26 1.13461e+28 8.15515e+26 8.01102e+27)
(1.28814e+28 1.91364e+27 1.42329e+26 1.17162e+28 5.15895e+26 9.95473e+27)
(1.18238e+28 -3.19131e+27 4.29774e+27 2.58083e+28 6.23916e+27 1.99668e+28)
(1.19968e+28 -9.41075e+26 3.37383e+27 2.27483e+28 3.90732e+27 1.65677e+28)
(9.42674e+27 -5.42524e+26 2.9032e+27 1.76945e+28 3.00593e+27 1.19144e+28)
(1.02783e+28 6.36663e+25 3.29197e+27 1.78109e+28 2.56931e+27 1.2502e+28)
(7.38972e+27 4.5492e+26 1.82727e+27 1.35048e+28 2.14373e+27 9.78395e+27)
(5.3435e+27 6.0523e+26 1.43635e+27 9.57514e+27 1.77662e+27 6.27422e+27)
(3.48822e+27 4.53705e+26 8.11878e+26 6.07451e+27 1.36485e+27 3.90171e+27)
(2.47948e+27 3.92498e+26 5.47733e+26 3.36519e+27 8.87895e+26 1.43602e+27)
(4.38566e+27 2.56571e+26 2.66911e+26 3.54891e+27 6.58559e+26 2.62941e+27)
(7.79811e+27 1.54136e+26 -7.94308e+25 5.60766e+27 5.88631e+26 5.11672e+27)
(1.73809e+28 -1.70719e+27 2.50135e+27 2.38586e+28 3.583e+27 2.47042e+28)
(1.1417e+28 -1.50962e+27 2.21188e+27 1.71746e+28 3.08435e+27 1.76672e+28)
(1.23147e+28 -8.78863e+26 1.42434e+27 1.7109e+28 2.16557e+27 1.80429e+28)
(5.34476e+27 -7.15233e+26 1.14296e+27 9.37046e+27 1.36925e+27 9.71862e+27)
(3.71534e+27 -2.13585e+26 9.14335e+26 6.58504e+27 1.22399e+27 6.2176e+27)
(2.28079e+27 -2.61672e+26 4.60004e+26 4.13298e+27 6.68872e+26 4.33346e+27)
(1.00177e+27 -1.49997e+26 3.9032e+26 2.3999e+27 4.69865e+26 2.08193e+27)
(7.99868e+26 -2.21938e+26 1.85942e+26 1.71773e+27 3.98582e+26 1.65136e+27)
(4.77829e+26 -2.8174e+26 2.91304e+25 1.09445e+27 3.10116e+26 6.85453e+26)
(1.13247e+27 -6.35128e+26 8.56877e+25 1.51671e+27 3.12145e+26 1.20514e+27)
(2.10908e+29 -1.97562e+28 2.36402e+28 2.84936e+29 3.03213e+28 2.65847e+29)
(1.68096e+29 -9.92038e+27 2.12554e+28 2.46529e+29 2.40218e+28 2.22307e+29)
(1.19233e+29 -4.19911e+27 1.46531e+28 1.49501e+29 1.59857e+28 1.37503e+29)
(6.83588e+28 -1.11923e+27 1.04745e+28 9.19889e+28 1.29067e+28 8.35638e+28)
(6.16331e+28 -3.00794e+26 8.10472e+27 7.65894e+28 7.99828e+27 7.04314e+28)
(4.82375e+28 -8.31266e+26 5.83839e+27 5.7125e+28 6.24162e+27 5.28881e+28)
(1.87646e+28 -2.22672e+27 3.91129e+27 3.15967e+28 4.61584e+27 2.78943e+28)
(1.11043e+28 -8.01912e+26 3.30749e+27 1.94015e+28 3.3708e+27 1.68845e+28)
(1.97856e+28 9.39664e+26 2.87468e+27 2.46102e+28 2.9276e+27 2.1169e+28)
(6.82293e+27 -4.1704e+25 2.06129e+27 1.13404e+28 1.83371e+27 9.35533e+27)
(1.39254e+29 -2.31746e+28 1.07745e+28 1.60892e+29 2.87622e+28 1.64714e+29)
(1.07196e+29 -1.24784e+28 8.886e+27 1.25198e+29 1.94354e+28 1.21533e+29)
(6.60864e+28 -9.3257e+27 6.13655e+27 8.39531e+28 1.29474e+28 7.92445e+28)
(4.5959e+28 -5.2069e+27 5.86013e+27 5.80439e+28 9.703e+27 5.47051e+28)
(2.61509e+28 -3.22411e+27 4.22713e+27 3.78624e+28 7.32014e+27 3.59415e+28)
(1.182e+28 -3.16985e+27 2.4528e+27 2.03813e+28 4.05392e+27 2.02964e+28)
(1.47966e+28 -3.40423e+27 1.50269e+27 1.8923e+28 4.12056e+27 1.91101e+28)
(1.60556e+28 -4.69091e+26 1.47193e+27 1.67269e+28 2.94671e+27 1.63645e+28)
(5.4233e+27 2.4533e+25 1.251e+27 7.95969e+27 2.53674e+27 7.74614e+27)
(2.84589e+27 -1.40427e+26 4.16972e+26 5.10732e+27 1.79512e+27 5.01268e+27)
(5.84378e+28 -6.47286e+27 -3.88885e+27 6.0058e+28 9.68496e+27 7.12567e+28)
(3.08695e+28 -5.46817e+27 -2.68849e+27 3.3837e+28 7.58044e+27 4.2218e+28)
(2.99754e+28 -3.30186e+27 -1.32278e+27 3.19319e+28 6.17854e+27 3.78739e+28)
(1.97989e+28 -4.39328e+27 2.1214e+26 2.12061e+28 6.88106e+27 2.80818e+28)
(1.27544e+28 -3.6007e+27 -4.93661e+26 1.50492e+28 4.74959e+27 1.97379e+28)
(1.37015e+28 -3.098e+27 -6.05201e+26 1.34056e+28 3.42968e+27 1.74093e+28)
(7.2578e+27 -2.30947e+27 -1.08612e+27 7.75974e+27 2.81629e+27 1.08979e+28)
(7.56253e+27 -1.71504e+27 -1.21882e+27 9.25056e+27 2.95247e+27 1.13486e+28)
(3.22926e+27 -6.31199e+26 -8.31704e+26 3.91066e+27 1.91431e+27 6.07212e+27)
(5.79727e+27 -7.08631e+26 -1.40765e+27 6.29773e+27 1.7202e+27 8.13023e+27)
(2.16704e+28 -3.06543e+27 -3.82731e+27 2.13564e+28 3.13243e+27 3.30302e+28)
(2.16084e+28 -4.55454e+27 -3.3563e+27 2.22399e+28 2.8725e+27 3.26268e+28)
(1.12483e+28 -3.83756e+27 -2.78287e+27 1.51365e+28 2.81806e+27 2.39418e+28)
(9.08723e+28 -1.22122e+27 -6.3162e+27 9.05445e+28 1.10647e+27 1.02916e+29)
(1.50297e+28 -9.74292e+26 -2.87627e+27 1.38571e+28 2.92326e+26 2.15294e+28)
(7.31869e+27 -1.50901e+27 -2.23632e+27 7.94127e+27 9.24932e+26 1.26673e+28)
(7.55176e+27 -4.93447e+26 -2.38632e+27 6.65286e+27 7.55304e+26 1.04376e+28)
(5.60455e+27 -5.04284e+25 -1.76263e+27 5.55639e+27 8.30108e+26 7.77986e+27)
(5.35369e+27 5.39194e+25 -1.58617e+27 4.7298e+27 5.17674e+26 6.84656e+27)
(3.82989e+27 -1.93832e+26 -1.13556e+27 3.37449e+27 4.82321e+26 4.83272e+27)
(2.32953e+29 -4.00856e+28 -2.49954e+28 3.57709e+29 1.20022e+28 3.78208e+29)
(1.09444e+29 -2.3058e+28 -1.31167e+28 1.80813e+29 1.04506e+28 1.95817e+29)
(4.78165e+28 -1.44144e+28 -3.89353e+27 9.40239e+28 8.12089e+27 9.9755e+28)
(3.13748e+28 -8.5214e+27 -2.02578e+27 6.12021e+28 4.41129e+27 6.72425e+28)
(1.84948e+28 -4.81288e+27 -2.29934e+26 3.47169e+28 3.30131e+27 4.08807e+28)
(1.13209e+28 -2.85772e+27 -1.22129e+27 2.21846e+28 2.31815e+27 2.65093e+28)
(1.02725e+28 -1.81118e+27 -1.3652e+27 1.8944e+28 1.91906e+27 2.17478e+28)
(9.31833e+27 -1.24507e+27 -5.08604e+26 1.64713e+28 1.75511e+27 1.80139e+28)
(7.48474e+27 -7.36295e+26 5.80604e+24 1.38113e+28 1.37056e+27 1.45974e+28)
(9.82397e+27 -4.17804e+26 3.14444e+26 1.60604e+28 1.41263e+27 1.57806e+28)
(3.95341e+29 -5.5993e+28 -1.7123e+28 3.98787e+29 3.20245e+27 4.2125e+29)
(2.59077e+29 -3.79586e+28 -1.05021e+28 2.7791e+29 4.62184e+27 2.86551e+29)
(1.4428e+29 -2.81868e+28 -6.56987e+27 1.61811e+29 4.8897e+27 1.66576e+29)
(1.07013e+29 -1.98667e+28 -2.85814e+27 1.27556e+29 3.17454e+27 1.26529e+29)
(6.82415e+28 -1.54676e+28 -2.23797e+27 8.67561e+28 2.28042e+27 8.41325e+28)
(3.42373e+28 -9.17984e+27 -2.31348e+27 4.5207e+28 1.68605e+27 4.43573e+28)
(1.86667e+28 -6.301e+27 -1.81731e+27 3.04551e+28 1.56219e+27 2.94453e+28)
(1.55705e+28 -4.03998e+27 -1.09131e+27 2.39377e+28 1.63683e+27 2.34275e+28)
(9.15468e+27 -2.62299e+27 -5.02794e+26 1.56623e+28 1.30585e+27 1.48815e+28)
(6.93224e+27 -1.49545e+27 -1.88152e+26 1.1453e+28 9.66935e+26 1.124e+28)
(1.62608e+29 -2.22352e+28 -1.15988e+28 1.45008e+29 -2.05121e+27 1.68674e+29)
(1.61231e+29 -1.85758e+28 -1.09693e+28 1.49923e+29 -2.15361e+25 1.65281e+29)
(7.67831e+28 -1.05224e+28 -3.88006e+27 7.49423e+28 1.00504e+27 8.10758e+28)
(7.86746e+28 -1.01437e+28 -3.51478e+27 7.71266e+28 4.92686e+27 8.28696e+28)
(5.0126e+28 -7.99033e+27 -1.95036e+27 4.99536e+28 1.58593e+27 5.29316e+28)
(5.13235e+28 -7.27409e+27 -2.07907e+27 5.41026e+28 1.0054e+27 5.45734e+28)
(2.89331e+28 -4.71629e+27 -1.34737e+27 3.14367e+28 8.82183e+26 3.11851e+28)
(1.78433e+28 -4.09482e+27 -1.2637e+27 2.06152e+28 1.04839e+27 2.03208e+28)
(1.27902e+28 -2.78895e+27 -7.68884e+26 1.44495e+28 7.05904e+26 1.42292e+28)
(7.6049e+27 -1.88346e+27 -8.44572e+26 8.78473e+27 3.97531e+26 8.74965e+27)
(2.45145e+28 -1.60914e+27 -1.39556e+28 2.3387e+28 -5.61812e+27 3.6152e+28)
(2.4501e+28 -5.60283e+27 -9.09962e+27 1.61163e+28 -1.74857e+27 2.78633e+28)
(1.35962e+27 -1.06627e+28 6.06833e+27 2.84849e+27 -2.69531e+27 8.83129e+27)
(2.395e+28 -8.44297e+27 -4.01128e+27 2.01948e+28 -2.36981e+27 2.78804e+28)
(1.88572e+29 -1.22388e+27 -1.77718e+28 1.73073e+29 -2.82943e+27 1.82269e+29)
(1.8137e+28 6.21799e+26 -5.55215e+27 1.36079e+28 -1.07415e+27 1.86457e+28)
(1.24064e+28 -9.80272e+26 -3.66486e+27 9.23257e+27 -7.50896e+26 1.28519e+28)
(3.91819e+27 -1.05238e+27 -1.87211e+27 9.83339e+26 -1.46525e+26 3.36106e+27)
(3.53149e+27 -2.49954e+26 -1.49991e+27 1.61969e+27 -1.25284e+26 3.80229e+27)
(2.2342e+27 -5.09925e+26 -1.12406e+27 5.70851e+26 3.29498e+26 2.69084e+27)
(2.57851e+29 -1.13423e+28 -5.14677e+28 2.51887e+29 -2.31869e+28 2.75593e+29)
(2.02051e+29 -1.3967e+28 -3.91392e+28 2.05044e+29 -5.43786e+27 2.18832e+29)
(1.09503e+29 -1.14831e+28 -2.32397e+28 1.11897e+29 -2.98767e+27 1.1897e+29)
(3.33541e+28 -9.11533e+27 -1.20371e+28 3.94927e+28 -1.95126e+27 4.55027e+28)
(3.00517e+28 -4.42621e+27 -9.09678e+27 3.26364e+28 -4.54977e+27 3.94725e+28)
(2.99423e+28 -2.81721e+27 -8.04028e+27 2.96978e+28 -2.99277e+27 3.70179e+28)
(2.12418e+28 -2.13551e+27 -5.7797e+27 1.93397e+28 -1.16987e+26 2.45146e+28)
(1.29441e+28 -1.49668e+27 -3.38908e+27 1.22651e+28 2.62867e+26 1.51889e+28)
(9.44205e+27 -1.19939e+27 -2.25289e+27 9.27457e+27 4.0306e+26 1.12625e+28)
(4.61536e+27 -7.04842e+26 -1.01523e+27 4.71052e+27 4.15415e+26 5.96452e+27)
(1.65906e+29 -4.72478e+27 -1.99455e+28 1.49769e+29 -2.27365e+28 1.66178e+29)
(1.88744e+29 -4.47728e+27 -1.74288e+28 1.759e+29 -1.25379e+28 1.88219e+29)
(8.76889e+28 -8.05571e+27 -1.18408e+28 8.25757e+28 -2.59143e+27 8.78914e+28)
(5.24786e+28 -5.79707e+27 -7.35872e+27 5.06548e+28 -1.45882e+27 5.27462e+28)
(3.20285e+28 -3.61045e+27 -5.98969e+27 3.26657e+28 -1.49789e+27 3.30401e+28)
(1.80695e+28 -2.70076e+27 -5.72638e+27 1.88363e+28 -9.2311e+26 1.96143e+28)
(1.53646e+28 -1.3924e+27 -3.7803e+27 1.56414e+28 -4.14176e+26 1.62286e+28)
(9.53116e+27 -9.93678e+26 -2.827e+27 9.22427e+27 -1.91083e+26 9.92656e+27)
(4.80217e+27 -7.89037e+26 -1.32822e+27 4.16887e+27 4.08012e+25 5.02428e+27)
(2.81348e+27 -4.89042e+26 -8.2032e+26 2.41415e+27 9.9539e+25 2.8978e+27)
(9.90496e+28 -1.30238e+27 -1.48788e+28 6.68416e+28 -2.49095e+28 7.41753e+28)
(1.62102e+29 -9.02496e+26 -1.63595e+28 1.42658e+29 -8.82974e+27 1.53028e+29)
(8.77281e+28 -2.11708e+27 -9.87122e+27 7.19731e+28 -4.36488e+27 7.73663e+28)
(3.11917e+28 -1.97759e+27 -3.98312e+27 2.42083e+28 -2.07441e+27 2.82684e+28)
(1.56085e+28 -2.02914e+27 -3.3259e+27 1.05156e+28 -6.00335e+26 1.25574e+28)
(5.56315e+27 -1.4262e+27 -1.49093e+27 4.08528e+27 -4.06265e+25 4.57079e+27)
(5.81908e+27 -1.55449e+27 -1.56786e+27 4.67055e+27 -1.73181e+26 4.75087e+27)
(2.99348e+27 -9.7716e+26 -6.05783e+26 2.67351e+27 -2.06511e+26 2.54667e+27)
(2.56029e+27 -8.91973e+26 -4.10625e+26 2.14894e+27 -1.23338e+26 1.81268e+27)
(1.06871e+27 -4.25465e+26 -2.41126e+26 1.32e+27 -8.18737e+25 8.09293e+26)
(1.08685e+29 3.45049e+27 -1.44611e+28 1.08677e+29 -1.56865e+28 1.03588e+29)
(6.74934e+28 1.63846e+27 -1.51205e+28 6.06051e+28 -8.809e+27 5.42024e+28)
(1.71583e+28 -8.39989e+27 -8.58303e+27 5.06082e+27 -4.66601e+27 4.22017e+27)
(2.00718e+28 -3.72816e+27 6.1434e+26 6.75646e+27 -3.67867e+27 -4.39187e+27)
(4.41745e+28 8.18193e+26 -6.51057e+27 3.12541e+28 -1.68254e+27 3.20981e+28)
(1.86937e+28 -6.0065e+26 -6.94388e+27 1.25432e+28 -1.98976e+27 1.2856e+28)
(1.90307e+28 -5.45171e+26 -2.63727e+27 1.5085e+28 -3.75851e+26 1.52898e+28)
(1.7765e+28 -2.35359e+26 -1.42992e+27 1.42771e+28 -1.41504e+26 1.41162e+28)
(1.32099e+27 -8.7833e+25 -1.9407e+26 3.6846e+26 1.04402e+25 4.02613e+26)
(4.21326e+27 -5.75974e+26 -3.93866e+26 2.04159e+27 4.29541e+26 3.05278e+27)
(6.64229e+29 2.4291e+28 -2.98268e+28 5.66653e+29 -1.47825e+28 5.75274e+29)
(2.78314e+29 1.99261e+28 -1.54402e+28 2.18262e+29 7.93973e+24 2.30475e+29)
(4.47526e+28 -1.86583e+27 -7.70745e+27 4.12259e+28 -1.25732e+27 3.565e+28)
(4.11251e+28 -6.64068e+27 -2.94728e+27 3.51114e+28 5.23523e+26 2.73233e+28)
(1.11661e+28 -7.55553e+27 -8.5983e+26 1.76991e+27 -4.07312e+27 9.99761e+26)
(1.20831e+29 1.27499e+28 -4.80091e+27 1.25155e+29 -6.82817e+27 1.11686e+29)
(5.18297e+28 4.82555e+27 -5.37119e+27 4.40062e+28 -1.71709e+27 4.37831e+28)
(8.59827e+27 -5.16452e+26 -2.12277e+27 4.78149e+27 -4.99132e+25 6.11141e+27)
(2.90923e+27 -3.01734e+26 -1.10611e+27 1.5403e+27 -3.40919e+26 2.40065e+27)
(2.38678e+27 -1.87405e+26 -4.26873e+26 1.46561e+27 4.81677e+25 2.09923e+27)
(2.33777e+29 1.54893e+28 -9.14693e+27 1.58754e+29 -2.18728e+28 1.51338e+29)
(1.73819e+29 2.12193e+28 -1.28798e+28 1.40402e+29 -1.05219e+28 1.41353e+29)
(6.97106e+29 2.19233e+28 -7.89083e+27 6.64315e+29 -5.51329e+25 6.61657e+29)
(3.17639e+27 -5.15331e+27 -2.89589e+27 -4.37768e+27 -1.65901e+26 -1.62439e+27)
(4.70437e+27 -1.47481e+27 -1.70209e+27 1.29035e+28 -1.04108e+27 5.639e+27)
(2.79039e+28 9.22676e+26 -1.80216e+27 3.06673e+28 -1.68214e+27 2.53663e+28)
(7.49886e+27 -8.71821e+25 -1.46997e+27 5.39199e+27 -4.30443e+26 4.64636e+27)
(6.37127e+27 -4.45552e+26 -1.19016e+27 4.27148e+27 -4.93625e+26 4.58144e+27)
(3.59271e+27 -5.05079e+25 -4.95123e+26 2.00644e+27 1.86781e+25 2.31542e+27)
(2.32165e+27 -1.23602e+26 -3.86823e+26 1.20164e+27 -1.1057e+26 1.65302e+27)
(-1.06335e+28 1.54085e+28 4.75104e+26 -1.02323e+28 -2.34764e+28 -3.5853e+28)
(4.25511e+29 4.50373e+28 -1.81598e+28 4.41419e+29 -1.25167e+28 3.72883e+29)
(4.51736e+29 -5.32485e+27 -1.19922e+28 3.91714e+29 -2.93624e+27 3.93647e+29)
(6.89922e+28 -4.76863e+27 -3.14331e+27 4.96661e+28 -1.03467e+27 5.20141e+28)
(8.61309e+28 1.81732e+27 -2.57497e+27 7.51207e+28 -1.0708e+26 7.61355e+28)
(7.43802e+27 -2.38275e+26 -1.15657e+27 4.04903e+27 2.07075e+26 3.9825e+27)
(2.80323e+27 -7.60968e+26 -9.03545e+26 1.67371e+27 -4.54292e+26 1.62461e+27)
(3.44729e+27 -4.79295e+26 -4.27353e+26 2.01355e+27 -9.34543e+25 1.80469e+27)
(2.25011e+27 -3.30215e+26 -3.979e+26 1.28898e+27 -1.56051e+26 1.16238e+27)
(1.96202e+27 -1.10906e+26 -1.27418e+26 8.92851e+26 8.1081e+25 7.86723e+26)
(1.1897e+30 6.2032e+28 -1.92467e+28 1.15253e+30 -1.54694e+28 1.12031e+30)
(3.46355e+29 4.65643e+28 -1.42466e+28 3.18279e+29 -9.31562e+27 3.07736e+29)
(5.61885e+28 -8.93499e+27 -1.09604e+27 9.88911e+26 1.45186e+27 1.75319e+28)
(4.18416e+28 -3.83228e+27 1.68024e+27 2.08334e+28 -3.23779e+27 5.59492e+27)
(5.1315e+28 3.74136e+27 -4.84853e+27 3.03408e+28 -1.3094e+27 2.06834e+28)
(8.1911e+28 1.90504e+27 -5.01878e+27 6.70493e+28 -8.91036e+26 6.52909e+28)
(3.02133e+28 -1.37783e+26 -1.6838e+27 2.13609e+28 -1.21971e+26 2.20308e+28)
(1.25832e+28 -5.62324e+26 -4.51306e+26 8.39544e+27 -1.29523e+26 9.53902e+27)
(7.19632e+27 -2.49647e+26 4.52171e+25 4.94522e+27 2.00327e+26 5.021e+27)
(2.28993e+27 -1.86798e+26 -1.61344e+26 1.35891e+27 -1.742e+26 1.21483e+27)
)
;

boundaryField
{
    inlet
    {
        type            calculated;
        value           nonuniform 0();
    }
    outlet
    {
        type            calculated;
        value           nonuniform 0();
    }
    bottom
    {
        type            calculated;
        value           nonuniform List<symmTensor> 
40
(
(-1.11402e+13 7.5432e+12 7.12136e+12 2.24483e+13 -7.61096e+12 -1.68463e+13)
(-5.99795e+12 -8.91734e+11 1.07077e+13 1.12282e+13 2.36644e+11 -6.5634e+12)
(-5.6812e+12 -2.32529e+12 7.22865e+12 4.50833e+12 1.30169e+12 -2.9313e+12)
(-4.19238e+12 -1.80988e+12 8.35821e+12 2.67498e+12 3.86034e+12 9.24093e+11)
(-9.38737e+12 8.31423e+12 5.80633e+12 1.92114e+13 -8.53104e+12 -1.70469e+13)
(-6.48436e+12 -7.71342e+10 7.35625e+12 1.03428e+13 -2.31609e+12 -6.32698e+12)
(-4.54255e+12 -8.4922e+11 7.24095e+12 5.15955e+12 1.2518e+12 -3.58261e+12)
(-4.16951e+12 -1.68821e+12 6.3927e+12 2.26919e+12 2.39321e+12 -2.18628e+11)
(-7.26666e+12 8.73596e+12 2.98648e+12 1.59064e+13 -1.13791e+13 -1.41079e+13)
(-5.86685e+12 1.23618e+12 6.41023e+12 1.04692e+13 -2.65613e+12 -6.56462e+12)
(-3.99097e+12 -5.76414e+11 5.84875e+12 4.79321e+12 4.82822e+10 -5.3905e+12)
(-3.7976e+12 -1.1289e+12 6.0613e+12 2.36069e+12 2.72349e+12 -7.61279e+11)
(-5.73782e+12 9.48467e+12 1.29884e+12 1.35702e+13 -9.86717e+12 -1.29718e+13)
(-5.15054e+12 2.16004e+12 3.73219e+12 8.9979e+12 -3.80352e+12 -6.50983e+12)
(-3.25075e+12 6.61339e+10 6.39281e+12 4.57379e+12 2.992e+11 -3.5113e+12)
(-3.49146e+12 -9.68879e+11 4.70528e+12 1.96191e+12 8.17944e+11 -1.41786e+12)
(-3.75417e+12 9.12862e+12 -1.02481e+12 1.05523e+13 -9.73504e+12 -1.1284e+13)
(-3.74613e+12 3.16363e+12 2.88818e+12 7.95871e+12 -2.97006e+12 -6.45905e+12)
(-3.33548e+12 5.54636e+11 4.05721e+12 4.12e+12 -3.85887e+11 -3.73414e+12)
(-2.37135e+12 -3.20938e+11 4.25898e+12 1.94073e+12 1.39383e+12 -7.31438e+11)
(-2.00566e+12 8.64096e+12 -2.05853e+12 8.84395e+12 -7.56499e+12 -9.95959e+12)
(-2.71149e+12 3.45544e+12 1.16237e+12 6.53692e+12 -3.32618e+12 -7.45011e+12)
(-1.91491e+12 7.50441e+11 3.78642e+12 3.33203e+12 5.8336e+11 -2.83955e+12)
(-1.93794e+12 -4.57751e+11 3.10778e+12 1.30216e+12 -2.31167e+09 -1.66747e+12)
(-8.85638e+10 7.71898e+12 -3.60876e+12 6.56557e+12 -6.90725e+12 -1.09877e+13)
(-9.61352e+11 3.725e+12 1.89927e+12 5.21715e+12 -1.55093e+12 -6.9247e+12)
(-1.09637e+12 6.2561e+11 2.34688e+12 2.46984e+12 -3.37749e+11 -3.38207e+12)
(-1.38683e+12 -2.87786e+11 3.1801e+12 1.29565e+12 5.74005e+11 -9.90105e+11)
(1.89093e+12 7.34393e+12 -1.50211e+12 5.32236e+12 -4.21296e+12 -1.02734e+13)
(-6.92691e+09 3.60502e+12 1.14193e+12 3.78532e+12 -1.76703e+12 -6.62596e+12)
(2.5729e+11 5.96265e+11 2.64629e+12 1.60282e+12 4.27783e+11 -3.45158e+12)
(-1.12751e+12 -4.94786e+11 2.16494e+12 9.18754e+11 -4.9085e+11 -1.58625e+12)
(2.46544e+12 6.99366e+12 -1.41943e+12 3.70121e+12 -3.28739e+12 -9.16199e+12)
(1.47751e+12 3.80036e+12 1.69992e+12 2.1469e+12 -1.63209e+11 -5.93934e+12)
(2.07708e+12 4.78891e+11 2.23786e+12 5.15294e+11 -6.77607e+11 -4.16723e+12)
(-6.73497e+11 -7.33904e+11 2.09969e+12 9.32753e+11 6.81198e+10 -1.43896e+12)
(3.51125e+12 6.85271e+12 -1.16834e+11 2.2647e+12 -3.45656e+11 -8.06849e+12)
(3.13051e+12 4.33111e+12 1.23382e+12 4.93267e+11 -2.41838e+11 -6.28934e+12)
(3.8224e+12 3.15594e+11 2.90275e+12 -6.62553e+11 3.48632e+11 -4.73818e+12)
(-5.59472e+11 -1.81264e+12 1.72706e+12 5.37162e+11 -9.60364e+11 -2.44434e+12)
)
;
    }
    top
    {
        type            symmetryPlane;
    }
    side1
    {
        type            symmetryPlane;
    }
    side2
    {
        type            symmetryPlane;
    }
    procBoundary14to6
    {
        type            processor;
        value           nonuniform List<symmTensor> 
50
(
(-2.94369e+28 1.18601e+29 4.97287e+28 7.95701e+28 2.104e+28 -7.56737e+28)
(-1.30977e+28 7.3564e+28 1.87269e+28 4.46757e+28 -6.03948e+27 -3.94917e+28)
(-3.83402e+27 5.51541e+28 9.34091e+27 2.90837e+28 -3.65462e+27 -2.73794e+28)
(1.01793e+27 4.31709e+28 2.38956e+27 1.81004e+28 -4.66281e+27 -1.96372e+28)
(2.35716e+27 2.7442e+28 1.55994e+26 1.00499e+28 -2.855e+27 -1.31545e+28)
(3.44199e+27 1.95872e+28 -5.88487e+26 3.84541e+27 -2.03585e+27 -8.87406e+27)
(4.51242e+27 1.37025e+28 -1.11841e+27 1.55735e+27 -1.71686e+27 -7.35285e+27)
(3.47268e+27 8.50015e+27 -6.25865e+26 1.03954e+27 -9.55964e+26 -5.2076e+27)
(3.47855e+27 7.43969e+27 -4.62789e+26 1.89051e+27 -5.42468e+26 -5.03227e+27)
(2.47052e+27 4.94029e+27 -2.01468e+26 1.23168e+27 3.86735e+24 -3.63853e+27)
(-1.42121e+29 1.56171e+28 6.84882e+28 5.85631e+28 4.73972e+28 2.13831e+28)
(-3.32084e+28 8.25867e+27 3.33479e+28 2.9643e+28 3.24983e+28 7.52484e+27)
(-2.73354e+27 1.41633e+28 2.18387e+28 1.64572e+28 2.41762e+28 2.88546e+27)
(-1.59506e+28 8.75736e+27 1.80394e+28 1.34305e+28 1.63407e+28 9.10191e+26)
(-8.8141e+27 5.38325e+27 1.26981e+28 8.73362e+27 1.12855e+28 7.05403e+26)
(-7.08424e+27 4.84139e+27 1.01655e+28 7.62586e+27 8.69574e+27 6.49538e+25)
(-5.24383e+27 2.88511e+27 6.40209e+27 4.92313e+27 5.7999e+27 9.87194e+25)
(-3.82402e+27 2.321e+27 4.60486e+27 3.6115e+27 4.21378e+27 -2.78124e+26)
(-2.04431e+27 2.36097e+27 3.06972e+27 2.54735e+27 2.99662e+27 -3.25428e+26)
(-1.31179e+27 2.19163e+27 3.09666e+27 2.37575e+27 1.82378e+27 -8.94692e+26)
(-7.72604e+28 -2.83609e+28 -1.30654e+28 1.55927e+28 2.52613e+28 5.69835e+28)
(-4.34442e+28 -1.81049e+28 -5.65928e+26 9.63119e+27 2.02463e+28 3.32298e+28)
(-2.83105e+28 -8.83055e+27 -1.507e+27 7.15789e+27 1.15836e+28 2.17629e+28)
(-1.96232e+28 -5.27421e+27 1.04549e+27 3.99847e+27 8.05965e+27 1.41257e+28)
(-1.24145e+28 -2.11992e+27 1.04658e+27 2.31232e+27 6.09426e+27 1.07353e+28)
(-8.80739e+27 -9.53624e+26 7.34616e+26 1.47776e+27 4.89735e+27 7.42994e+27)
(-5.4836e+27 -4.2373e+26 5.0668e+26 9.28564e+26 3.41285e+27 4.43364e+27)
(-4.10645e+27 -2.30701e+26 4.02154e+26 7.11306e+26 2.69379e+27 3.37833e+27)
(-3.37917e+27 -8.8246e+25 8.90892e+25 9.41614e+26 2.00331e+27 2.33282e+27)
(-3.03884e+27 1.11395e+26 5.71757e+26 8.23366e+26 1.60411e+27 1.87701e+27)
(-1.44881e+28 -3.84032e+28 -8.59169e+28 -1.46491e+28 -1.11467e+28 2.75904e+28)
(-1.50437e+28 -2.27115e+28 -5.23939e+28 2.30174e+26 -7.21624e+27 1.8988e+28)
(-1.30751e+28 -1.77676e+28 -2.32956e+28 -7.33305e+26 -1.69298e+27 8.33207e+27)
(-5.14416e+27 -1.00514e+28 -1.53179e+28 2.38578e+27 2.26795e+27 5.98008e+27)
(-5.60628e+27 -8.59489e+27 -7.11601e+27 -1.92457e+27 -2.25984e+26 5.01524e+27)
(-3.39764e+27 -5.48701e+27 -1.09123e+28 -4.11377e+27 -2.76688e+27 9.51632e+27)
(-3.10501e+27 -4.5047e+27 -6.19586e+27 -2.08867e+27 1.35762e+27 4.203e+27)
(-2.02489e+27 -3.12715e+27 -3.56289e+27 -1.06729e+27 1.3858e+27 2.35206e+27)
(-1.87271e+27 -1.99027e+27 -2.46521e+27 -6.1812e+26 1.01314e+27 1.87587e+27)
(-1.70959e+27 -1.22806e+27 -1.23334e+27 -3.67819e+26 8.92518e+26 1.6579e+27)
(5.97984e+28 -4.29042e+28 -5.39822e+28 -6.2466e+28 4.24759e+26 -5.68971e+28)
(5.36919e+28 8.06979e+27 -2.90166e+28 -6.34494e+27 -6.11057e+27 -1.83556e+28)
(3.12703e+28 1.34006e+28 -2.614e+28 3.22849e+27 -1.13691e+27 -1.34173e+28)
(8.54112e+27 -7.00458e+27 -1.13633e+28 -7.80795e+27 1.64998e+27 -4.51314e+27)
(-1.01062e+28 2.59565e+28 1.02633e+28 4.92375e+28 2.34281e+28 -6.58031e+27)
(2.64824e+27 -1.03728e+28 -4.77963e+27 -4.79513e+27 -5.4028e+27 -9.09395e+27)
(1.8025e+28 6.21402e+27 -9.39111e+27 -5.6559e+27 2.04307e+26 -2.32993e+27)
(1.1493e+27 -8.39203e+26 -3.40121e+27 -1.85298e+27 -2.74803e+26 -1.9952e+26)
(6.70646e+25 -1.1242e+27 -1.04528e+27 -7.54256e+26 5.4607e+25 2.79774e+26)
(5.54039e+26 -4.5575e+26 -7.06153e+26 -3.62361e+26 -2.01919e+26 4.89783e+26)
)
;
    }
    procBoundary14to13
    {
        type            processor;
        value           nonuniform List<symmTensor> 
20
(
(-3.56756e+28 2.65602e+28 5.04485e+28 7.8193e+28 2.54307e+28 -3.60543e+28)
(-2.21824e+28 -8.23836e+27 1.42473e+28 2.65213e+28 1.52505e+28 -7.13421e+27)
(-9.34524e+27 -4.54888e+27 6.17359e+27 8.1372e+27 8.40885e+27 2.03724e+27)
(-4.71146e+27 -3.53192e+27 3.46336e+27 1.92879e+27 4.13078e+27 3.76469e+27)
(-5.79691e+28 -4.79581e+28 5.68029e+28 5.06755e+28 5.86855e+28 1.98219e+28)
(-2.39302e+28 -3.09569e+28 6.98053e+27 7.43974e+27 3.72547e+28 1.61196e+28)
(-5.03105e+27 -9.84908e+27 -7.31559e+27 -5.50975e+27 1.18698e+28 1.08722e+28)
(-8.19566e+27 -3.96747e+27 -4.17834e+27 -4.39919e+27 2.7152e+27 1.11523e+28)
(-1.52014e+29 -8.05292e+28 -4.32054e+28 2.70702e+28 1.34938e+28 6.36673e+28)
(-8.33669e+27 -8.21184e+28 -3.13837e+28 -8.74476e+27 -9.14497e+26 2.21142e+28)
(2.20571e+28 -4.87462e+28 -3.13593e+28 -3.77777e+28 -6.50359e+27 1.37431e+28)
(-8.91037e+27 -5.02142e+27 -1.56072e+28 -1.2411e+28 -6.46335e+27 8.15133e+27)
(-6.98858e+27 -1.98257e+28 -6.42266e+28 -2.44357e+28 -2.931e+28 1.27916e+28)
(2.18534e+28 -9.72577e+27 -3.59174e+28 -1.9988e+28 -3.72135e+28 2.32774e+27)
(1.68079e+28 -1.40781e+28 -2.78502e+28 -1.45427e+28 -2.91397e+28 -8.58906e+27)
(1.40409e+28 1.04511e+28 -2.9225e+28 3.88224e+27 -3.2539e+28 -4.87188e+27)
(1.55661e+29 -3.64035e+28 -1.0079e+29 -1.11979e+29 -1.56061e+28 -6.74899e+28)
(1.77183e+29 -9.68925e+27 -4.39825e+28 -5.05385e+28 -4.71621e+28 -5.24085e+28)
(1.11695e+29 1.57601e+28 -1.77922e+28 -5.94287e+28 -1.53538e+28 -4.66833e+28)
(2.06228e+28 5.85298e+27 -1.62671e+28 -1.00415e+28 -3.20354e+28 -4.06816e+28)
)
;
    }
    procBoundary14to15
    {
        type            processor;
        value           nonuniform List<symmTensor> 
20
(
(1.35423e+27 2.92843e+27 1.83026e+26 6.8123e+26 2.81371e+26 -2.26157e+27)
(1.71521e+27 1.89248e+27 -2.4277e+26 -5.13301e+26 4.37246e+26 -1.48332e+27)
(8.04705e+26 -2.48282e+27 -2.45641e+27 -1.65353e+27 7.39135e+26 -1.48735e+27)
(-5.70264e+26 -9.54303e+26 -1.82347e+26 2.03678e+26 3.18952e+26 -2.70234e+26)
(-1.23434e+27 3.20142e+26 1.81243e+27 1.78663e+27 1.1236e+27 -1.47742e+26)
(-1.63267e+27 -4.68852e+25 -4.43097e+26 4.88849e+26 1.09251e+27 6.06073e+26)
(-1.69036e+27 -5.54014e+26 -1.83875e+27 -4.58593e+26 1.19086e+27 1.47246e+27)
(-4.91179e+26 -2.92865e+26 -7.65471e+26 -2.61575e+26 5.40578e+26 6.30448e+26)
(-2.66859e+27 -9.19145e+25 7.14577e+26 1.27825e+27 8.45569e+26 1.11283e+27)
(-2.24974e+27 -1.26302e+27 -1.96721e+26 1.00544e+27 7.44071e+26 7.30957e+26)
(-5.32205e+26 -1.30155e+27 -7.12552e+26 1.6898e+26 4.2385e+26 6.19352e+26)
(-1.69003e+26 -2.216e+26 -6.77262e+26 -7.10936e+26 -1.42828e+26 5.52347e+26)
(-5.80163e+26 -3.88002e+26 -4.39786e+26 -9.755e+25 2.77025e+26 5.6932e+26)
(-4.0972e+25 -3.05364e+26 -4.07486e+26 -1.87696e+26 6.63346e+25 1.89688e+26)
(-1.63239e+25 -1.87222e+26 -1.58298e+26 2.05215e+26 -7.67928e+25 -1.26096e+26)
(6.70551e+25 -3.53552e+26 -1.56147e+26 -8.4289e+25 2.1537e+25 -1.72158e+26)
(1.66393e+26 -1.57905e+26 -3.13995e+26 -3.06459e+26 -1.05366e+26 2.03971e+26)
(4.41726e+26 -5.0555e+25 -1.43387e+26 -3.02692e+26 9.87678e+25 -3.57186e+24)
(4.84937e+26 8.06013e+24 -1.62338e+26 -2.28018e+26 -8.6683e+25 -2.27439e+26)
(6.80257e+26 2.26462e+24 -7.58085e+25 -2.25618e+26 -1.27547e+26 -3.8543e+26)
)
;
    }
    procBoundary14to22
    {
        type            processor;
        value           nonuniform List<symmTensor> 
50
(
(-2.0044e+27 -1.31896e+27 1.93638e+27 5.33786e+26 1.65722e+27 1.16272e+27)
(-1.58288e+27 -8.22025e+26 1.55475e+27 8.38607e+26 1.34257e+27 7.64237e+26)
(-1.27821e+27 -5.91065e+26 1.10376e+27 5.20066e+26 1.02124e+27 5.39361e+26)
(-1.09391e+27 -3.5808e+26 9.14291e+26 7.70109e+26 8.25618e+26 3.84143e+26)
(-7.98467e+26 -2.38933e+26 6.79737e+26 4.83835e+26 5.04706e+26 2.97017e+26)
(-7.20509e+26 -2.16871e+26 5.2211e+26 6.12123e+26 3.93881e+26 1.51018e+26)
(-5.1179e+26 -1.40194e+26 4.10037e+26 4.29642e+26 2.06198e+26 4.74306e+25)
(-3.8e+26 -1.27506e+26 2.22418e+26 4.52985e+26 1.39731e+26 -4.69815e+25)
(-2.50468e+26 -1.07491e+26 1.70399e+26 3.82863e+26 8.08606e+25 -1.51834e+26)
(-1.74375e+26 -5.36528e+25 6.17281e+25 4.43701e+26 1.2519e+26 -2.37389e+26)
(-1.52865e+27 -5.51586e+26 -1.80086e+27 -1.57233e+27 -5.18911e+25 4.22021e+27)
(-1.32032e+27 -7.59126e+26 -1.59595e+27 -1.67714e+27 -3.73004e+25 3.98236e+27)
(-1.28961e+27 -2.71427e+26 -1.03317e+27 -3.53392e+26 -5.24886e+26 2.59423e+27)
(-1.35571e+27 -4.45496e+26 -9.24517e+26 -3.53246e+26 -1.31204e+26 1.97605e+27)
(-1.0594e+27 -5.60475e+26 -9.9856e+26 -4.45008e+26 -1.30265e+26 1.24349e+27)
(-6.79785e+26 -3.18136e+26 -1.1384e+27 -4.22475e+26 -6.066e+26 1.18398e+27)
(-8.88935e+26 -1.44682e+26 -9.42403e+26 3.86294e+25 -3.2484e+26 8.46265e+26)
(-9.49659e+26 -1.92974e+26 -9.9118e+26 -6.94375e+25 -4.84775e+26 9.27976e+26)
(-8.345e+26 1.48773e+26 -8.67566e+26 -7.07954e+25 -2.22835e+26 7.78167e+26)
(-5.98191e+26 1.42876e+26 -5.26484e+26 -7.4562e+26 -4.3637e+26 8.08397e+26)
(-3.6209e+27 1.89174e+26 -7.42693e+27 -4.51068e+27 -5.55955e+27 5.96758e+27)
(5.3315e+26 2.80492e+27 -1.03972e+28 -4.14687e+27 -5.99311e+27 6.16159e+27)
(-2.36924e+26 2.59637e+27 -1.06049e+28 -5.33109e+27 -5.35035e+27 6.48603e+27)
(-2.90772e+27 2.60405e+27 -8.27449e+27 -6.85985e+26 -9.65277e+27 4.95502e+27)
(-3.37439e+27 -1.72245e+27 -5.29237e+27 2.67501e+26 -4.03339e+27 2.80438e+27)
(-1.2894e+27 -5.898e+26 -4.03121e+27 -1.67344e+27 -3.04414e+27 2.08325e+27)
(-3.93227e+26 1.0161e+26 -2.91608e+27 -2.54769e+27 -1.89744e+27 1.96069e+27)
(3.64275e+26 1.63645e+26 -2.21253e+27 -2.25449e+27 -1.50495e+27 1.95208e+27)
(2.96774e+25 -1.24648e+26 -1.21924e+27 -2.30678e+27 -1.14449e+27 1.77127e+27)
(3.88326e+26 1.01597e+27 -3.30259e+27 -2.00755e+27 -1.72816e+27 3.2631e+27)
(2.5334e+27 1.10024e+28 -1.62065e+28 2.78127e+27 -1.28884e+28 -1.04441e+28)
(5.25151e+27 6.0428e+27 -1.32852e+28 -1.19977e+27 -8.53707e+27 -7.56639e+27)
(6.21882e+27 6.92623e+27 -1.1386e+28 1.04139e+27 -9.07681e+27 -2.13287e+27)
(3.78585e+27 5.94267e+27 -9.82212e+27 2.4084e+27 -6.78957e+27 -1.24641e+27)
(2.04733e+27 2.94954e+27 -8.23322e+27 1.46658e+27 -5.31179e+27 -1.14305e+27)
(1.29823e+27 8.50758e+26 -3.38247e+27 -2.10998e+26 -2.23885e+27 -1.0148e+27)
(2.67604e+27 1.40546e+27 -2.72245e+27 -3.00084e+26 -2.35572e+27 -1.65085e+27)
(2.90821e+27 -4.33075e+26 -1.8771e+27 -1.32604e+27 -9.09571e+26 -9.37668e+26)
(-2.63237e+27 -2.94441e+27 8.20673e+26 -1.40568e+27 -9.19965e+26 -6.79279e+26)
(1.5077e+27 4.33424e+26 -7.00211e+26 -1.59734e+27 -1.66566e+26 -7.06308e+26)