/*--------------------------------*- C++ -*----------------------------------*\
| =========                 |                                                 |
| \\      /  F ield         | OpenFOAM: The Open Source CFD Toolbox           |
|  \\    /   O peration     | Version:  2.4.0                                 |
|   \\  /    A nd           | Web:      www.OpenFOAM.org                      |
|    \\/     M anipulation  |                                                 |
\*---------------------------------------------------------------------------*/
FoamFile
{
    version     2.0;
    format      ascii;
    class       volVectorField;
    location    "0.13";
    object      U;
}
// * * * * * * * * * * * * * * * * * * * * * * * * * * * * * * * * * * * * * //

dimensions      [0 1 -1 0 0 0 0];

internalField   nonuniform List<vector> 
200
(
(1.77198e+13 2.39103e+13 4.04789e+13)
(3.92652e+13 -3.60724e+13 -7.55289e+13)
(3.66874e+13 2.26359e+13 6.04411e+13)
(3.56562e+13 -5.78304e+13 -1.10451e+14)
(4.99397e+13 2.98583e+13 6.11429e+13)
(3.83096e+13 -4.77296e+13 -8.70244e+13)
(5.05005e+13 3.58277e+13 5.90353e+13)
(3.29873e+13 -5.07586e+13 -6.05804e+13)
(4.70095e+13 7.58993e+13 2.34293e+13)
(3.68143e+13 -8.06864e+13 -6.66472e+13)
(3.76146e+13 -1.46698e+13 -3.9331e+13)
(3.25569e+13 1.68117e+13 5.32334e+13)
(3.42809e+13 -3.52872e+13 -9.10109e+13)
(3.87837e+13 1.49393e+13 6.039e+13)
(3.01803e+13 -2.77296e+13 -7.51701e+13)
(3.96009e+13 1.70983e+13 5.92624e+13)
(2.88016e+13 -3.38622e+13 -8.36696e+13)
(4.32598e+13 3.74673e+13 5.64034e+13)
(3.35622e+13 -4.08933e+13 -6.27171e+13)
(4.79035e+13 7.61604e+13 2.34873e+13)
(3.1833e+13 4.66274e+12 5.00615e+13)
(2.82298e+13 -3.39394e+13 -8.14559e+13)
(3.29615e+13 -2.28484e+12 5.59937e+13)
(2.66358e+13 -1.44032e+13 -5.14449e+13)
(2.95754e+13 -2.3548e+12 4.25583e+13)
(2.62618e+13 -2.32057e+13 -6.80995e+13)
(3.83895e+13 6.05982e+12 3.95005e+13)
(2.90848e+13 -2.04142e+13 -6.49959e+13)
(4.81474e+13 4.19965e+13 4.497e+13)
(3.80719e+13 -3.55098e+13 -7.09211e+13)
(1.91286e+13 -2.8259e+13 -8.34431e+13)
(2.94471e+13 -8.05565e+12 5.0647e+13)
(1.88387e+13 -1.43505e+13 -5.86209e+13)
(2.50859e+13 -1.59247e+13 4.37971e+13)
(2.02987e+13 -2.19412e+13 -6.83777e+13)
(2.93321e+13 -1.1578e+13 4.04628e+13)
(2.53148e+13 -2.2316e+13 -6.79623e+13)
(4.54114e+13 2.09683e+13 4.46697e+13)
(3.18131e+13 -3.5357e+13 -7.95601e+13)
(4.58043e+13 7.1124e+13 3.72783e+13)
(3.04613e+13 -7.97484e+13 -2.28315e+14)
(5.03983e+13 2.3445e+13 2.16325e+13)
(6.54662e+13 -1.12319e+13 -2.28543e+12)
(5.90136e+13 9.65949e+12 7.80831e+13)
(4.73689e+13 -3.82237e+13 -4.58346e+13)
(4.76801e+13 1.95009e+13 6.67554e+13)
(3.26685e+13 -2.84573e+13 -7.51914e+12)
(4.30686e+13 5.84927e+13 2.85466e+13)
(3.31253e+13 -7.69145e+13 -4.82077e+13)
(3.52204e+13 9.93166e+13 -5.04414e+11)
(5.40509e+13 2.70912e+13 2.13854e+13)
(5.27558e+13 1.46517e+13 1.70973e+13)
(5.69973e+13 2.38502e+13 6.01838e+13)
(5.63954e+13 -2.30607e+13 -5.33533e+13)
(4.72558e+13 1.59369e+13 6.3011e+13)
(3.16539e+13 -1.01762e+13 -8.85308e+12)
(3.58284e+13 2.27313e+13 4.77762e+13)
(3.01006e+13 -4.11903e+13 -3.55108e+13)
(3.79247e+13 7.07271e+13 2.31617e+13)
(2.70437e+13 -6.25723e+13 -4.55277e+13)
(5.7146e+13 1.30539e+12 1.87523e+13)
(5.39772e+13 8.89302e+12 5.07608e+13)
(5.69814e+13 -1.37102e+13 -4.34744e+13)
(4.57637e+13 5.85336e+12 5.3987e+13)
(4.13247e+13 4.40164e+12 9.14923e+11)
(3.22921e+13 6.09331e+12 1.46872e+13)
(4.15109e+13 -5.54942e+12 -1.81848e+13)
(3.88921e+13 1.58894e+13 1.53003e+12)
(3.36558e+13 -2.70213e+13 -2.68397e+13)
(4.68389e+13 6.74581e+13 2.55568e+13)
(4.79275e+13 1.32676e+13 5.26558e+13)
(5.19169e+13 -1.33936e+13 -4.2732e+13)
(4.57873e+13 -7.38917e+11 5.22577e+13)
(3.87895e+13 6.0999e+12 9.70166e+12)
(3.3671e+13 -6.39062e+11 3.52455e+13)
(3.92304e+13 -2.6142e+12 -1.87935e+13)
(3.64789e+13 1.11e+11 -3.155e+12)
(3.87535e+13 -3.94745e+12 -2.82854e+13)
(4.93963e+13 4.87377e+13 3.08201e+13)
(3.38054e+13 -3.35694e+13 -4.87399e+13)
(4.24664e+13 -1.16259e+13 6.26319e+13)
(4.02654e+13 -8.22923e+13 -2.4193e+14)
(6.72243e+13 -9.59087e+12 -5.35924e+13)
(4.61898e+13 -4.87577e+12 3.63151e+13)
(4.63322e+13 1.33359e+13 7.18169e+13)
(4.51165e+13 7.77952e+12 2.34397e+13)
(6.10136e+13 3.20167e+13 8.45193e+12)
(5.98662e+13 -3.16605e+13 -2.4138e+13)
(5.98051e+13 7.11144e+13 -2.08752e+12)
(4.84571e+13 -7.1051e+13 -4.88791e+13)
(6.13336e+13 -1.05825e+13 1.45154e+13)
(6.37873e+13 -1.88571e+13 -1.68127e+13)
(4.95901e+13 -2.63232e+13 -1.78915e+13)
(6.0113e+13 2.11866e+13 7.09758e+13)
(3.79694e+13 2.41838e+13 5.2234e+13)
(4.82139e+13 2.84736e+13 4.03163e+13)
(5.18321e+13 -1.00339e+12 1.11094e+12)
(5.05235e+13 3.02802e+13 2.43049e+13)
(5.0105e+13 -3.2166e+13 -2.23592e+13)
(5.40315e+13 7.51947e+13 7.18227e+12)
(5.01468e+13 -1.54014e+13 -3.39161e+12)
(6.98036e+13 -1.29111e+13 1.02835e+13)
(6.71806e+13 -6.54849e+12 4.52406e+13)
(3.31444e+13 7.32874e+12 5.21014e+13)
(5.90738e+13 1.47441e+13 4.0405e+13)
(5.611e+13 1.61765e+13 1.043e+13)
(4.37188e+13 2.06921e+13 -3.20325e+13)
(5.74408e+13 9.00949e+12 1.04006e+13)
(5.53074e+13 2.36422e+13 -4.73814e+13)
(5.62617e+13 -2.12811e+13 -1.8322e+13)
(6.94386e+13 -2.06978e+13 -3.50801e+13)
(6.10043e+13 -3.90467e+13 -4.82568e+12)
(3.30518e+13 2.89325e+13 9.54679e+13)
(7.1198e+13 6.85158e+12 5.26889e+13)
(6.18038e+13 1.13065e+13 1.25349e+13)
(5.81062e+13 4.82054e+12 -1.45388e+13)
(5.17712e+13 2.93292e+12 2.6878e+13)
(5.93727e+13 -1.64348e+13 -8.518e+13)
(6.3698e+13 3.86364e+12 -1.10336e+13)
(5.52542e+13 4.62566e+13 1.21031e+13)
(6.01555e+13 1.20761e+13 1.18356e+13)
(4.78404e+13 -3.54813e+13 1.64905e+12)
(4.60647e+13 -4.15153e+11 -8.52333e+12)
(4.737e+12 -1.41642e+14 1.55828e+14)
(9.9516e+13 -7.16371e+13 -1.34511e+14)
(5.25409e+13 5.8455e+13 -3.25709e+13)
(1.1198e+14 2.21188e+13 -3.44652e+13)
(1.09889e+14 4.87967e+13 -2.21277e+13)
(9.39021e+13 -4.80743e+13 -4.04722e+13)
(8.32953e+13 6.62975e+13 -4.86674e+12)
(4.88316e+13 -5.65568e+13 5.09409e+12)
(6.35777e+13 -1.51816e+13 -1.26317e+13)
(5.41312e+13 -1.33626e+13 4.57356e+13)
(6.27121e+13 -6.13946e+12 -8.91222e+12)
(1.45389e+13 -3.92065e+13 7.78434e+13)
(5.2504e+13 3.96129e+13 7.41043e+12)
(4.56373e+13 6.41845e+13 1.10256e+13)
(7.34304e+13 6.57868e+12 -1.07875e+13)
(6.24503e+13 7.05116e+13 4.47434e+12)
(6.40627e+13 -4.15991e+13 -3.07891e+13)
(6.91739e+13 -4.90232e+12 9.74131e+12)
(4.30224e+13 -5.80505e+13 1.15812e+12)
(6.00197e+13 -1.95433e+13 1.71539e+12)
(5.79703e+13 -2.20857e+13 3.63987e+13)
(6.52106e+13 -4.70826e+12 1.47941e+12)
(3.41871e+13 -4.60961e+13 7.70825e+13)
(7.13974e+13 9.2866e+12 -3.7052e+12)
(4.48455e+13 4.29167e+13 -3.44921e+13)
(7.25768e+13 -5.52765e+12 -4.24708e+12)
(5.12418e+13 4.7623e+13 3.75693e+12)
(6.1053e+13 -2.66767e+13 3.27488e+12)
(5.71705e+13 -5.85408e+11 1.4903e+13)
(5.31139e+13 -3.10776e+13 6.23315e+12)
(6.8595e+13 -2.16308e+13 5.56213e+12)
(7.46258e+13 -2.26788e+13 1.36274e+13)
(7.78982e+13 -1.60975e+13 -3.84159e+12)
(6.60301e+13 -3.41837e+13 -7.44871e+12)
(7.64201e+13 1.55884e+12 -2.29043e+12)
(5.11194e+13 2.25592e+13 4.43555e+12)
(7.12839e+13 -7.98587e+12 6.0354e+12)
(-1.76801e+13 -1.0078e+14 1.13121e+14)
(4.13563e+13 5.0776e+13 -5.23183e+13)
(-1.05638e+13 -1.2397e+14 1.48404e+14)
(1.16483e+14 1.26903e+13 -7.94214e+13)
(-7.75427e+13 -3.70684e+14 5.05749e+14)
(5.11376e+14 -5.75287e+14 -8.12288e+14)
(1.8329e+14 4.33605e+13 -2.19494e+14)
(1.18647e+14 3.94948e+13 -3.11874e+13)
(1.46178e+14 3.15646e+13 -3.327e+12)
(1.17733e+14 -1.02748e+13 -1.52718e+13)
(4.41647e+13 3.20533e+13 -2.15983e+13)
(4.04633e+13 -4.95821e+13 6.91714e+13)
(7.46313e+13 2.27781e+13 -1.35986e+13)
(4.98397e+13 -8.90232e+13 1.04689e+14)
(1.01977e+14 -8.9871e+13 -5.81681e+13)
(1.21144e+13 -1.64217e+14 1.63938e+14)
(4.9252e+13 3.80054e+13 -2.46279e+13)
(8.30228e+13 7.27554e+13 -1.71016e+13)
(9.62699e+13 1.96374e+13 -1.00385e+13)
(8.94028e+13 3.46214e+13 4.21311e+12)
(4.7094e+13 -4.72942e+13 1.40794e+13)
(5.95013e+13 -1.8203e+12 -8.67873e+12)
(5.60377e+13 -5.15879e+13 4.53572e+13)
(6.62541e+13 -1.91427e+13 -1.65831e+12)
(3.7892e+13 -1.03316e+14 6.84962e+13)
(2.1555e+13 -8.00903e+13 -2.80035e+12)
(-4.2247e+12 -1.26263e+14 1.23727e+14)
(8.41596e+13 4.0256e+12 -1.19899e+13)
(7.59902e+13 2.87396e+13 2.41279e+12)
(9.66634e+13 -6.48894e+11 -2.39068e+12)
(6.07118e+13 -8.34872e+12 -3.06638e+12)
(6.04054e+13 -3.90756e+13 7.46164e+12)
(6.77132e+13 -8.84538e+12 -2.92694e+12)
(7.13689e+13 -4.17678e+13 2.51308e+13)
(6.57428e+13 -1.53171e+13 -2.62363e+12)
(5.65213e+13 -6.05541e+13 -2.56855e+12)
(1.33891e+13 -8.21832e+13 3.8399e+11)
(9.05072e+12 -1.37455e+14 1.52866e+14)
(8.88829e+13 -3.97682e+12 4.01827e+12)
(6.78475e+13 7.48342e+12 -2.55427e+11)
)
;

boundaryField
{
    inlet
    {
        type            calculated;
        value           nonuniform 0();
    }
    outlet
    {
        type            calculated;
        value           nonuniform List<vector> 
20
(
(3.68143e+13 -8.06864e+13 -6.66472e+13)
(4.79035e+13 7.61604e+13 2.34873e+13)
(3.80719e+13 -3.55098e+13 -7.09211e+13)
(4.58043e+13 7.1124e+13 3.72783e+13)
(3.52204e+13 9.93166e+13 -5.04414e+11)
(2.70437e+13 -6.25723e+13 -4.55277e+13)
(4.68389e+13 6.74581e+13 2.55568e+13)
(3.38054e+13 -3.35694e+13 -4.87399e+13)
(4.84571e+13 -7.1051e+13 -4.88791e+13)
(5.40315e+13 7.51947e+13 7.18227e+12)
(5.62617e+13 -2.12811e+13 -1.8322e+13)
(5.52542e+13 4.62566e+13 1.21031e+13)
(8.32953e+13 6.62975e+13 -4.86674e+12)
(6.40627e+13 -4.15991e+13 -3.07891e+13)
(5.12418e+13 4.7623e+13 3.75693e+12)
(7.12839e+13 -7.98587e+12 6.0354e+12)
(1.17733e+14 -1.02748e+13 -1.52718e+13)
(8.94028e+13 3.46214e+13 4.21311e+12)
(9.66634e+13 -6.48894e+11 -2.39068e+12)
(6.78475e+13 7.48342e+12 -2.55427e+11)
)
;
    }
    bottom
    {
        type            calculated;
        value           uniform (0 0 0);
    }
    top
    {
        type            symmetryPlane;
    }
    side1
    {
        type            symmetryPlane;
    }
    side2
    {
        type            symmetryPlane;
    }
    procBoundary7to6
    {
        type            processor;
        value           nonuniform List<vector> 
20
(
(1.09417e+12 -1.84304e+13 -2.72426e+13)
(2.00762e+13 2.20449e+13 1.9362e+13)
(3.60706e+13 -1.30202e+13 -2.03347e+13)
(2.78839e+13 6.35246e+12 4.94498e+13)
(4.00984e+13 8.15151e+12 3.20058e+13)
(4.7248e+13 -4.2396e+13 -1.00565e+14)
(5.69166e+13 7.58942e+12 2.30784e+13)
(5.05573e+13 3.65835e+12 9.36908e+12)
(6.38026e+13 -1.40347e+13 -4.08582e+13)
(6.6509e+13 -3.80013e+12 1.97838e+13)
(5.82613e+13 -9.5324e+12 -2.01262e+13)
(5.48048e+13 -1.08607e+12 1.45106e+13)
(3.45617e+13 -3.78354e+13 1.14551e+13)
(6.70541e+13 -1.41912e+12 6.3569e+10)
(5.63387e+13 -2.88154e+13 4.37837e+12)
(6.61343e+13 -2.65598e+13 -3.09209e+12)
(5.04064e+12 5.41249e+13 -4.68074e+13)
(2.23235e+13 -5.66709e+13 4.33292e+13)
(5.82117e+13 4.29445e+12 -8.11079e+12)
(5.95758e+13 -1.73357e+13 3.99189e+12)
)
;
    }
    procBoundary7to15
    {
        type            processor;
        value           nonuniform List<vector> 
50
(
(2.53723e+13 -6.76587e+12 4.51758e+13)
(9.41406e+12 -1.86992e+13 -7.7521e+13)
(2.38407e+13 -1.90266e+13 3.7424e+13)
(1.48727e+13 -2.71484e+13 -8.35937e+13)
(2.89092e+13 -2.26882e+13 3.34185e+13)
(2.41071e+13 -3.1518e+13 -7.17957e+13)
(3.78141e+13 7.804e+11 4.38821e+13)
(2.93794e+13 -4.05144e+13 -8.06287e+13)
(4.31068e+13 7.16073e+13 4.57819e+13)
(3.08564e+13 -4.74103e+13 -6.92457e+13)
(3.84967e+13 -5.46183e+12 -3.11645e+13)
(4.38925e+13 3.09482e+12 4.86959e+13)
(3.57814e+13 -6.41989e+12 -5.81756e+12)
(4.92415e+13 -1.48023e+13 3.03593e+13)
(4.45068e+13 -1.51381e+13 -2.14456e+13)
(3.67567e+13 -1.16578e+13 1.76127e+13)
(3.4021e+13 -1.49255e+13 -3.64142e+13)
(4.50844e+13 1.8964e+13 2.77505e+13)
(3.38605e+13 -2.62778e+13 -4.86126e+13)
(3.29555e+13 9.6543e+13 2.54841e+13)
(5.38546e+13 -6.95599e+12 2.10875e+13)
(4.8978e+13 8.13298e+12 1.2025e+13)
(5.38969e+13 -7.04542e+10 2.72901e+13)
(7.1543e+13 -1.68845e+13 -5.54368e+13)
(3.38982e+13 4.687e+13 1.60269e+14)
(7.43418e+13 1.83226e+13 7.73023e+13)
(7.15787e+13 -4.9013e+12 -1.2086e+13)
(6.42295e+13 1.53302e+12 -1.63341e+13)
(5.81671e+13 1.89125e+13 5.87413e+12)
(5.90678e+13 -3.20256e+12 -1.91063e+13)
(5.35129e+13 -3.239e+13 -6.31372e+12)
(5.91583e+13 -1.93537e+13 1.85517e+13)
(7.50441e+13 -1.5047e+13 -1.97956e+13)
(4.85177e+13 -1.40286e+13 4.97097e+13)
(6.41207e+13 -3.20526e+13 6.47894e+12)
(9.00514e+13 -1.24498e+13 -5.89998e+12)
(8.84057e+13 -1.43549e+12 -5.16856e+12)
(7.32508e+13 -6.06216e+13 4.85426e+13)
(7.31587e+13 -6.70579e+12 3.28109e+12)
(6.7273e+13 1.95964e+13 4.48451e+12)
(5.52684e+13 -2.20065e+13 1.21818e+13)
(4.63151e+13 -2.101e+13 -5.25395e+11)
(6.02504e+13 -5.48605e+13 1.92767e+13)
(7.30501e+13 -1.0149e+13 -1.56557e+13)
(8.53636e+13 -8.23121e+12 1.64122e+13)
(6.30851e+13 -2.11921e+13 -4.63349e+13)
(6.59838e+13 -3.45662e+13 -2.56591e+13)
(3.55193e+13 -5.98453e+13 1.12397e+13)
(4.73462e+13 -4.67086e+13 7.05434e+13)
(6.72289e+13 -1.70641e+12 -4.22888e+12)
)
;
    }
}


// ************************************************************************* //
