/*--------------------------------*- C++ -*----------------------------------*\
| =========                 |                                                 |
| \\      /  F ield         | OpenFOAM: The Open Source CFD Toolbox           |
|  \\    /   O peration     | Version:  2.4.0                                 |
|   \\  /    A nd           | Web:      www.OpenFOAM.org                      |
|    \\/     M anipulation  |                                                 |
\*---------------------------------------------------------------------------*/
FoamFile
{
    version     2.0;
    format      ascii;
    class       volVectorField;
    location    "0.05";
    object      A_Source;
}
// * * * * * * * * * * * * * * * * * * * * * * * * * * * * * * * * * * * * * //

dimensions      [1 -2 -2 0 0 0 0];

internalField   nonuniform List<vector> 
200
(
(-1.50841e-22 -7.55049e-23 -1.40079e-22)
(-1.18279e-24 -5.91626e-25 -1.09839e-24)
(-8.8648e-27 -4.42855e-27 -8.22682e-27)
(-5.32924e-28 2.08945e-29 1.5944e-28)
(-5.37554e-26 6.62696e-27 2.6295e-26)
(-5.88522e-24 8.26266e-25 3.09286e-24)
(-6.14509e-22 1.03789e-22 3.60161e-22)
(-6.14201e-20 1.33127e-20 4.22414e-20)
(-5.96138e-18 1.75902e-18 5.09104e-18)
(-5.80262e-16 2.39047e-16 6.39378e-16)
(-1.6131e-20 -8.18315e-21 -1.49801e-20)
(-1.20878e-22 -6.13206e-23 -1.12253e-22)
(-8.688e-25 -4.40433e-25 -8.06132e-25)
(-6.78638e-26 3.12617e-27 2.14162e-26)
(-7.36661e-24 7.62622e-25 3.27221e-24)
(-8.34275e-22 9.13166e-23 3.809e-22)
(-8.92346e-20 1.06896e-20 4.26644e-20)
(-8.95859e-18 1.24159e-18 4.63442e-18)
(-8.41712e-16 1.46523e-16 4.9771e-16)
(-7.46304e-14 1.80512e-14 5.46797e-14)
(-9.13053e-19 -4.6319e-19 -8.47912e-19)
(-6.51342e-21 -3.30423e-21 -6.04871e-21)
(-4.47479e-23 -2.26736e-23 -4.14951e-23)
(-6.1031e-24 3.89973e-25 2.17722e-24)
(-7.24361e-22 6.74474e-23 3.06032e-22)
(-8.58515e-20 7.99411e-21 3.62715e-20)
(-9.5767e-18 8.91755e-19 4.04611e-18)
(-9.93172e-16 9.24842e-17 4.19616e-16)
(-9.41719e-14 8.76978e-15 3.97887e-14)
(-7.9728e-12 7.42552e-13 3.36878e-12)
(-1.63415e-20 -8.29002e-21 -1.51757e-20)
(-1.23362e-22 -6.25721e-23 -1.1454e-22)
(-3.00491e-24 -2.56527e-25 6.2609e-26)
(-2.89788e-22 2.6979e-23 1.22422e-22)
(-3.81601e-20 3.55317e-21 1.61221e-20)
(-4.7887e-18 4.45886e-19 2.02315e-18)
(-5.6755e-16 5.28458e-17 2.39781e-16)
(-6.27814e-14 5.84571e-15 2.65242e-14)
(-6.37791e-12 5.93861e-13 2.69457e-12)
(-5.81481e-10 5.4143e-11 2.45667e-10)
(-4.14522e-20 -2.07637e-20 -3.84947e-20)
(-3.1069e-22 -1.55514e-22 -2.88522e-22)
(-2.23351e-24 -1.11642e-24 -2.07243e-24)
(-1.72777e-25 6.73945e-27 5.20619e-26)
(-1.86386e-23 1.71723e-24 7.87442e-24)
(-2.09247e-21 1.92895e-22 8.84042e-22)
(-2.20414e-19 2.03297e-20 9.31224e-20)
(-2.15107e-17 1.98509e-18 9.08807e-18)
(-1.91187e-15 1.76531e-16 8.07754e-16)
(-1.51049e-13 1.3955e-14 6.38187e-14)
(-4.66319e-18 -2.36563e-18 -4.3305e-18)
(-3.32605e-20 -1.68729e-20 -3.08875e-20)
(-2.28412e-22 -1.15769e-22 -2.11884e-22)
(-2.37642e-23 1.30249e-24 7.99163e-24)
(-2.77595e-21 2.58469e-22 1.17278e-21)
(-3.29041e-19 3.06379e-20 1.39015e-19)
(-3.67083e-17 3.41801e-18 1.55087e-17)
(-3.80731e-15 3.5451e-16 1.60854e-15)
(-3.61043e-13 3.3618e-14 1.52536e-13)
(-3.05695e-11 2.84647e-12 1.29153e-11)
(-2.78354e-16 -1.41209e-16 -2.58496e-16)
(-1.87871e-18 -9.5307e-19 -1.74468e-18)
(-1.22641e-20 -6.21183e-21 -1.13673e-20)
(-2.29826e-21 1.67464e-22 8.66266e-22)
(-2.92479e-19 2.72331e-20 1.23567e-19)
(-3.67074e-17 3.41791e-18 1.55083e-17)
(-4.35104e-15 4.05135e-16 1.83825e-15)
(-4.81361e-13 4.48206e-14 2.03368e-13)
(-4.89069e-11 4.55383e-12 2.06624e-11)
(-4.45941e-09 4.15226e-10 1.88403e-09)
(-4.6962e-18 -2.38238e-18 -4.36117e-18)
(-3.36821e-20 -1.70836e-20 -3.12718e-20)
(-1.04012e-21 -4.27219e-23 1.25353e-22)
(-1.17007e-19 1.08938e-20 4.94315e-20)
(-1.6316e-17 1.51922e-18 6.89325e-18)
(-2.17567e-15 2.02582e-16 9.19189e-16)
(-2.75076e-13 2.56129e-14 1.16215e-13)
(-3.26051e-11 3.03594e-12 1.37752e-11)
(-3.56747e-09 3.32175e-10 1.5072e-09)
(-3.52388e-07 3.28116e-08 1.48879e-07)
(-6.00442e-18 -3.0098e-18 -5.57604e-18)
(-4.28419e-20 -2.14598e-20 -3.97852e-20)
(-2.94385e-22 -1.47182e-22 -2.72985e-22)
(-4.01237e-23 2.53929e-24 1.43113e-23)
(-4.76124e-21 4.38903e-22 2.01154e-21)
(-5.64218e-19 5.20393e-20 2.38373e-19)
(-6.29285e-17 5.80712e-18 2.65863e-17)
(-6.52512e-15 6.02463e-16 2.75676e-15)
(-6.18608e-13 5.71461e-14 2.61352e-13)
(-5.23638e-11 4.83985e-12 2.21229e-11)
(-7.12496e-16 -3.6145e-16 -6.61667e-16)
(-4.80883e-18 -2.43951e-18 -4.46575e-18)
(-3.13911e-20 -1.58998e-20 -2.90956e-20)
(-5.88321e-21 4.28698e-22 2.21755e-21)
(-7.48711e-19 6.97133e-20 3.16317e-19)
(-9.39671e-17 8.74948e-18 3.96997e-17)
(-1.11382e-14 1.03711e-15 4.70574e-15)
(-1.23224e-12 1.14737e-13 5.20604e-13)
(-1.25198e-10 1.16575e-11 5.28942e-11)
(-1.14158e-08 1.06295e-09 4.823e-09)
(-4.50457e-14 -2.28518e-14 -4.18323e-14)
(-2.8503e-16 -1.44597e-16 -2.64697e-16)
(-1.75304e-18 -8.8684e-19 -1.6224e-18)
(-6.09421e-19 5.04692e-20 2.43349e-19)
(-8.35257e-17 7.77723e-18 3.52883e-17)
(-1.1138e-14 1.03709e-15 4.70564e-15)
(-1.40823e-12 1.31123e-13 5.94956e-13)
(-1.66922e-10 1.55425e-11 7.05219e-11)
(-1.82639e-08 1.70059e-09 7.71622e-09)
(-1.8041e-06 1.67983e-07 7.62203e-07)
(-7.12495e-16 -3.61451e-16 -6.61667e-16)
(-4.81021e-18 -2.43941e-18 -4.4652e-18)
(-2.49185e-19 4.37929e-21 6.29187e-20)
(-3.3414e-17 3.11113e-18 1.41166e-17)
(-4.95065e-15 4.60966e-16 2.09157e-15)
(-7.04159e-13 6.55658e-14 2.97497e-13)
(-9.53877e-11 8.88176e-12 4.02998e-11)
(-1.21761e-08 1.13374e-09 5.14422e-09)
(-1.44326e-06 1.34385e-07 6.09754e-07)
(-0.000155521 1.44809e-05 6.57054e-05)
(-4.19938e-20 -2.1035e-20 -3.89978e-20)
(-3.1729e-22 -1.58671e-22 -2.94314e-22)
(-3.78281e-23 2.12506e-24 1.2879e-23)
(-4.87538e-21 4.49423e-22 2.05975e-21)
(-6.41931e-19 5.9207e-20 2.71206e-19)
(-8.05447e-17 7.43276e-18 3.40289e-17)
(-9.54473e-15 8.81264e-16 4.0325e-15)
(-1.05567e-12 9.75217e-14 4.46006e-13)
(-1.0723e-10 9.91098e-12 4.5303e-11)
(-9.77488e-09 9.03942e-10 4.12974e-09)
(-4.69624e-18 -2.3824e-18 -4.3612e-18)
(-3.37124e-20 -1.7081e-20 -3.12595e-20)
(-5.52444e-21 3.74821e-22 2.0199e-21)
(-7.66661e-19 7.13846e-20 3.23901e-19)
(-1.0691e-16 9.95464e-18 4.51679e-17)
(-1.42563e-14 1.32744e-15 6.02309e-15)
(-1.8025e-12 1.67835e-13 7.61529e-13)
(-2.13656e-10 1.9894e-11 9.02666e-11)
(-2.33775e-08 2.17673e-09 9.87662e-09)
(-2.30921e-06 2.15016e-07 9.75608e-07)
(-2.78355e-16 -1.41211e-16 -2.58498e-16)
(-1.88226e-18 -9.52758e-19 -1.74322e-18)
(-5.69826e-19 4.57038e-20 2.24194e-19)
(-8.55285e-17 7.9637e-18 3.61344e-17)
(-1.26722e-14 1.17994e-15 5.35382e-15)
(-1.80247e-12 1.67832e-13 7.61515e-13)
(-2.44171e-10 2.27353e-11 1.03159e-10)
(-3.11685e-08 2.90217e-09 1.31682e-08)
(-3.6945e-06 3.44003e-07 1.56087e-06)
(-0.000398113 3.70692e-05 0.000168197)
(-4.69743e-18 -2.38224e-18 -4.36074e-18)
(-2.19562e-19 2.24161e-22 4.72589e-20)
(-3.11051e-17 2.89612e-18 1.31411e-17)
(-5.06937e-15 4.7202e-16 2.14173e-15)
(-8.01156e-13 7.45974e-14 3.38476e-13)
(-1.22092e-10 1.13683e-11 5.15821e-11)
(-1.78112e-08 1.65844e-09 7.52496e-09)
(-2.46303e-06 2.29338e-07 1.04059e-06)
(-0.000318487 2.9655e-05 0.000134556)
(-0.0377509 0.00351507 0.0159492)
(-1.55892e-22 -7.80313e-23 -1.44015e-22)
(-1.2439e-24 -6.20902e-25 -1.1459e-24)
(-3.03549e-25 2.23494e-26 1.14434e-25)
(-3.83264e-23 3.53114e-24 1.60592e-23)
(-4.77981e-21 4.40617e-22 2.00363e-21)
(-5.66303e-19 5.2231e-20 2.37485e-19)
(-6.31481e-17 5.82733e-18 2.64927e-17)
(-6.54655e-15 6.04436e-16 2.74762e-15)
(-6.20513e-13 5.73216e-14 2.6054e-13)
(-5.25144e-11 4.85374e-12 2.20589e-11)
(-1.64853e-20 -8.36297e-21 -1.52337e-20)
(-1.2548e-22 -6.34802e-23 -1.15529e-22)
(-4.25027e-23 3.40976e-24 1.65845e-23)
(-5.70703e-21 5.31386e-22 2.39231e-21)
(-7.51477e-19 6.99711e-20 3.1514e-19)
(-9.42951e-17 8.77995e-18 3.956e-17)
(-1.11748e-14 1.0405e-15 4.69015e-15)
(-1.23604e-12 1.1509e-13 5.18988e-13)
(-1.25558e-10 1.16909e-11 5.2741e-11)
(-1.14463e-08 1.06579e-09 4.81005e-09)
(-9.19528e-19 -4.66479e-19 -8.49953e-19)
(-6.62278e-21 -3.34311e-21 -6.08275e-21)
(-4.19615e-21 3.63372e-22 1.69783e-21)
(-6.01184e-19 5.59769e-20 2.52113e-19)
(-8.38172e-17 7.80435e-18 3.51642e-17)
(-1.11746e-14 1.04049e-15 4.69006e-15)
(-1.41257e-12 1.31526e-13 5.93109e-13)
(-1.67402e-10 1.55871e-11 7.03177e-11)
(-1.83127e-08 1.70513e-09 7.69548e-09)
(-1.80855e-06 1.68398e-07 7.60315e-07)
(-1.64947e-20 -8.36167e-21 -1.52301e-20)
(-1.50893e-21 6.5338e-23 4.64396e-22)
(-2.1864e-19 2.03574e-20 9.16879e-20)
(-3.35303e-17 3.12206e-18 1.40671e-17)
(-4.96689e-15 4.62475e-16 2.08464e-15)
(-7.06326e-13 6.57672e-14 2.96572e-13)
(-9.56617e-11 8.90723e-12 4.0183e-11)
(-1.22086e-08 1.13677e-09 5.13039e-09)
(-1.44682e-06 1.34716e-07 6.08241e-07)
(-0.000155873 1.45137e-05 6.55563e-05)
)
;

boundaryField
{
    inlet
    {
        type            zeroGradient;
    }
    outlet
    {
        type            zeroGradient;
    }
    bottom
    {
        type            zeroGradient;
    }
    top
    {
        type            symmetryPlane;
    }
    side1
    {
        type            symmetryPlane;
    }
    side2
    {
        type            symmetryPlane;
    }
    procBoundary4to3
    {
        type            processor;
        value           nonuniform List<vector> 
20
(
(-1.84087e-20 -9.22144e-21 -1.70953e-20)
(-2.06034e-18 -1.04521e-18 -1.91335e-18)
(-1.22599e-16 -6.21947e-17 -1.13853e-16)
(-2.06871e-18 -1.04946e-18 -1.92113e-18)
(-5.29337e-18 -2.65345e-18 -4.91573e-18)
(-6.26242e-16 -3.17693e-16 -5.81566e-16)
(-3.95922e-14 -2.00852e-14 -3.67678e-14)
(-6.26241e-16 -3.17694e-16 -5.81566e-16)
(-8.06076e-16 -4.04349e-16 -7.48571e-16)
(-1.01345e-13 -5.14124e-14 -9.41149e-14)
(-6.86473e-12 -3.4825e-12 -6.37502e-12)
(-1.01344e-13 -5.14122e-14 -9.41145e-14)
(-5.31491e-18 -2.66423e-18 -4.93575e-18)
(-6.26242e-16 -3.17694e-16 -5.81568e-16)
(-3.95921e-14 -2.00852e-14 -3.67677e-14)
(-6.26256e-16 -3.17683e-16 -5.81564e-16)
(-1.86636e-20 -9.34897e-21 -1.72466e-20)
(-2.06872e-18 -1.04947e-18 -1.9122e-18)
(-1.22599e-16 -6.21947e-17 -1.13354e-16)
(-2.06883e-18 -1.04939e-18 -1.91218e-18)
)
;
    }
    procBoundary4to5
    {
        type            processor;
        value           nonuniform List<vector> 
20
(
(-5.94513e-14 3.29775e-14 8.34729e-14)
(-6.47787e-12 2.35702e-12 6.3938e-12)
(-5.81566e-10 5.41787e-11 2.45761e-10)
(-4.59472e-08 4.27825e-09 1.9412e-08)
(-1.02295e-11 9.45667e-13 4.3222e-12)
(-2.23003e-09 2.07654e-10 9.42176e-10)
(-3.52412e-07 3.28138e-08 1.48888e-07)
(-3.03788e-05 2.82864e-06 1.28346e-05)
(-3.8189e-09 3.53156e-10 1.61342e-09)
(-9.02154e-07 8.40015e-08 3.81146e-07)
(-0.00015553 1.44817e-05 6.5709e-05)
(-0.0147478 0.0013732 0.00623071)
(-7.72273e-07 7.14545e-08 3.26274e-07)
(-0.000199076 1.85364e-05 8.41065e-05)
(-0.0377526 0.00351522 0.0159499)
(-3.97755 0.370359 1.68046)
(-3.82912e-09 3.54102e-10 1.6091e-09)
(-9.04383e-07 8.42091e-08 3.80204e-07)
(-0.000155882 1.45145e-05 6.55601e-05)
(-0.0147782 0.00137603 0.00621788)
)
;
    }
    procBoundary4to12
    {
        type            processor;
        value           nonuniform List<vector> 
50
(
(-1.46194e-22 -7.41606e-23 -1.3576e-22)
(-1.14086e-24 -5.78542e-25 -1.05902e-24)
(-5.08566e-26 -4.12981e-28 9.90018e-27)
(-5.49693e-24 5.11787e-25 2.32226e-24)
(-6.83636e-22 6.36539e-23 2.88823e-22)
(-8.07411e-20 7.51787e-21 3.41115e-20)
(-8.97101e-18 8.35297e-19 3.79007e-18)
(-9.2617e-16 8.62364e-17 3.91288e-16)
(-8.73648e-14 8.1346e-15 3.69099e-14)
(-7.35211e-12 6.84562e-13 3.10612e-12)
(-4.08677e-20 -2.07312e-20 -3.79511e-20)
(-3.0604e-22 -1.55181e-22 -2.84053e-22)
(-1.75256e-23 3.06992e-25 4.4228e-24)
(-2.09593e-21 1.95144e-22 8.85468e-22)
(-2.75069e-19 2.56119e-20 1.16211e-19)
(-3.4386e-17 3.20171e-18 1.45274e-17)
(-4.05754e-15 3.77801e-16 1.71423e-15)
(-4.46573e-13 4.15808e-14 1.88668e-13)
(-4.51006e-11 4.19936e-12 1.90541e-11)
(-4.08346e-09 3.80215e-10 1.72518e-09)
(-6.01098e-18 -3.04917e-18 -5.58195e-18)
(-4.3131e-20 -2.18632e-20 -4.00172e-20)
(-4.19961e-21 2.12396e-22 1.37225e-21)
(-5.63321e-19 5.24502e-20 2.3799e-19)
(-7.82437e-17 7.28534e-18 3.30565e-17)
(-1.03867e-14 9.67119e-16 4.3882e-15)
(-1.30646e-12 1.21646e-13 5.51955e-13)
(-1.53931e-10 1.43327e-11 6.5033e-11)
(-1.67242e-08 1.5572e-09 7.06564e-09)
(-1.63818e-06 1.52533e-07 6.92102e-07)
(-6.13528e-20 -9.5466e-21 -3.72043e-20)
(-3.7814e-21 2.28926e-22 1.12283e-21)
(-5.24396e-19 4.88261e-20 2.21544e-19)
(-8.01201e-17 7.46006e-18 3.38492e-17)
(-1.18175e-14 1.10034e-15 4.99267e-15)
(-1.67221e-12 1.55702e-13 7.06478e-13)
(-2.2517e-10 2.09658e-11 9.51299e-11)
(-2.85409e-08 2.65747e-09 1.2058e-08)
(-3.35474e-06 3.12364e-07 1.41731e-06)
(-0.000357842 3.33191e-05 0.000151182)
(-2.99612e-22 8.37403e-24 -1.30638e-22)
(-2.74841e-23 2.34498e-24 9.49901e-24)
(-3.76589e-21 3.50641e-22 1.57862e-21)
(-5.44641e-19 5.07117e-20 2.284e-19)
(-7.58217e-17 7.05978e-18 3.1809e-17)
(-1.00944e-14 9.39894e-16 4.23652e-15)
(-1.27444e-12 1.18664e-13 5.35085e-13)
(-1.50898e-10 1.40502e-11 6.33812e-11)
(-1.65022e-08 1.53653e-09 6.93423e-09)
(-1.63046e-06 1.51814e-07 6.8541e-07)
)
;
    }
}


// ************************************************************************* //
