/*--------------------------------*- C++ -*----------------------------------*\
| =========                 |                                                 |
| \\      /  F ield         | OpenFOAM: The Open Source CFD Toolbox           |
|  \\    /   O peration     | Version:  2.4.0                                 |
|   \\  /    A nd           | Web:      www.OpenFOAM.org                      |
|    \\/     M anipulation  |                                                 |
\*---------------------------------------------------------------------------*/
FoamFile
{
    version     2.0;
    format      ascii;
    class       surfaceScalarField;
    location    "0.05";
    object      phia;
}
// * * * * * * * * * * * * * * * * * * * * * * * * * * * * * * * * * * * * * //

dimensions      [0 3 -1 0 0 0 0];

internalField   nonuniform List<scalar> 
490
(
-1.55819e-05
1.23452e-05
2.98462e-06
-1.55819e-05
1.23516e-05
2.98462e-06
-1.55819e-05
1.23581e-05
2.98462e-06
-1.55819e-05
1.23646e-05
2.98462e-06
-1.55819e-05
1.23711e-05
2.98462e-06
-1.55819e-05
1.23775e-05
2.98462e-06
-1.55819e-05
1.2384e-05
2.98462e-06
-1.55819e-05
1.23905e-05
2.98462e-06
-1.55819e-05
1.2384e-05
2.98462e-06
1.23776e-05
2.98462e-06
-1.55819e-05
1.24493e-05
2.98462e-06
-1.55819e-05
1.24493e-05
2.98462e-06
-1.55819e-05
1.24493e-05
2.98462e-06
-1.55819e-05
1.24494e-05
2.98462e-06
-1.55819e-05
1.24494e-05
2.98462e-06
-1.55819e-05
1.24494e-05
2.98462e-06
-1.55819e-05
1.24494e-05
2.98462e-06
-1.55819e-05
1.24494e-05
2.98462e-06
-1.55819e-05
1.24494e-05
2.98462e-06
1.24494e-05
2.98462e-06
-1.55819e-05
1.20894e-05
2.98461e-06
-1.55819e-05
1.22406e-05
2.98461e-06
-1.55819e-05
1.23439e-05
2.98462e-06
-1.55819e-05
1.24069e-05
2.98462e-06
-1.55819e-05
1.24387e-05
2.98462e-06
-1.55819e-05
1.24494e-05
2.98462e-06
-1.55819e-05
1.24494e-05
2.98462e-06
-1.55819e-05
1.24494e-05
2.98462e-06
-1.55819e-05
1.24494e-05
2.98462e-06
1.24494e-05
2.98462e-06
-1.70851e-05
2.59477e-06
-1.64125e-05
2.75753e-06
-1.59729e-05
2.86958e-06
-1.57223e-05
2.93823e-06
-1.56101e-05
2.97297e-06
-1.55819e-05
2.98461e-06
-1.55819e-05
2.98462e-06
-1.55819e-05
2.98462e-06
-1.55819e-05
2.98462e-06
2.98462e-06
-1.55819e-05
1.23517e-05
2.98462e-06
-1.55819e-05
1.23581e-05
2.98462e-06
-1.55819e-05
1.23646e-05
2.98462e-06
-1.55819e-05
1.23711e-05
2.98462e-06
-1.55819e-05
1.23776e-05
2.98462e-06
-1.55819e-05
1.23841e-05
2.98462e-06
-1.55819e-05
1.23905e-05
2.98462e-06
-1.55819e-05
1.2397e-05
2.98462e-06
-1.55819e-05
1.23905e-05
2.98462e-06
1.23841e-05
2.98462e-06
-1.55819e-05
1.24493e-05
2.98462e-06
-1.55819e-05
1.24493e-05
2.98462e-06
-1.55819e-05
1.24493e-05
2.98462e-06
-1.55819e-05
1.24494e-05
2.98462e-06
-1.55819e-05
1.24494e-05
2.98462e-06
-1.55819e-05
1.24494e-05
2.98462e-06
-1.55819e-05
1.24494e-05
2.98462e-06
-1.55819e-05
1.24494e-05
2.98462e-06
-1.55819e-05
1.24494e-05
2.98462e-06
1.24494e-05
2.98462e-06
-1.5582e-05
1.19182e-05
2.9846e-06
-1.55819e-05
1.21391e-05
2.98461e-06
-1.55819e-05
1.22919e-05
2.98462e-06
-1.55819e-05
1.23858e-05
2.98462e-06
-1.55819e-05
1.24334e-05
2.98462e-06
-1.55819e-05
1.24494e-05
2.98462e-06
-1.55819e-05
1.24494e-05
2.98462e-06
-1.55819e-05
1.24494e-05
2.98462e-06
-1.55819e-05
1.24494e-05
2.98462e-06
1.24494e-05
2.98462e-06
-1.78055e-05
2.30996e-06
-1.68181e-05
2.58521e-06
-1.61662e-05
2.77996e-06
-1.57922e-05
2.9015e-06
-1.56242e-05
2.96366e-06
-1.55819e-05
2.98461e-06
-1.55819e-05
2.98462e-06
-1.55819e-05
2.98462e-06
-1.55819e-05
2.98462e-06
2.98462e-06
-1.55819e-05
1.23581e-05
2.98462e-06
-1.55819e-05
1.23646e-05
2.98462e-06
-1.55819e-05
1.23711e-05
2.98462e-06
-1.55819e-05
1.23776e-05
2.98462e-06
-1.55819e-05
1.23841e-05
2.98462e-06
-1.55819e-05
1.23906e-05
2.98462e-06
-1.55819e-05
1.23971e-05
2.98462e-06
-1.55819e-05
1.24036e-05
2.98462e-06
-1.55819e-05
1.23971e-05
2.98462e-06
1.23906e-05
2.98462e-06
-1.55819e-05
1.24493e-05
2.98461e-06
-1.55819e-05
1.24493e-05
2.98461e-06
-1.55819e-05
1.24493e-05
2.98462e-06
-1.55819e-05
1.24494e-05
2.98462e-06
-1.55819e-05
1.24494e-05
2.98462e-06
-1.55819e-05
1.24494e-05
2.98462e-06
-1.55819e-05
1.24494e-05
2.98462e-06
-1.55819e-05
1.24494e-05
2.98462e-06
-1.55819e-05
1.24494e-05
2.98462e-06
1.24494e-05
2.98462e-06
-1.5582e-05
1.14384e-05
2.68478e-06
-1.55819e-05
1.18467e-05
2.80832e-06
-1.55819e-05
1.2139e-05
2.89473e-06
-1.55819e-05
1.2323e-05
2.94823e-06
-1.55819e-05
1.24174e-05
2.97546e-06
-1.55819e-05
1.24493e-05
2.98462e-06
-1.55819e-05
1.24494e-05
2.98462e-06
-1.55819e-05
1.24494e-05
2.98462e-06
-1.55819e-05
1.24494e-05
2.98462e-06
1.24494e-05
2.98462e-06
-1.98462e-05
-2.03832e-06
-1.79946e-05
-1.85891e-06
-1.6736e-05
-1.72934e-06
-1.60003e-05
-1.64447e-06
-1.56663e-05
-1.5837e-06
-1.5582e-05
2.54281e-06
-1.55819e-05
2.98438e-06
-1.55819e-05
2.98462e-06
-1.55819e-05
2.98462e-06
2.98462e-06
-1.55819e-05
1.23516e-05
2.97808e-06
-1.55819e-05
1.23581e-05
2.97849e-06
-1.55819e-05
1.23646e-05
2.9789e-06
-1.55819e-05
1.23711e-05
2.9793e-06
-1.55819e-05
1.23776e-05
2.97971e-06
-1.55819e-05
1.23841e-05
2.98012e-06
-1.55819e-05
1.23905e-05
2.98053e-06
-1.55819e-05
1.2397e-05
2.98093e-06
-1.55819e-05
1.23905e-05
2.98053e-06
1.23841e-05
2.98012e-06
-1.5582e-05
1.1764e-05
2.97845e-06
-1.5582e-05
1.20464e-05
2.97888e-06
-1.55819e-05
1.22439e-05
2.9793e-06
-1.55819e-05
1.23662e-05
2.97971e-06
-1.55819e-05
1.24284e-05
2.98012e-06
-1.55819e-05
1.24493e-05
2.98053e-06
-1.55819e-05
1.24494e-05
2.98094e-06
-1.55819e-05
1.24494e-05
2.98135e-06
-1.55819e-05
1.24494e-05
2.98094e-06
1.24494e-05
2.98053e-06
-1.84579e-05
1.29345e-06
2.11687e-06
-1.71897e-05
1.57764e-06
2.46373e-06
-1.63447e-05
1.77892e-06
2.71331e-06
-1.58571e-05
1.91129e-06
2.87096e-06
-1.56373e-05
2.01796e-06
2.95233e-06
-1.55819e-05
1.14395e-05
2.9801e-06
-1.55819e-05
1.24488e-05
2.98053e-06
-1.55819e-05
1.24494e-05
2.98094e-06
-1.55819e-05
1.24494e-05
2.98053e-06
1.24494e-05
2.98012e-06
-7.09142e-05
-6.15833e-06
-7.08995e-05
-6.15834e-06
-7.08628e-05
-6.15697e-06
-7.07188e-05
-6.15118e-06
-4.57603e-05
-6.12129e-06
-1.8252e-05
1.73551e-06
-1.55833e-05
2.97931e-06
-1.55819e-05
2.98053e-06
-1.55819e-05
2.98012e-06
2.97971e-06
-1.55819e-05
1.23452e-05
-1.55819e-05
1.23517e-05
-1.55819e-05
1.23582e-05
-1.55819e-05
1.23646e-05
-1.55819e-05
1.23711e-05
-1.55819e-05
1.23776e-05
-1.55819e-05
1.2384e-05
-1.55819e-05
1.23905e-05
-1.55819e-05
1.2384e-05
1.23775e-05
-1.55821e-05
1.11586e-05
-1.5582e-05
1.16715e-05
-1.55819e-05
1.20457e-05
-1.55819e-05
1.22841e-05
-1.55819e-05
1.24075e-05
-1.55819e-05
1.24493e-05
-1.55819e-05
1.24494e-05
-1.55819e-05
1.24494e-05
-1.55819e-05
1.24494e-05
1.24494e-05
-2.10485e-05
6.86507e-07
-1.87044e-05
1.20041e-06
-1.70853e-05
1.5769e-06
-1.61292e-05
1.82136e-06
-1.56926e-05
1.97167e-06
-1.5582e-05
1.06071e-05
-1.55819e-05
1.2448e-05
-1.55819e-05
1.24494e-05
-1.55819e-05
1.24494e-05
1.24494e-05
-7.09234e-05
-7.09149e-05
-7.08932e-05
-7.08063e-05
-4.80267e-05
-2.04534e-05
-1.55854e-05
-1.55819e-05
-1.55819e-05
)
;

boundaryField
{
    inlet
    {
        type            calculated;
        value           nonuniform 0();
    }
    outlet
    {
        type            calculated;
        value           nonuniform 0();
    }
    bottom
    {
        type            calculated;
        value           uniform 0;
    }
    top
    {
        type            symmetryPlane;
        value           uniform 0;
    }
    side1
    {
        type            symmetryPlane;
        value           uniform 0;
    }
    side2
    {
        type            symmetryPlane;
        value           nonuniform 0();
    }
    procBoundary4to3
    {
        type            processor;
        value           nonuniform List<scalar> 
20
(
1.55819e-05
1.55819e-05
1.55819e-05
1.8037e-05
1.55819e-05
1.55819e-05
1.55819e-05
1.91792e-05
1.55819e-05
1.55819e-05
1.5582e-05
2.23128e-05
1.55818e-05
1.5582e-05
2.0195e-05
7.09197e-05
1.55818e-05
1.55822e-05
2.3985e-05
7.09258e-05
)
;
    }
    procBoundary4to5
    {
        type            processor;
        value           nonuniform List<scalar> 
20
(
-1.55819e-05
-1.55819e-05
-1.55818e-05
-1.55818e-05
-1.55819e-05
-1.55819e-05
-1.55819e-05
-1.55819e-05
-1.55819e-05
-1.55819e-05
-1.55819e-05
-1.55819e-05
-1.55819e-05
-1.55819e-05
-1.55819e-05
-1.55819e-05
-1.55819e-05
-1.55819e-05
-1.55819e-05
-1.55819e-05
)
;
    }
    procBoundary4to12
    {
        type            processor;
        value           nonuniform List<scalar> 
50
(
1.62269e-06
1.77786e-06
1.88971e-06
1.97586e-06
2.11074e-06
1.18081e-05
1.2449e-05
1.24494e-05
1.24495e-05
1.24495e-05
1.44851e-06
1.67167e-06
1.82933e-06
1.93637e-06
2.04235e-06
1.15167e-05
1.24488e-05
1.24494e-05
1.24494e-05
1.24494e-05
9.66224e-07
1.3755e-06
1.66994e-06
1.85936e-06
1.97819e-06
1.07374e-05
1.24484e-05
1.24494e-05
1.24494e-05
1.24494e-05
-8.49526e-06
-8.49346e-06
-8.48968e-06
-8.47958e-06
-8.43516e-06
9.66418e-07
3.68674e-06
1.24145e-05
1.24389e-05
1.24444e-05
-8.49683e-06
-8.49577e-06
-8.49352e-06
-8.48747e-06
-8.46056e-06
1.33677e-07
2.90552e-06
1.23661e-05
1.24246e-05
1.24378e-05
)
;
    }
}


// ************************************************************************* //
