/*--------------------------------*- C++ -*----------------------------------*\
| =========                 |                                                 |
| \\      /  F ield         | OpenFOAM: The Open Source CFD Toolbox           |
|  \\    /   O peration     | Version:  2.4.0                                 |
|   \\  /    A nd           | Web:      www.OpenFOAM.org                      |
|    \\/     M anipulation  |                                                 |
\*---------------------------------------------------------------------------*/
FoamFile
{
    version     2.0;
    format      ascii;
    class       volVectorField;
    location    "0.05";
    object      Ua;
}
// * * * * * * * * * * * * * * * * * * * * * * * * * * * * * * * * * * * * * //

dimensions      [0 1 -1 0 0 0 0];

internalField   nonuniform List<vector> 
200
(
(16.1065 16.2161 -6.88582)
(16.4237 16.5236 -6.88595)
(16.7647 16.8549 -6.88598)
(5.6207 10.8698 -6.26229)
(-22.6185 -4.70739 -4.60569)
(-22.3917 -4.73376 -4.4204)
(-21.9849 -4.77212 -4.09744)
(-21.244 -4.84009 -3.50926)
(-19.8456 -4.9664 -2.39901)
(-17.1816 -5.20525 -0.284021)
(15.8 16.1218 -6.88567)
(15.9973 16.3229 -6.88578)
(16.2095 16.5398 -6.88579)
(2.06609 8.91397 -6.14795)
(-22.8979 -4.73694 -4.82563)
(-22.8267 -4.74598 -4.76585)
(-22.6938 -4.75818 -4.66032)
(-22.445 -4.78102 -4.46275)
(-21.9487 -4.82658 -4.06873)
(-20.8907 -4.92369 -3.2288)
(15.5838 15.9014 -6.88553)
(15.6683 15.9875 -6.88562)
(15.7587 16.0807 -6.88557)
(-4.51148 5.2274 -5.86077)
(-23.0296 -4.72618 -4.9285)
(-23.0314 -4.72717 -4.92841)
(-23.0314 -4.72717 -4.92839)
(-23.0314 -4.72717 -4.92837)
(-23.0313 -4.72717 -4.92832)
(-23.0312 -4.72718 -4.92822)
(15.6103 15.9284 -6.88556)
(15.7052 16.0253 -6.88563)
(11.2472 13.679 -6.65605)
(-23.0165 -4.71912 -4.92913)
(-23.0314 -4.72714 -4.92839)
(-23.0314 -4.72714 -4.92839)
(-23.0314 -4.72714 -4.9284)
(-23.0313 -4.72714 -4.9284)
(-23.0313 -4.72713 -4.92841)
(-23.0313 -4.72713 -4.92842)
(15.7999 15.9189 -6.88567)
(15.9971 16.1061 -6.88579)
(16.2093 16.3086 -6.88579)
(2.07386 8.8007 -6.17458)
(-23.0276 -4.67546 -4.92865)
(-23.0315 -4.68005 -4.92845)
(-23.0315 -4.68252 -4.92845)
(-23.0315 -4.685 -4.92844)
(-23.0315 -4.68747 -4.92842)
(-23.0315 -4.68995 -4.92838)
(15.5838 15.9014 -6.88553)
(15.6682 15.9875 -6.88562)
(15.7592 16.081 -6.88559)
(-1.7298 6.72253 -6.00082)
(-23.029 -4.72585 -4.92857)
(-23.0315 -4.72716 -4.92845)
(-23.0315 -4.72716 -4.92845)
(-23.0315 -4.72716 -4.92845)
(-23.0315 -4.72716 -4.92845)
(-23.0315 -4.72717 -4.92844)
(15.4737 15.7891 -6.8854)
(15.4739 15.7894 -6.88545)
(15.4713 15.7881 -6.88535)
(-8.28514 3.1301 -5.67793)
(-23.0303 -4.72656 -4.92849)
(-23.0314 -4.72715 -4.92844)
(-23.0314 -4.72715 -4.92844)
(-23.0314 -4.72715 -4.92845)
(-23.0314 -4.72715 -4.92845)
(-23.0314 -4.72714 -4.92845)
(15.4738 15.7893 -6.88541)
(15.4738 15.7895 -6.88545)
(9.18122 12.4367 -6.56565)
(-23.0222 -4.72229 -4.92885)
(-23.0313 -4.72713 -4.92839)
(-23.0313 -4.72713 -4.9284)
(-23.0313 -4.72712 -4.9284)
(-23.0313 -4.72712 -4.92841)
(-23.0313 -4.72712 -4.92842)
(-23.0312 -4.72712 -4.92842)
(15.5836 15.7123 -6.88553)
(15.6681 15.7863 -6.88562)
(15.7585 15.8671 -6.88557)
(-4.5028 5.15038 -5.86123)
(-23.0297 -4.67907 -4.92855)
(-23.0315 -4.68251 -4.92846)
(-23.0315 -4.68498 -4.92846)
(-23.0315 -4.68745 -4.92847)
(-23.0315 -4.68992 -4.92847)
(-23.0315 -4.6924 -4.92847)
(15.4736 15.7891 -6.8854)
(15.4739 15.7894 -6.88545)
(15.4712 15.7881 -6.88535)
(-8.28625 3.1295 -5.67788)
(-23.0303 -4.72656 -4.92851)
(-23.0314 -4.72715 -4.92846)
(-23.0314 -4.72715 -4.92846)
(-23.0314 -4.72715 -4.92846)
(-23.0314 -4.72715 -4.92846)
(-23.0314 -4.72715 -4.92846)
(15.4732 15.7887 -6.8853)
(15.4732 15.7887 -6.8853)
(15.4681 15.786 -6.88504)
(-13.9118 0.131906 -5.39191)
(-23.0309 -4.72688 -4.92847)
(-23.0314 -4.72714 -4.92844)
(-23.0314 -4.72714 -4.92845)
(-23.0313 -4.72714 -4.92845)
(-23.0313 -4.72714 -4.92845)
(-23.0313 -4.72713 -4.92845)
(15.4733 15.7888 -6.8853)
(15.4727 15.7885 -6.88527)
(4.65624 10.0253 -6.33555)
(-23.0272 -4.72495 -4.9286)
(-23.0312 -4.72712 -4.9284)
(-23.0312 -4.72711 -4.9284)
(-23.0312 -4.72711 -4.92841)
(-23.0312 -4.72711 -4.92842)
(-23.0312 -4.72711 -4.92842)
(-23.0312 -4.72711 -4.92843)
(15.61 15.7279 -6.88556)
(15.7034 15.8115 -6.88556)
(-2.26432 6.32646 -5.9751)
(-23.0292 -4.67882 -4.92858)
(-23.0314 -4.6825 -4.92846)
(-23.0314 -4.68497 -4.92846)
(-23.0314 -4.68744 -4.92847)
(-23.0314 -4.68991 -4.92847)
(-23.0314 -4.69239 -4.92847)
(-23.0314 -4.69486 -4.92847)
(15.4737 15.7892 -6.88541)
(15.4717 15.7883 -6.88535)
(-6.14314 4.27138 -5.7868)
(-23.03 -4.72641 -4.92852)
(-23.0314 -4.72714 -4.92846)
(-23.0314 -4.72714 -4.92846)
(-23.0314 -4.72714 -4.92846)
(-23.0314 -4.72714 -4.92846)
(-23.0314 -4.72714 -4.92846)
(-23.0314 -4.72714 -4.92847)
(15.4732 15.7887 -6.8853)
(15.4692 15.7866 -6.8851)
(-12.2141 1.03644 -5.47819)
(-23.0307 -4.7268 -4.92847)
(-23.0313 -4.72713 -4.92844)
(-23.0313 -4.72713 -4.92845)
(-23.0313 -4.72713 -4.92845)
(-23.0313 -4.72713 -4.92845)
(-23.0313 -4.72713 -4.92845)
(-23.0313 -4.72713 -4.92846)
(15.4718 15.7871 -6.8841)
(6.35345 10.9289 -6.42094)
(-23.0261 -4.72438 -4.92865)
(-23.0312 -4.72711 -4.9284)
(-23.0312 -4.72711 -4.9284)
(-23.0312 -4.72711 -4.92841)
(-23.0312 -4.7271 -4.92842)
(-23.0312 -4.7271 -4.92842)
(-23.0312 -4.7271 -4.92843)
(-23.0312 -4.7271 -4.92843)
(15.6369 15.7438 -6.8497)
(15.7378 15.836 -6.84771)
(-8.87916 2.82645 -5.59972)
(-23.0318 -4.67722 -4.88828)
(-23.033 -4.68034 -4.89021)
(-23.0329 -4.6828 -4.89222)
(-23.0328 -4.68525 -4.89422)
(-23.0327 -4.68769 -4.89621)
(-23.0325 -4.69013 -4.89821)
(-23.0322 -4.69253 -4.90019)
(15.4738 15.7893 -6.85147)
(15.469 15.7869 -6.84938)
(-12.2264 1.03044 -5.43815)
(-23.0322 -4.72705 -4.89026)
(-23.0328 -4.72744 -4.89222)
(-23.0328 -4.72743 -4.89422)
(-23.0326 -4.7274 -4.89622)
(-23.0325 -4.72737 -4.89822)
(-23.0323 -4.72733 -4.90021)
(-23.032 -4.72726 -4.90219)
(15.4733 15.7887 -6.85323)
(15.4642 15.7839 -6.85089)
(-16.7464 -1.37801 -5.21007)
(-23.0324 -4.72725 -4.89222)
(-23.0327 -4.72741 -4.89421)
(-23.0326 -4.72739 -4.89621)
(-23.0324 -4.72736 -4.89821)
(-23.0323 -4.72733 -4.90021)
(-23.0321 -4.72728 -4.90221)
(-23.0317 -4.72721 -4.90419)
(15.4699 15.7849 -6.84868)
(0.714874 7.9242 -6.09699)
(-23.0299 -4.72591 -4.8923)
(-23.0326 -4.7274 -4.89416)
(-23.0325 -4.72738 -4.89617)
(-23.0324 -4.72735 -4.89818)
(-23.0322 -4.72732 -4.90018)
(-23.032 -4.72728 -4.90218)
(-23.0318 -4.72723 -4.90418)
(-23.0315 -4.72716 -4.90617)
)
;

boundaryField
{
    inlet
    {
        type            calculated;
        value           nonuniform 0();
    }
    outlet
    {
        type            calculated;
        value           nonuniform 0();
    }
    bottom
    {
        type            calculated;
        value           uniform (0 0 0);
    }
    top
    {
        type            symmetryPlane;
    }
    side1
    {
        type            symmetryPlane;
    }
    side2
    {
        type            symmetryPlane;
    }
    procBoundary4to3
    {
        type            processor;
        value           nonuniform List<vector> 
20
(
(15.6818 15.8001 -6.88559)
(15.5367 15.8534 -6.88548)
(15.4734 15.7889 -6.88537)
(15.4735 15.789 -6.88539)
(15.5367 15.6651 -6.88548)
(15.4734 15.7889 -6.88537)
(15.4732 15.7886 -6.88531)
(15.4732 15.7887 -6.88531)
(15.4734 15.6123 -6.88537)
(15.4732 15.7886 -6.88531)
(15.4732 15.7887 -6.88531)
(15.4732 15.7887 -6.88531)
(15.4735 15.6014 -6.88539)
(15.4732 15.7886 -6.8853)
(15.4732 15.7887 -6.88531)
(15.4721 15.7872 -6.88408)
(15.4735 15.5905 -6.85144)
(15.4732 15.7886 -6.85323)
(15.4732 15.7887 -6.85512)
(15.4707 15.7853 -6.85049)
)
;
    }
    procBoundary4to5
    {
        type            processor;
        value           nonuniform List<vector> 
20
(
(-12.4314 -5.63005 3.48711)
(-18.5179 -5.14142 -1.3452)
(-23.0306 -4.72716 -4.92799)
(-23.0311 -4.72708 -4.92842)
(-23.0311 -4.69237 -4.92829)
(-23.0312 -4.72713 -4.92842)
(-23.0312 -4.72711 -4.92846)
(-23.0311 -4.72709 -4.92843)
(-23.0313 -4.69483 -4.92847)
(-23.0313 -4.72712 -4.92847)
(-23.0312 -4.72711 -4.92846)
(-23.0311 -4.72709 -4.92843)
(-23.0313 -4.69731 -4.92847)
(-23.0313 -4.72712 -4.92847)
(-23.0312 -4.72712 -4.92846)
(-23.0311 -4.7271 -4.92844)
(-23.0313 -4.69483 -4.90214)
(-23.0313 -4.72712 -4.90416)
(-23.0312 -4.72711 -4.90617)
(-23.0311 -4.72709 -4.90817)
)
;
    }
    procBoundary4to12
    {
        type            processor;
        value           nonuniform List<vector> 
50
(
(16.494 16.829 -6.88554)
(16.8999 17.243 -6.88558)
(8.36673 12.5649 -6.38703)
(-21.8006 -4.47183 -4.66681)
(-21.74 -4.46208 -4.6518)
(-21.6638 -4.44645 -4.6355)
(-21.5781 -4.42885 -4.61716)
(-21.4809 -4.40891 -4.59638)
(-21.3698 -4.38611 -4.57262)
(-21.2415 -4.35978 -4.5452)
(15.9399 16.2641 -6.88522)
(16.1669 16.4959 -6.88523)
(5.19785 10.4925 -6.23754)
(-21.735 -4.45941 -4.65206)
(-21.6635 -4.44639 -4.63548)
(-21.5778 -4.4288 -4.61714)
(-21.4806 -4.40885 -4.59635)
(-21.3696 -4.38606 -4.5726)
(-21.2414 -4.35976 -4.54518)
(-21.0918 -4.32904 -4.5132)
(15.4741 15.7893 -6.88458)
(15.473 15.7888 -6.88455)
(-0.847619 6.90724 -5.90532)
(-21.6612 -4.44517 -4.63562)
(-21.5777 -4.42877 -4.61715)
(-21.4805 -4.40883 -4.59636)
(-21.3695 -4.38604 -4.57261)
(-21.2413 -4.35974 -4.5452)
(-21.0918 -4.32906 -4.51322)
(-20.9151 -4.29277 -4.47542)
(5.67459 2.20053 4.06177)
(-0.664507 1.06301 1.5174)
(-21.6594 -4.44527 -4.63445)
(-21.5776 -4.42875 -4.61715)
(-21.4804 -4.40881 -4.59637)
(-21.3694 -4.38602 -4.57261)
(-21.2413 -4.35973 -4.54521)
(-21.0918 -4.32905 -4.51323)
(-20.9151 -4.29279 -4.47544)
(-20.703 -4.24926 -4.43009)
(2.43843 -2.29316 7.60596)
(-4.70999 -2.59225 3.63119)
(-22.5614 -4.63075 -4.60411)
(-22.4398 -4.60558 -4.59101)
(-22.296 -4.57608 -4.57474)
(-22.1283 -4.54167 -4.55624)
(-21.9303 -4.50104 -4.53512)
(-21.693 -4.45236 -4.51087)
(-21.4046 -4.39319 -4.48288)
(-21.0531 -4.32107 -4.4503)
)
;
    }
}


// ************************************************************************* //
