/*--------------------------------*- C++ -*----------------------------------*\
| =========                 |                                                 |
| \\      /  F ield         | OpenFOAM: The Open Source CFD Toolbox           |
|  \\    /   O peration     | Version:  2.4.0                                 |
|   \\  /    A nd           | Web:      www.OpenFOAM.org                      |
|    \\/     M anipulation  |                                                 |
\*---------------------------------------------------------------------------*/
FoamFile
{
    version     2.0;
    format      ascii;
    class       surfaceScalarField;
    location    "0.1";
    object      phib;
}
// * * * * * * * * * * * * * * * * * * * * * * * * * * * * * * * * * * * * * //

dimensions      [0 3 -1 0 0 0 0];

internalField   nonuniform List<scalar> 
490
(
411.563
-39.6699
13.4186
626.975
-19.8441
-193.943
533.755
-30.1976
-0.658918
611.792
36.5748
-139.135
710.163
-46.2688
39.6184
669.204
47.2374
-60.0629
758.155
-30.1321
56.4988
716.167
85.0251
53.6454
615.334
205.585
-13.259
335.523
-41.1976
448.732
6.62366
-209.512
438.202
-8.43505
-0.878922
556.173
39.7668
-187.936
563.344
-8.6593
38.0631
610.58
44.7938
-138.298
603.522
3.18865
51.1068
637.249
-2.43236
-61.4274
564.833
111.156
46.2846
528.418
290.535
-48.5347
322.774
-110.355
337.323
51.6474
-54.789
464.053
55.0623
-190.228
437.483
57.9457
8.3914
533.298
67.0731
-171.548
508.761
19.2803
50.0513
533.826
73.8209
-95.6978
442.776
-15.5348
104.153
472.581
164.028
-82.6762
568.525
316.151
-121.56
480.415
-161.64
293.223
-133.91
289.233
-35.1707
345.592
-123.826
384.205
-64.5102
534.805
-235.294
475.231
42.4739
473.54
-111.238
463.513
-5.77376
530.328
-52.5452
-264.515
481.042
173.857
-177.062
456.434
143.68
-120.042
576.094
158.89
-162.727
569.904
109.245
-83.0425
642.024
159.625
-119.925
683.198
14.8033
-20.4514
638.284
86.0966
-44.005
822.213
-127.981
64.3983
474.613
311.52
-8.75159
380.335
-39.8941
315.111
156.75
-128.017
456.76
161.18
-160.027
413.872
124.276
-110.434
513.911
170.739
-123.47
519.158
80.7532
-64.6724
589.386
95.0357
-99.3543
616.899
-0.945015
-1.89859
380.944
187.267
-33.0086
388.449
313.406
-57.9249
436.56
-59.6709
327.093
154.509
-145.657
296.656
130.138
-128.749
393.908
154.949
-119.535
352.274
120.178
-79.3525
424.697
157.125
-98.7442
398.816
52.3387
-27.12
429.349
127.113
-54.4373
370.742
200.044
-36.8459
364.845
236.856
-39.1129
452.55
-145.73
179.848
-122.612
231.317
-103.096
228.211
-96.5128
225.227
-79.3905
249.24
-170.707
357.48
-85.8038
304.352
-13.9056
388.89
-25.934
390.035
-62.8179
32.3707
214.267
232.48
-128.253
154.123
223.863
-93.8148
111.24
194.965
-127.113
87.6724
172.65
-81.9341
63.9121
126.538
-94.0634
61.5239
118.337
-60.2115
101.95
68.475
-24.7478
65.2777
229.712
-28.0268
60.4988
283.416
8.49075
337.508
-42.8407
109.898
250.384
-89.0418
73.0429
225.764
-125.073
30.0593
195.332
-67.8175
17.5127
166.076
-104.349
-0.929223
143.932
-63.6243
-7.95142
90.2926
-64.288
-29.0579
124.647
-36.9644
-5.6251
186.582
-13.3119
4.01368
247.3
-31.4472
410.509
-42.3941
47.7862
243.491
-127.359
-1.71151
206.545
-60.0325
-14.9659
186.407
-97.3548
-53.2558
166.415
-41.4016
-69.7821
142.983
-81.269
-81.3397
124.466
-49.7361
-89.5657
114.455
-36.0187
-30.647
132.494
-41.6765
-78.7887
268.448
-12.1188
159.704
24.708
-41.3969
-51.987
-25.4586
-98.9124
-62.386
-25.8242
-38.9217
-72.8155
-122.872
-37.114
-143.2
-52.3565
-94.7864
-48.2988
-195.004
-4.481
-104.741
-17.688
50.8048
-386.842
211.77
-51.0366
-478.398
179.312
-13.4391
-579.199
164.113
-45.0048
-691.683
148.35
-12.2776
-760.674
102.203
-36.8449
-832.899
82.8166
1.78946
-859.952
85.5337
-19.8446
-921.567
90.9433
13.3199
-858.832
95.9397
-26.8871
193.645
2.04719
-464.539
223.159
-18.5728
-547.961
180.033
-42.3713
-615.838
162.826
1.34726
-706.057
173.157
-38.9374
-803.573
142.213
-6.11891
-848.594
94.1597
-30.6093
-870.471
61.9254
8.52025
-853.787
87.2481
-26.3006
-886.803
76.9107
20.5976
87.5248
-23.6441
-501.71
211.948
-42.7464
-559.19
178.353
-0.871977
-623.663
155.747
-25.8026
-670.883
162.455
16.5199
-773.217
186.559
-23.2802
-880.19
149.148
2.24866
-935.128
100.958
-20.1141
-967.911
67.5502
10.8048
-979.067
90.0891
-14.1415
79.6863
21.1627
-487.17
-1.0726
-534.83
-27.9522
-564.66
12.1814
-611.359
-8.13969
-657.271
28.8789
-756.205
-7.3274
-872.131
7.16912
-922.155
-9.89336
-961.367
16.1951
-9.89222
-590.735
149.863
-613.599
120.156
-659.197
100.229
-685.986
100.472
-738.684
80.691
-747.116
65.3357
-776.252
56.7215
-772.956
56.1085
-805.957
52.2815
60.8598
-651.591
153.461
-695.712
121.906
-704.231
110.094
-731.134
88.4374
-769.778
113.216
-815.135
80.0841
-818.796
68.9027
-840.53
51.5421
-821.719
54.0678
49.0985
-698.26
138.42
-694.777
117.552
-712.397
101.911
-706.809
99.369
-716.376
99.5028
-765.013
130.969
-801.152
84.9274
-815.451
76.6467
-833.355
57.8299
62.0806
-691.033
-695.468
-674.097
-669.389
-636.203
-626.853
-682.604
-717.355
-730.689
)
;

boundaryField
{
    inlet
    {
        type            fixedValue;
        value           nonuniform 0();
    }
    outlet
    {
        type            calculated;
        value           nonuniform List<scalar> 
20
(
530.327
651.522
572.524
768.753
389.732
281.539
332.946
404.561
-11.7136
-86.2642
1.57818
-157.161
-944.305
-799.432
-967.683
-924.044
-810.531
-833.602
-825.174
-737.437
)
;
    }
    bottom
    {
        type            fixedValue;
        value           uniform 0;
    }
    top
    {
        type            symmetryPlane;
        value           nonuniform List<scalar> 
40
(
-1.48342e-17
-1.39469e-17
-1.31321e-17
-1.35522e-17
-1.51486e-17
-1.3824e-17
-1.38437e-17
-1.38493e-17
-1.48582e-17
-1.42256e-17
-1.39981e-17
-1.44996e-17
-1.52783e-17
-1.41446e-17
-1.44559e-17
-1.50788e-17
-1.47745e-17
-1.41033e-17
-1.46482e-17
-1.51461e-17
-1.45529e-17
-1.39841e-17
-1.45549e-17
-1.56885e-17
-1.41189e-17
-1.35158e-17
-1.43237e-17
-1.54681e-17
-1.40283e-17
-1.31978e-17
-1.37958e-17
-1.57109e-17
-1.36717e-17
-1.2899e-17
-1.3459e-17
-1.5106e-17
-1.04993e-16
-1.13483e-16
-1.04581e-16
-9.40202e-17
)
;
    }
    side1
    {
        type            symmetryPlane;
        value           nonuniform 0();
    }
    side2
    {
        type            symmetryPlane;
        value           nonuniform 0();
    }
    procBoundary23to15
    {
        type            processor;
        value           nonuniform List<scalar> 
50
(
42.3334
-1.62478
124.076
24.5236
-91.7207
53.7845
-115.318
-96.6824
-91.4929
-209.318
-112.959
-192.972
-116.482
-159.148
-72.2012
-95.5893
59.3208
-66.7009
31.5724
-296.758
-195.914
-189.946
-187.696
-150.191
-128.639
-76.1884
-128.158
-100.614
-295.88
-262.349
-192.064
-168.132
-145.421
-105.522
-90.4313
-72.5928
-63.3834
-70.6752
-123.297
-153.06
-140.75
-110.731
-99.6363
-85.9594
-64.8379
-55.1149
-47.4298
-46.0845
-46.1681
-54.2382
)
;
    }
    procBoundary23to22
    {
        type            processor;
        value           nonuniform List<scalar> 
20
(
-427.645
-285.514
-327.557
-203.762
-351.459
-379.499
-233.984
-178.994
-299.642
-166.778
-59.1919
14.9463
289.92
382.681
428.308
461.638
530.586
629.42
670.555
714.214
)
;
    }
    procBoundary23to31
    {
        type            processor;
        value           nonuniform List<scalar> 
50
(
96.0962
94.2234
125.413
92.9708
103.974
90.9211
97.3938
179.829
301.881
506.505
142.357
146.594
130.742
138.043
68.5245
72.3768
82.9083
135.667
245.983
141.139
199.317
186.423
152.645
136.375
93.3403
111.347
100.434
211.259
133.055
193.689
186.565
155.053
147.571
144.479
166.478
203.053
161.417
122.987
95.4176
103.061
114.166
94.0345
92.7219
86.5213
95.1964
114.291
147.848
101.504
87.3598
58.9364
)
;
    }
}


// ************************************************************************* //
