/*--------------------------------*- C++ -*----------------------------------*\
| =========                 |                                                 |
| \\      /  F ield         | OpenFOAM: The Open Source CFD Toolbox           |
|  \\    /   O peration     | Version:  2.4.0                                 |
|   \\  /    A nd           | Web:      www.OpenFOAM.org                      |
|    \\/     M anipulation  |                                                 |
\*---------------------------------------------------------------------------*/
FoamFile
{
    version     2.0;
    format      ascii;
    class       volVectorField;
    location    "0.1";
    object      Ur;
}
// * * * * * * * * * * * * * * * * * * * * * * * * * * * * * * * * * * * * * //

dimensions      [0 1 -1 0 0 0 0];

internalField   nonuniform List<vector> 
200
(
(-1.85916e+08 -5.63368e+07 -9.51462e+07)
(-1.86154e+08 1.03493e+08 2.44253e+08)
(-2.61759e+08 -1.79085e+07 -4.75623e+07)
(-2.02373e+08 -1.77485e+07 1.8516e+08)
(-2.68256e+08 7.37576e+07 -1.06553e+08)
(-3.01237e+08 -1.14167e+08 7.72756e+07)
(-2.42318e+08 9.45759e+07 -8.99343e+07)
(-3.43317e+08 -1.03856e+08 -7.03287e+07)
(-2.56883e+08 -1.99303e+08 1.14317e+08)
(-2.1827e+08 -1.46714e+08 -3.38564e+07)
(-1.22296e+08 1.00065e+08 2.34367e+08)
(-2.03344e+08 -5.02387e+07 -2.86104e+07)
(-1.79709e+08 4.23889e+07 2.36174e+08)
(-2.34463e+08 -3.18737e+07 -9.42358e+07)
(-2.40008e+08 -1.17939e+07 2.12081e+08)
(-2.20803e+08 3.66231e+07 -1.36398e+08)
(-2.88489e+08 -5.81678e+07 1.41267e+08)
(-2.18102e+08 -5.42047e+07 -2.3077e+07)
(-2.12086e+08 -1.16613e+08 -4.40566e+07)
(-2.43568e+08 -3.95947e+08 3.93997e+08)
(-1.62024e+08 -9.79251e+07 1.67522e+08)
(-1.32716e+08 4.86212e+07 1.65335e+08)
(-2.03714e+08 -8.22244e+07 -8.27145e+06)
(-1.79963e+08 3.94817e+07 2.36566e+08)
(-2.14176e+08 -3.95677e+07 -1.16487e+08)
(-2.25368e+08 -4.70185e+07 1.82408e+08)
(-1.69318e+08 9.01853e+07 -2.39148e+08)
(-1.95252e+08 -1.10223e+08 1.18002e+08)
(-2.05546e+08 -3.666e+08 3.59691e+08)
(-2.31058e+08 -1.1344e+08 -1.09856e+08)
(-5.90399e+07 3.417e+06 -6.21439e+06)
(-1.56372e+08 -1.27256e+08 1.5431e+08)
(-9.42169e+07 -3.07285e+07 1.63042e+07)
(-1.59862e+08 -1.40619e+08 2.46336e+08)
(-1.78559e+08 -1.80597e+07 1.75646e+08)
(-2.09215e+08 -6.07622e+07 -1.37762e+08)
(-2.00604e+08 -9.13647e+07 2.90258e+08)
(-1.69619e+08 -1.55467e+08 7.73187e+07)
(-1.81177e+08 -1.19416e+08 -4.69488e+07)
(-2.85473e+08 -6.6274e+08 8.00292e+08)
(-1.63102e+08 -7.19798e+07 6.83311e+07)
(-1.83536e+08 -1.55808e+08 2.76498e+08)
(-2.10726e+08 -1.26207e+08 5.37116e+07)
(-2.2132e+08 -4.89844e+07 1.88733e+08)
(-2.57376e+08 -1.74937e+08 8.30152e+06)
(-2.40261e+08 8.1973e+07 7.99496e+07)
(-2.91173e+08 -2.32945e+08 -5.20438e+07)
(-2.85275e+08 4.06978e+08 -8.88267e+07)
(-2.94431e+08 -1.61218e+08 -7.25712e+07)
(-1.37917e+08 -4.06405e+08 1.33985e+08)
(-1.48549e+08 -1.85977e+08 3.24835e+08)
(-1.41044e+08 -9.06959e+07 3.6994e+07)
(-1.87175e+08 -1.12109e+08 2.66451e+08)
(-1.76871e+08 -1.40529e+08 3.93033e+06)
(-2.00243e+08 -6.61558e+07 1.62812e+08)
(-2.43677e+08 -1.09862e+08 1.08092e+07)
(-2.18009e+08 9.99306e+07 2.98197e+07)
(-2.50868e+08 -1.64891e+08 -7.90236e+07)
(-1.05244e+08 -3.66852e+08 1.61141e+08)
(-1.45324e+08 -1.78684e+08 -9.93156e+07)
(-8.6674e+07 -8.06429e+07 -1.78414e+07)
(-1.46353e+08 -1.48501e+08 3.40242e+08)
(-1.21731e+08 -9.97784e+07 -1.02645e+07)
(-1.60065e+08 -1.2038e+08 2.20009e+08)
(-1.53779e+08 -8.45438e+07 -9.66229e+06)
(-1.45897e+08 -3.14779e+07 7.78844e+07)
(-2.12555e+08 -1.22509e+08 -3.7655e+07)
(-1.19492e+08 -1.69919e+08 8.84232e+07)
(-1.65193e+08 -1.27179e+08 -4.37399e+07)
(-1.34476e+08 -5.42799e+08 5.24993e+08)
(-1.04432e+08 -1.54999e+08 3.65144e+08)
(-5.94482e+07 -7.99811e+07 -5.93734e+07)
(-1.21656e+08 -1.44987e+08 3.06483e+08)
(-5.40223e+07 -7.8095e+07 -6.98248e+07)
(-1.0069e+08 -1.3588e+08 4.51309e+08)
(-1.46468e+08 -6.59342e+07 2.67643e+07)
(-1.01464e+08 -4.94243e+07 8.48013e+06)
(-1.69706e+08 -1.36533e+08 -6.17063e+07)
(-1.23432e+08 -2.40849e+08 1.88006e+08)
(-1.78353e+08 -1.59285e+08 -1.0635e+08)
(-1.0936e+08 -1.99529e+08 3.84058e+08)
(-7.10084e+07 -1.50591e+08 1.8621e+07)
(-4.97449e+07 -1.70471e+08 3.66904e+08)
(-4.41954e+07 -1.2276e+08 1.81061e+07)
(-1.67671e+07 -9.28546e+07 3.08614e+08)
(-2.0699e+07 -1.04231e+08 -1.55414e+07)
(-5.26778e+07 -3.45361e+07 1.73152e+08)
(-1.12587e+07 -6.45487e+07 -4.80301e+07)
(-4.72811e+07 -4.15908e+08 9.23497e+07)
(-482708 -3.1334e+07 -2.02937e+07)
(-4.76305e+07 -1.73797e+08 -7.94138e+06)
(-3.64966e+07 -2.04132e+08 3.77342e+08)
(-2.39682e+07 -1.39091e+08 8.5362e+06)
(-1.06839e+06 -1.48743e+08 3.16281e+08)
(-9.68391e+06 -1.07169e+08 -3.462e+06)
(9.5498e+06 -8.3748e+07 2.51576e+08)
(1.29147e+07 -5.48392e+07 -2.32329e+07)
(194967 -3.02263e+08 1.5519e+08)
(-877355 -4.22431e+07 -3.21178e+06)
(1.56222e+07 -5.01484e+08 2.45734e+08)
(-2.81695e+07 -2.24622e+08 3.92817e+08)
(-7.41436e+06 -1.54945e+08 -1.4929e+07)
(5.11589e+06 -1.73279e+08 3.22864e+08)
(1.06594e+07 -1.19895e+08 -2.10703e+07)
(3.31134e+07 -1.31472e+08 2.6996e+08)
(2.39593e+07 -6.93469e+07 -1.25442e+07)
(4.45152e+07 -1.61679e+08 1.94612e+08)
(1.31629e+07 -9.74707e+06 1.3296e+07)
(4.07414e+07 -3.44825e+08 1.49572e+08)
(-621354 -1.60127e+08 -1.4699e+08)
(1.96198e+07 -1.62757e+08 -5.26696e+07)
(6.12697e+06 -1.79415e+08 3.29358e+08)
(1.35439e+07 -1.27358e+08 -5.39586e+07)
(4.15518e+07 -1.4268e+08 2.75038e+08)
(1.1376e+07 -8.19574e+07 -1.75498e+07)
(7.41999e+07 -1.18564e+08 2.05321e+08)
(1.72796e+07 -2.7706e+07 1.54794e+07)
(8.64574e+07 -1.96852e+08 1.28682e+08)
(4.65356e+07 -1.11951e+08 -3.94765e+07)
(5.46781e+07 -1.00548e+08 6.85637e+06)
(1.43299e+08 -1.51126e+08 -7.23976e+07)
(1.68407e+08 -1.61191e+08 2.05903e+08)
(2.14867e+08 -1.03143e+08 -6.01755e+07)
(2.50563e+08 -1.22714e+08 1.73923e+08)
(3.02731e+08 -4.38861e+07 -8.95986e+07)
(3.08917e+08 -7.93429e+07 1.45466e+08)
(3.42462e+08 -5.62748e+07 -1.26986e+08)
(3.72514e+08 -6.10187e+07 1.08689e+08)
(3.67952e+08 -8.39786e+07 -1.16758e+08)
(3.38584e+08 -2.06848e+08 1.26957e+08)
(1.63753e+08 -1.86105e+08 2.22632e+08)
(2.0936e+08 -1.24539e+08 -7.48558e+07)
(2.29522e+08 -1.57442e+08 1.5015e+08)
(2.65978e+08 -1.11335e+08 -6.44722e+07)
(2.97003e+08 -1.1513e+08 1.49473e+08)
(3.44142e+08 -4.61307e+07 -1.03477e+08)
(3.39646e+08 -6.45126e+07 1.07579e+08)
(3.55138e+08 -8.74341e+07 -1.21293e+08)
(3.62582e+08 -5.83933e+07 8.49336e+07)
(3.15078e+08 -1.00114e+08 -1.34412e+08)
(1.9181e+08 -1.6831e+08 -8.05313e+07)
(2.08168e+08 -1.62371e+08 1.54519e+08)
(2.42408e+08 -1.01661e+08 -8.72888e+07)
(2.54221e+08 -1.68035e+08 1.13674e+08)
(2.87396e+08 -1.12818e+08 -7.44414e+07)
(3.243e+08 -1.08763e+08 1.27969e+08)
(3.82211e+08 -4.18061e+07 -1.14101e+08)
(3.78262e+08 -5.03123e+07 9.49535e+07)
(3.99174e+08 -7.64835e+07 -1.27385e+08)
(3.78208e+08 -4.95834e+07 7.99441e+07)
(1.83776e+08 -1.71546e+08 1.72944e+08)
(2.09038e+08 -1.21895e+08 -8.79828e+07)
(2.15093e+08 -1.49101e+08 1.08457e+08)
(2.42896e+08 -8.85465e+07 -1.01109e+08)
(2.4371e+08 -1.84862e+08 9.31626e+07)
(2.82971e+08 -1.25498e+08 -8.4511e+07)
(3.22088e+08 -1.1644e+08 1.11228e+08)
(3.75474e+08 -6.20907e+07 -1.18288e+08)
(3.75398e+08 -6.41948e+07 9.20119e+07)
(3.74413e+08 -8.2134e+07 -1.32658e+08)
(2.14932e+08 -1.09803e+08 2.13272e+08)
(2.51535e+08 -9.09181e+07 -1.61357e+08)
(2.45609e+08 -8.82849e+07 1.8466e+08)
(2.75943e+08 -7.30092e+07 -1.34092e+08)
(2.7959e+08 -6.52586e+07 1.91167e+08)
(3.0464e+08 -3.6551e+07 -1.43387e+08)
(2.99206e+08 -5.25097e+07 1.82712e+08)
(3.15485e+08 -3.03924e+07 -1.50233e+08)
(3.13285e+08 -4.95662e+07 1.83534e+08)
(3.24066e+08 -4.1477e+07 -1.46457e+08)
(2.67963e+08 -1.31939e+08 -1.67259e+08)
(2.59461e+08 -9.73061e+07 1.91217e+08)
(2.91878e+08 -7.42885e+07 -1.46959e+08)
(2.76149e+08 -8.46542e+07 1.68089e+08)
(3.05363e+08 -6.53749e+07 -1.27871e+08)
(3.13958e+08 -6.41624e+07 1.84001e+08)
(3.32893e+08 -3.88096e+07 -1.32699e+08)
(3.2991e+08 -5.20953e+07 1.82677e+08)
(3.3826e+08 -3.37909e+07 -1.48271e+08)
(3.26008e+08 -4.82424e+07 1.82202e+08)
(2.62483e+08 -1.09034e+08 1.95305e+08)
(2.90155e+08 -9.97109e+07 -1.46889e+08)
(2.70952e+08 -9.83187e+07 1.5655e+08)
(2.9601e+08 -5.77937e+07 -1.52165e+08)
(2.7056e+08 -1.14382e+08 1.34292e+08)
(3.02355e+08 -6.46048e+07 -1.30976e+08)
(3.10779e+08 -7.00276e+07 1.62866e+08)
(3.28013e+08 -3.49132e+07 -1.3294e+08)
(3.25845e+08 -5.31399e+07 1.62963e+08)
(3.35145e+08 -3.81881e+07 -1.4171e+08)
(2.92735e+08 -1.15964e+08 -1.66156e+08)
(2.67206e+08 -8.50687e+07 1.61909e+08)
(2.83028e+08 -6.73414e+07 -1.38727e+08)
(2.61062e+08 -9.93367e+07 1.22682e+08)
(2.7256e+08 -4.49031e+07 -1.62692e+08)
(2.35259e+08 -1.45132e+08 1.01319e+08)
(2.67689e+08 -6.48615e+07 -1.35012e+08)
(2.78029e+08 -8.43201e+07 1.39516e+08)
(2.91897e+08 -3.82214e+07 -1.37032e+08)
(2.9582e+08 -5.50195e+07 1.5541e+08)
)
;

boundaryField
{
    inlet
    {
        type            calculated;
        value           nonuniform 0();
    }
    outlet
    {
        type            calculated;
        value           nonuniform List<vector> 
20
(
(-2.1827e+08 -1.46714e+08 -3.38564e+07)
(-2.43568e+08 -3.95947e+08 3.93997e+08)
(-2.31058e+08 -1.1344e+08 -1.09856e+08)
(-2.85473e+08 -6.6274e+08 8.00292e+08)
(-1.37917e+08 -4.06405e+08 1.33985e+08)
(-1.45324e+08 -1.78684e+08 -9.93156e+07)
(-1.34476e+08 -5.42799e+08 5.24993e+08)
(-1.78353e+08 -1.59285e+08 -1.0635e+08)
(-482708 -3.1334e+07 -2.02937e+07)
(1.56222e+07 -5.01484e+08 2.45734e+08)
(-621354 -1.60127e+08 -1.4699e+08)
(5.46781e+07 -1.00548e+08 6.85637e+06)
(3.38584e+08 -2.06848e+08 1.26957e+08)
(3.15078e+08 -1.00114e+08 -1.34412e+08)
(3.78208e+08 -4.95834e+07 7.99441e+07)
(3.74413e+08 -8.2134e+07 -1.32658e+08)
(3.24066e+08 -4.1477e+07 -1.46457e+08)
(3.26008e+08 -4.82424e+07 1.82202e+08)
(3.35145e+08 -3.81881e+07 -1.4171e+08)
(2.9582e+08 -5.50195e+07 1.5541e+08)
)
;
    }
    bottom
    {
        type            calculated;
        value           uniform (0 0 0);
    }
    top
    {
        type            symmetryPlane;
    }
    side1
    {
        type            symmetryPlane;
    }
    side2
    {
        type            symmetryPlane;
    }
    procBoundary23to15
    {
        type            processor;
        value           nonuniform List<vector> 
50
(
(-1.82726e+08 1.61206e+08 2.46279e+08)
(-1.90198e+08 -1.20532e+08 -5.09428e+07)
(-1.40144e+08 2.34574e+08 3.62163e+08)
(-3.06741e+08 4.21719e+07 -1.79816e+07)
(-3.15422e+08 -2.2231e+08 -1.0734e+07)
(-3.00291e+08 2.03674e+08 -5.87031e+06)
(-3.65362e+08 -3.01772e+08 5.15161e+07)
(-2.75431e+08 -3.09132e+07 -3.20965e+07)
(-3.89212e+08 3.95413e+07 -8.52548e+07)
(-2.7801e+08 -1.93481e+08 1.50378e+08)
(-1.92497e+08 -1.3333e+08 1.21812e+07)
(-2.3524e+08 -1.39784e+08 3.53415e+07)
(-2.06861e+08 -7.75488e+07 2.38162e+08)
(-2.51669e+08 -1.93518e+08 2.79341e+07)
(-2.33288e+08 5.38518e+07 1.70917e+08)
(-2.7871e+08 -2.34772e+08 -1.07392e+07)
(-2.08371e+08 3.4713e+08 2.2262e+07)
(-3.66756e+08 -5.29753e+08 7.02459e+07)
(-3.5534e+08 2.64099e+08 -2.02999e+08)
(-3.41129e+08 -8.64468e+07 -8.11156e+07)
(-1.33603e+08 -1.1061e+08 6.98127e+07)
(-1.22517e+08 -1.58089e+08 3.73545e+08)
(-1.09552e+08 -1.3078e+08 3.45087e+07)
(-7.30571e+07 -1.2292e+08 3.55694e+08)
(-8.61527e+07 -1.16242e+08 7.42269e+06)
(-6.03373e+07 -1.57663e+07 2.90532e+08)
(-1.02499e+08 -1.71236e+08 -2.4492e+07)
(-1.03992e+08 -7.08911e+07 6.56692e+07)
(-2.71835e+07 -4.28951e+07 -4.96852e+07)
(-8.41225e+07 -3.95671e+08 5.72861e+07)
(8.08315e+07 -1.58202e+08 2.66856e+08)
(1.34534e+08 -1.08415e+08 -6.83169e+07)
(1.63639e+08 -1.32588e+08 2.06501e+08)
(2.16706e+08 -4.88952e+07 -8.50484e+07)
(2.36226e+08 -1.09281e+08 1.71111e+08)
(2.71391e+08 -4.59639e+07 -1.03031e+08)
(2.7136e+08 -6.1045e+07 1.30712e+08)
(2.9033e+08 -3.74534e+07 -1.16482e+08)
(3.1051e+08 -1.15609e+08 1.35839e+08)
(3.2333e+08 -2.68322e+07 -1.28475e+08)
(1.94267e+08 -1.11506e+08 -1.90377e+08)
(1.94455e+08 -8.94951e+07 2.12951e+08)
(2.23285e+08 -6.80089e+07 -1.65809e+08)
(2.2764e+08 -6.83546e+07 1.99701e+08)
(2.55243e+08 -3.57726e+07 -1.49678e+08)
(2.54187e+08 -5.66397e+07 2.05345e+08)
(2.7452e+08 -2.28167e+07 -1.5502e+08)
(2.65087e+08 -5.13686e+07 1.89989e+08)
(2.82434e+08 -2.51433e+07 -1.667e+08)
(2.6756e+08 -5.48183e+07 1.88641e+08)
)
;
    }
    procBoundary23to22
    {
        type            processor;
        value           nonuniform List<vector> 
20
(
(-1.35035e+08 1.48766e+08 3.39979e+08)
(-1.36308e+08 -6.82187e+07 6.93985e+07)
(-8.14243e+07 2.99156e+07 3.00806e+07)
(-1.16988e+08 -1.29996e+08 2.87522e+08)
(-1.67231e+08 -1.49725e+08 2.471e+07)
(-1.21358e+08 -6.08854e+07 4.86567e+07)
(-1.23511e+08 -1.75043e+08 3.76415e+08)
(-2.22684e+07 -9.53954e+07 -9.71225e+07)
(-1.09229e+08 -1.2818e+08 5.46666e+07)
(-9.16788e+07 -2.33462e+08 3.98698e+08)
(-1.75137e+07 -1.91237e+08 -5.43604e+07)
(-562596 -2.23213e+08 4.04284e+08)
(8.4795e+07 -1.93938e+08 2.89165e+08)
(1.43009e+08 -2.03921e+08 -7.87858e+07)
(1.54141e+08 -2.15375e+08 2.51025e+08)
(1.84474e+08 -1.96799e+08 -1.04183e+08)
(2.15485e+08 -1.53871e+08 -1.88814e+08)
(2.29875e+08 -1.33786e+08 2.20432e+08)
(2.80271e+08 -1.64291e+08 -1.87652e+08)
(2.71879e+08 -1.0181e+08 2.17021e+08)
)
;
    }
    procBoundary23to31
    {
        type            processor;
        value           nonuniform List<vector> 
50
(
(-9.82173e+07 -1.47584e+08 1.63401e+08)
(-3.67615e+07 -3.40832e+07 -2.18939e+07)
(-1.13996e+08 -1.59937e+08 1.74397e+08)
(-1.1906e+08 -2.73107e+07 1.32881e+08)
(-1.82336e+08 -1.23461e+08 -9.91538e+07)
(-1.41662e+08 -9.53679e+07 1.5282e+08)
(-1.33168e+08 -3.60691e+07 -1.19292e+08)
(-1.28482e+08 -1.31649e+08 1.55808e+07)
(-7.73901e+07 -3.69806e+08 2.99953e+08)
(-1.8046e+08 -1.44732e+08 -1.19661e+08)
(-1.38324e+06 -7.98452e+07 -9.33004e+07)
(-8.32126e+07 -1.36624e+08 2.96669e+08)
(-3.68742e+07 -6.80998e+07 -6.05348e+07)
(-6.26935e+07 -1.41803e+08 4.45328e+08)
(-7.22373e+07 -1.02615e+07 1.08065e+07)
(-7.2556e+07 -2.961e+07 1.86983e+07)
(-1.09875e+08 -1.09107e+08 -2.18676e+07)
(-4.10544e+07 -7.58337e+07 2.71638e+07)
(-1.22192e+08 -1.75898e+08 -7.20679e+07)
(-4.16943e+07 -8.51025e+07 -5.28044e+07)
(3.18623e+07 -1.60216e+08 3.25596e+08)
(3.53695e+07 -1.14144e+08 -7.17702e+07)
(2.26459e+07 -1.13717e+08 2.51224e+08)
(2.34275e+07 -7.43528e+07 -3.9826e+07)
(7.39485e+07 -7.54879e+07 1.62652e+08)
(2.384e+07 -7.10033e+07 -1.23917e+07)
(8.98431e+07 -1.18466e+08 1.15306e+08)
(6.27261e+07 -1.49013e+08 -2.90423e+07)
(8.81968e+07 -7.94305e+07 1.06052e+08)
(5.75888e+07 -2.0722e+08 -8.75503e+07)
(1.96868e+08 -1.26582e+08 -1.03773e+08)
(1.87163e+08 -1.2762e+08 1.13759e+08)
(2.04603e+08 -8.45791e+07 -8.33077e+07)
(2.05565e+08 -1.44039e+08 7.87413e+07)
(2.33701e+08 -7.98844e+07 -1.18999e+08)
(2.09361e+08 -1.99435e+08 6.34944e+07)
(2.51981e+08 -1.43508e+08 -9.81198e+07)
(2.86173e+08 -1.31289e+08 1.02607e+08)
(3.33729e+08 -8.75721e+07 -1.20916e+08)
(3.29451e+08 -7.30343e+07 9.50846e+07)
(2.68061e+08 -6.23568e+07 1.76614e+08)
(2.79426e+08 -6.86876e+07 -1.53126e+08)
(2.4827e+08 -7.77276e+07 1.15379e+08)
(2.54874e+08 -4.07914e+07 -1.27659e+08)
(2.33283e+08 -1.0586e+08 8.70131e+07)
(2.2732e+08 -3.61463e+07 -1.7093e+08)
(1.81004e+08 -1.73037e+08 7.17836e+07)
(2.11344e+08 -7.65805e+07 -1.41652e+08)
(2.16448e+08 -9.91129e+07 1.20398e+08)
(2.42873e+08 -4.08597e+07 -1.34161e+08)
)
;
    }
}


// ************************************************************************* //
