/*--------------------------------*- C++ -*----------------------------------*\
| =========                 |                                                 |
| \\      /  F ield         | OpenFOAM: The Open Source CFD Toolbox           |
|  \\    /   O peration     | Version:  2.4.0                                 |
|   \\  /    A nd           | Web:      www.OpenFOAM.org                      |
|    \\/     M anipulation  |                                                 |
\*---------------------------------------------------------------------------*/
FoamFile
{
    version     2.0;
    format      ascii;
    class       volSymmTensorField;
    location    "0.05";
    object      B;
}
// * * * * * * * * * * * * * * * * * * * * * * * * * * * * * * * * * * * * * //

dimensions      [0 2 -2 0 0 0 0];

internalField   nonuniform List<symmTensor> 
200
(
(2464.71 328.592 428.96 2207.27 -295.517 1746.5)
(3419.51 194.741 1356.01 2192.42 97.8413 1517.24)
(2671.14 279.427 765.8 2479.3 -283.646 2354.73)
(1562.46 221.858 708.005 1120.43 168.286 966.305)
(2612.94 166.193 967.021 2523.34 -192.883 2289.94)
(919.886 132.127 443.208 895.894 127.329 681.318)
(2680.73 17.7977 930.759 2765.12 -133.998 2248.38)
(891.963 75.6788 342.942 893.447 130.476 547.884)
(3309.18 -96.4028 901.898 3213.9 -92.3592 2264.15)
(1119.75 53.1849 317.602 1065.94 160.308 586.411)
(7188.24 -510.369 1598.99 6098.09 -118.543 4446.14)
(3233.39 219.177 711.754 3273.64 -455.173 2998.57)
(3265.21 119.892 1784.02 2018.69 126.333 1766.38)
(3604.35 283.92 1582.32 3719.61 -696.284 3766.44)
(1264.03 190.426 716.119 962.489 174.993 989.695)
(3371.43 90.1237 1442.34 3329.85 -396.058 3276.24)
(950.69 120.83 471.429 949.819 157.935 850.968)
(3181.4 -16.209 1252.46 3261.77 -183.964 2949.81)
(1077.87 77.8732 406.601 1107.18 224.447 863.98)
(3128.08 -103.897 1093.18 3112.89 43.0912 2499.12)
(3207 354.997 903.497 2795.4 -1232.35 1000.43)
(8329.61 -907.713 3472.11 5297.42 -148.633 4180.35)
(5017.43 248.217 2030.64 5916.98 -1121.47 5308.4)
(2059.53 77.6205 1600.62 1052.09 195.265 1274.89)
(4069.79 -20.4321 2165.64 4936.79 -933.923 4868.32)
(649.707 66.7883 484.63 540.792 149.426 621.096)
(3496.16 -157.143 1600.11 3574.55 -425.585 3596.71)
(667.701 29.7656 318.475 674.42 119.453 670.576)
(3358.28 -177.185 1330.55 3230.29 -128.525 3272.04)
(952.954 25.2837 347.723 948.009 183.816 916.87)
(19365.4 -1735.69 4563.18 15732 -4376.96 11716.3)
(6273.44 473.108 2568.54 7735.58 1643.35 4754.6)
(10311.3 -407.952 3853.22 10089.5 -4401.79 7879.86)
(5579.19 300.69 2834.41 8283.27 2004.2 6870.75)
(3439.64 -105.145 1363.5 3953.38 -2510.31 3374.93)
(4132.21 164.841 2007.63 5362.22 1628.51 5022.47)
(1680.85 -156 561.712 1778.56 -1157.82 1672.7)
(4037.48 129.467 1428.16 3815.19 1128.28 3925.23)
(1345.85 -111.715 481.733 1128.43 -617.647 1229.14)
(4349.62 53.493 1264.37 3643.06 828.373 4024.45)
(10978.1 148.037 914.944 9826.11 -49.0756 8751.39)
(3631.44 480.245 896.608 2658.48 -323.614 2004.05)
(4529.59 74.7395 1163.98 1733.68 616.737 -81.6809)
(1544.54 265.579 335.844 1112.62 -65.8101 839.295)
(941.231 282.305 145.725 542.758 306.55 108.617)
(895.411 171.249 208.096 814.926 18.8478 585.538)
(669.63 202.388 -16.8862 707.086 235.001 523.873)
(920.569 159.943 -80.8859 995.21 162.585 846.479)
(422.158 210.929 -135.556 658.986 126.012 372.908)
(2333.23 99.4804 -177.104 2689.66 -456.135 2554.82)
(5472.27 1098.91 2011.33 3068.17 -1523.84 386.323)
(13402.4 -500.404 3273.15 7682.43 359.35 5766.6)
(2299.29 380.993 917.294 1653.76 -584.887 1114.56)
(3167.56 287.535 552.637 1346.05 491.057 463.298)
(1240.84 175.197 346.587 843.054 -226.625 625.105)
(488.618 153.106 40.0955 339.095 215.934 87.613)
(859.791 37.5323 220.325 824.837 -99.4602 663.558)
(405.568 107.096 -17.2511 422.539 148.753 327.321)
(799.157 82.8793 101.504 884.573 148.85 825.756)
(734.689 131.564 -26.1642 887.038 263.121 767.825)
(10370.9 -421.971 2588.79 5792.28 1055.29 5200.97)
(5100.94 1083.14 2960.78 5584.07 -2501.89 2428.37)
(4885.87 166.887 1191.53 2775.78 382.952 1933.77)
(1693.63 236.469 1196.3 2376.12 -1061.07 1255.17)
(669.869 91.4438 112.37 415.537 269.592 -25.6212)
(917.275 -78.1982 321.841 871.472 -338.934 593.913)
(131.106 9.16595 9.08529 171.879 103.311 41.9998)
(918.707 -140.343 269.645 898.448 -171.619 783.307)
(164.307 19.9338 5.75046 181.974 102.564 134.563)
(1516.84 -122.267 474.008 1406.95 -9.58975 1507.48)
(8517.41 887.356 4427.31 12450.3 2395.03 2987.99)
(10487.7 426.196 3032.01 12121.7 -4215.32 7365.58)
(4207.33 292.403 3607.82 10053.6 2205.56 4308.78)
(4134.36 267.285 692.039 5250.97 -2131.32 2116.32)
(1924.7 43.1977 1150.46 4227.05 1324.42 2026.37)
(1433.21 -125.177 -20.5072 2074.68 -858.384 769.138)
(1654.84 46.4458 448.467 2003.22 725.392 1264.79)
(661.511 -131.487 24.6057 933.166 -483.247 408.8)
(1453.72 -39.5853 410.467 1351 447.235 1111)
(339.417 -56.9653 105.808 301.994 -254.734 202.577)
(978.712 -838.195 1526.77 -60.2627 -1052.82 -125.36)
(18008.5 3.06833 5961.7 11104.8 1363.65 13364.4)
(2121.7 661.207 1498.38 1334.79 -311.988 2007.06)
(4684.04 885.862 1818.58 3008.33 872.267 4567.49)
(1610.75 533.81 650.996 1304.01 -53.0628 1898.66)
(2745.55 769.742 195.691 2508.2 521.657 3163.68)
(1832.07 596.702 122.891 2670.76 73.0114 2574.65)
(6743.13 351.468 -281.436 9137.92 526.975 8189.98)
(13673.7 -2040.83 -174.661 18221.4 -109.349 17770.6)
(3373.66 260.425 -388.864 8587.47 339.233 6509.67)
(29871.5 -2184.19 5707.89 23069.6 4103.16 28072.6)
(5559.66 1523.83 5099.16 4720.9 -2158.07 3977.95)
(11485.5 901.433 2644.68 8302.78 1236.36 10886.8)
(1177.69 970.841 1651.71 974.904 -632.35 1097.76)
(3064.55 706.536 689.397 2945.2 810.894 4390.19)
(249.779 182.111 271.691 202.992 -102.345 252.091)
(1379.84 368.675 -16.0995 1264.86 500.268 1998.46)
(872.221 234.004 93.0352 815.041 12.7998 928.658)
(5284.85 632.173 -127.917 5745.1 511.421 5722.82)
(48904.6 -2786.44 213.672 53850.1 -275.353 52232)
(14080.6 3351.95 12668.5 16000.5 -6388.18 5229.54)
(11671.1 26.5117 2462.45 9870.29 1853.06 13374.7)
(3114.86 1836.54 5678.58 8262.29 -2752.82 5362.84)
(6171.99 733.075 1058.43 6157.05 788.575 8500.09)
(-24.1887 248.659 879.308 1060.4 -700.012 148.055)
(2067.67 306.745 142.917 2500.85 422.03 3683.15)
(179.091 -23.8707 89.5145 184.798 -163.617 -12.8501)
(1058.11 165.512 -58.5979 1099.91 276.301 1786.9)
(1720.65 27.1559 105.567 1333.16 -73.2968 1434.58)
(1187.86 207.147 -35.4633 641.2 284.711 1225.4)
(26768.5 -113.735 4875.47 33935.4 -12645.9 30237.8)
(12234.3 1033.05 12731.2 28601.7 6318.56 13205.2)
(10819.6 1004.93 1763.05 16651.8 -5034.51 14827.9)
(2293.93 251.98 4569.7 11336.1 2856.78 6025.79)
(4866.37 239.814 423.354 6993.85 -2094.04 7077.99)
(1001.89 71.0669 773.186 2317.28 1090.56 810.116)
(2873.64 -86.5521 130.089 3424.25 -1229.62 3941.95)
(898.41 -26.1092 252.63 837.076 475.574 531.813)
(2121.94 -42.8885 109.713 1846.44 -722.205 2563.85)
(2481.64 -251.081 220.738 1722.82 262.388 1798.64)
(59456.8 -7220.2 4180.49 57303 7824.54 70326.7)
(1409.16 1333.77 4320.15 1024.97 -2237.57 -2031.72)
(11738.2 136.339 1788.71 11521 3816.61 17127.5)
(-100.015 984.563 595.119 443.082 -228.864 373.175)
(5965.14 1005.88 -289.602 8121.75 1945.66 9533.76)
(1216.93 482.354 -93.0886 2407.23 -235.367 1872.84)
(6128.52 907.601 -925.044 9570.52 1413.56 9730.19)
(2855.83 -893.875 704.185 6232.57 -189.677 4872.7)
(7125.37 171.102 -781.599 13807.9 1497.21 12989.9)
(3751.31 2028.12 123.665 2328.53 2204.84 3733.43)
(16461.2 2143.51 14128.1 15966.3 -5172.8 1388.64)
(24376.7 -2603.64 960.238 27657.2 9132.24 40553.8)
(-3198.61 1939.09 3115.62 1007.23 -1351.96 -2957.12)
(14197 621.804 -751.872 16031.2 4300.42 21007.3)
(-313.633 241.049 -55.4433 210.435 -284.049 -281.005)
(8660.96 533.082 -2047.9 9868.47 2377.49 13844.9)
(309.986 136.271 -19.6689 329.875 -141.903 129.544)
(6244.67 1190.75 -1158.68 7062.18 1311.6 8945.24)
(7867.3 -434.866 223.211 9333.21 -320.297 8341.37)
(4138.57 -753.974 -1140.18 8346.9 646.239 8134.28)
(20781.6 -4953.67 118.562 21276.5 3816.7 32369.1)
(3528.04 1663.4 13133.1 15804.1 -4990.73 935.387)
(11216.9 106.777 -372.219 13200 2265.2 19137.4)
(-2658.64 704.141 -21.268 2459.96 -779.678 -1213.83)
(8437.2 281.283 -2742.12 9611.09 1336.11 14038.9)
(-215.767 8.99349 -239.718 421.45 -346.129 -265.886)
(6800.14 36.3285 -2134.49 6839.65 1066.36 11058)
(654.665 -19.5815 33.0831 338.448 -135.35 -0.51334)
(5118.35 410.074 -1600.82 3635.62 718.942 6595.1)
(3222.11 -345.223 195.01 4420.84 -424.565 3192.29)
(24731.1 2745.66 23214.4 43647.7 18521.6 18740.2)
(23401.8 -1250.17 171.877 32340.4 -16439.5 34027.2)
(2870.63 648.821 10403.3 20276.1 8590.11 5729.83)
(12448.1 474.795 -1893.59 15830.2 -6341.06 18624.5)
(1505.19 283.548 -465.404 5151.32 3114.26 1754.7)
(12177 -314.922 -2438.2 13402.9 -4760.69 16700.9)
(2627.31 211.206 -11.9655 3447.05 1904.72 1841.59)
(8202.42 -273.775 -1494.48 8551.28 -3482.05 11773.3)
(2268.33 -106.115 -10.7495 1927.14 1366.21 1245.97)
(4978.2 -137.381 -1208.09 4187.84 -2011.36 6653.66)
(47789.9 3800.49 100923 60774.2 -9356.5 73254.5)
(43597.4 -7310.49 -15547.2 57647.4 12713.2 83502.1)
(4232.35 2171.44 13763.6 7971.72 -4067.53 9118.93)
(14526 -2863.69 -690.428 15318.6 4804.51 16010.5)
(328.395 479.174 641.694 1217.25 -1176.8 -344.405)
(6489.11 -619.664 -983.733 7612.58 2369.35 6826.5)
(762.724 295.777 172.918 1390.82 -580.069 586.757)
(3228.14 370.665 -460.218 3968.17 1210.46 3628.15)
(1264.83 102.206 416.794 1590.8 21.8395 451.358)
(3101.11 183.009 -569.855 3249.02 720.446 3257.3)
(74046.1 -13891.1 -19290.1 98596.3 -572.957 150260)
(16102.6 -494.913 23635.9 29332.2 32.2318 25243.3)
(15056.9 -4864.49 -3242.45 17207.8 5322.52 24038.3)
(-2373.5 1832.19 2937.05 1592.81 -1229.41 -2765.77)
(11750.7 -1791.29 -1178.31 10628 1870.26 11337.4)
(252.929 196.844 35.8952 336.226 -420.107 -811.55)
(9973.51 -601.348 -2830.24 9090.4 2467.64 10321.7)
(2096.1 62.7967 192.197 2058.76 -393.188 1647.25)
(3632.9 -137.29 -1358.54 2755.74 852.505 3746.24)
(3057.11 -530.217 1108.78 2738.2 -146.639 1299.4)
(21476.9 1724.82 23692.3 41253.9 3336.63 45926.4)
(9748.48 -6209.21 -2974.98 17595.9 -4239.64 41209.2)
(5183.17 144.504 10410.4 10791.3 -1111.24 3276.8)
(9461.91 -1551.95 -1786.7 6697.1 -366.424 8770.74)
(1437.27 -65.2826 466.457 1290.02 -270.216 514.492)
(8062.63 -1460.49 -1293.97 4365.43 -98.9677 5395.48)
(-1384.39 690.364 -1892 12.5199 -1127.35 -2093.63)
(10108 -888.544 -2411.61 7751.86 833.702 10034.4)
(1965.57 -84.4707 427.069 1455.1 -263.568 1325.1)
(4509.92 -142.637 -1931.67 2444.69 812.148 4629.94)
(111295 -10306.9 1279.51 146715 -86113.8 218558)
(50426.4 3511.81 29495.7 69603.4 41448.5 84153)
(42126.5 806.393 -1613.87 43428.3 -32422.4 64507.5)
(10733.5 -709.3 4621.16 14068.3 12798.2 13235.7)
(30543.5 -184.556 -1971.99 25417.5 -14169.4 32475.6)
(9617.76 -944.922 495.27 8378.31 7742.8 7871.85)
(27065.4 -1176.92 -2354.72 21044.6 -11844 27379.5)
(11513.9 -19.4091 936.119 9007.81 4591.74 9364.26)
(17786.3 -1374.66 -2506.41 12444.7 -6983.36 16413.3)
(6518.84 129.917 1004.06 4125 3447.41 4481.47)
)
;

boundaryField
{
    inlet
    {
        type            calculated;
        value           nonuniform 0();
    }
    outlet
    {
        type            calculated;
        value           nonuniform 0();
    }
    bottom
    {
        type            calculated;
        value           nonuniform List<symmTensor> 
40
(
(1.08668 1.20799 2.95612 0.140247 -2.52697 2.27205)
(2.38449 -0.946166 4.87255 0.363476 0.732605 -6.23162)
(1.09525 0.542562 2.31051 0.466174 -2.88952 2.91504)
(3.28524 -1.39094 5.4169 0.373545 -1.87847 -12.4109)
(1.61083 0.309777 3.21013 -0.341108 1.21193 -4.22432)
(0.155334 0.766684 4.24394 0.296151 -3.22409 4.47818)
(2.33742 -0.918433 5.37375 -0.730577 1.40605 -8.3864)
(-0.142839 0.618806 4.6983 1.76958 -0.418858 6.0438)
(0.541502 0.814422 4.08412 -0.0176289 -2.4128 3.96873)
(1.19104 0.161169 3.74802 -0.48465 1.56711 -4.72943)
(-0.582981 0.396349 5.21393 0.8534 -3.77233 7.00662)
(0.790725 -0.341392 4.78035 0.60511 -1.31058 -9.6777)
(0.748728 0.557028 2.72259 -0.361097 1.87218 -3.35861)
(-0.0204185 0.478436 4.82141 0.173803 -2.9344 5.74045)
(0.642017 0.111791 3.4994 -0.808916 2.03013 -5.88786)
(-1.44085 0.342151 5.24021 1.63608 -0.478507 8.91811)
(0.47746 0.379951 4.22474 0.272602 -1.94772 3.60046)
(0.338951 0.492018 2.87013 -0.440163 2.05071 -3.64456)
(-0.511886 -0.0268553 5.14431 0.627672 -3.13494 7.32324)
(-0.27323 -0.122735 2.40248 0.326454 -0.738949 -6.82522)
(0.118425 0.500851 2.71219 0.0274798 1.9973 -3.31122)
(0.2988 0.157388 4.68421 0.226187 -2.26958 4.83989)
(-0.127774 0.23157 2.52083 -0.505409 2.26299 -4.56649)
(-0.702121 0.205503 4.54182 0.831304 -0.117173 8.09906)
(0.482366 0.0410122 4.11598 0.676836 -1.66264 2.46016)
(-0.0919251 0.462389 2.88562 -0.0952552 2.26725 -3.43229)
(0.154267 -0.250746 4.72569 0.279344 -2.24582 5.99325)
(-0.215315 -0.297918 1.56893 -0.0287143 -0.347198 -5.29179)
(0.271724 0.329489 2.76417 0.278184 1.88669 -3.72078)
(0.344672 -0.0313994 4.46743 0.500348 -1.64284 3.5112)
(-0.30123 0.15864 2.62894 -0.265418 2.41703 -4.09205)
(0.385217 0.205851 4.18119 0.0317825 0.17669 6.2932)
(1.07146 -0.222442 4.13694 0.851616 -1.41323 0.696122)
(0.0500094 0.322436 2.94295 0.171362 2.48093 -3.61836)
(0.373727 -0.336684 4.50743 0.130521 -1.44265 4.6925)
(0.144808 -0.297674 1.98777 -0.434544 0.0416059 -4.3235)
(0.582939 0.237929 3.28467 0.34223 1.88517 -4.5025)
(0.677462 -0.215812 4.30549 0.645908 -0.952564 1.78727)
(-0.174851 0.128994 2.91458 -0.20008 2.61908 -3.69258)
(0.853751 0.102514 4.31942 -0.500298 0.360379 4.93256)
)
;
    }
    top
    {
        type            symmetryPlane;
    }
    side1
    {
        type            symmetryPlane;
    }
    side2
    {
        type            symmetryPlane;
    }
    procBoundary30to22
    {
        type            processor;
        value           nonuniform List<symmTensor> 
50
(
(1030.64 221.882 853.372 -160.57 29.146 -846.753)
(300.562 277.417 369.309 62.8417 -158.937 -260.877)
(528.694 243.434 713.011 -12.5785 170.224 -610.005)
(235.215 153.174 513.544 230.842 -116.738 -275.022)
(112.656 115.415 341.98 85.2066 72.4129 -321.735)
(304.615 34.7886 611.967 308.751 -143.049 -377.679)
(156.888 85.9597 282.51 66.1165 31.6216 -367.366)
(616.875 -32.4738 794.243 304.993 -206.994 -657.493)
(190.424 95.8719 287.698 25.7277 24.6707 -387.625)
(1160.6 -181.598 810.969 310.485 -203.827 -904.465)
(73.099 69.1288 428.616 45.9077 -147.725 -658.675)
(1398.16 403.34 595.662 -28.4125 297.937 -1418.49)
(660.597 388.001 272.312 175.551 -11.25 -511.403)
(236.991 319.58 175.288 46.0573 272.121 -617.73)
(181.765 261.031 119.611 196.155 58.5772 -181.54)
(6.92748 228.505 -84.3823 82.0764 188.619 -239.026)
(157.339 241.911 -76.4556 164.724 2.93577 -66.7422)
(-22.8912 253.692 -122.96 156.011 -83.7684 -304.158)
(196.613 218.716 -138.669 210.457 -252.794 -208.789)
(-39.682 211.72 -211.953 75.0745 -32.0394 -71.6019)
(20906.9 3012.46 -194.537 -447.592 730.965 -3791.17)
(-440.382 397.192 1079.81 -389.921 -89.6094 126.543)
(1376.57 1640.65 3274.83 -424.875 576.092 1276.28)
(-249.787 1166.87 1059.86 358.367 -1.68328 178.714)
(-569.373 1068.6 525.068 326.593 468.971 159.433)
(-992.974 503.966 328.094 885.194 44.4436 718.916)
(-2233.74 -579.363 -413.78 1119.48 316.076 115.487)
(-2963.07 340.09 -970.679 1464.79 0.266755 856.992)
(474.805 1640.73 -38.4667 742.198 -6.10237 154.824)
(1438.32 -157.967 103.244 -2566.02 170.989 593.221)
(-4906.3 -2004.81 7921.1 -6371.12 -5283.36 -12606.6)
(4169.4 -517.988 8189.86 201.126 4176.64 4089.88)
(-2781.87 1111.26 79.0993 -435.951 -191.827 326.439)
(-3285.91 1571.02 -1233.84 653.731 2305.18 1630.15)
(-801.493 400.043 513.073 521.711 148.753 264.207)
(-2570.32 588.284 -404.986 869.468 1022.59 932.146)
(-1253.74 577.836 -124.67 696.717 303.362 184.475)
(-1794.03 729.474 445.67 1358.3 1360.87 1419.31)
(13.1918 662.095 161.447 -1061.39 1034.29 624.617)
(-1157.22 776.559 68.2683 223.105 1464.8 1630.68)
(-7478.59 -19250.4 26793.8 -1012.17 25842.2 44424.2)
(-7440.4 1032.65 40451.7 -10771.8 -16672.7 2852.41)
(45.7964 -1566.86 -1554.45 5049.3 9383.94 3228.64)
(-2738.1 837.938 1729.72 -926.208 -2944.09 860.437)
(-297.563 -648.276 18.4498 1316.24 2504.93 812.506)
(-361.006 271.277 170.058 149.332 -367.944 -204.139)
(-956.815 587.334 204.685 957.539 1968.95 885.416)
(-290.275 306.61 320.482 295.692 -109.353 -171.591)
(-726.148 901.204 56.5833 727.833 1323.09 425.022)
(-63.0568 148.352 381.734 354.025 4.57864 -180.177)
)
;
    }
    procBoundary30to29
    {
        type            processor;
        value           nonuniform List<symmTensor> 
20
(
(773.455 62.812 751.295 176.777 -142.88 -977.702)
(645.799 432.789 33.6201 215.828 -467.146 -1088.62)
(1238.04 -356.866 1101.4 37.5274 71.1166 -1059.15)
(4161.06 808.724 -353.025 307.334 1363.52 -4648.26)
(249.263 -308.108 -230.354 -437.51 -124.617 -662.516)
(2365.27 572.718 466.037 899.314 977.898 -1675.32)
(6559.67 2904.28 3124.64 396.863 -5311.09 -9839.61)
(3761.17 -215.105 4819.62 3100.74 -6519.06 -1897.56)
(16327.2 925.341 1857.52 2537.43 2358.93 2298.91)
(13161.5 -584.888 820.627 -7235.11 -9111.28 -13512.1)
(5290.88 -2098.43 5972.1 -1231.13 3906.65 5558.74)
(882.95 1880.89 11564.6 7128.97 9237 -15832.4)
(8722.99 -5285.38 19886.8 -12712.5 -17783 -53718.2)
(4156.66 -5503.83 3059.52 -1816.87 5672.58 12983.5)
(573.278 6452.84 23468.8 1536.89 -8559.05 -23265.9)
(-1800.54 -8044.74 6108.61 5432.96 -36584 9070.49)
(-31320.3 -36672.7 48588.8 -9759.86 30409 86070.4)
(-52004.3 22504.6 149078 -5539.95 20907.6 13503.2)
(-19679.7 -4593.71 -13744.2 1924.31 -23615 72174.9)
(-64019.9 6870.08 40094 -2933.96 98241 59170.9)
)
;
    }
    procBoundary30to31
    {
        type            processor;
        value           nonuniform List<symmTensor> 
20
(
(783.798 -346.024 769.997 469.274 19.7417 -753.009)
(63.2261 24.2303 421.21 70.4085 333.682 -323.769)
(153.766 -154.41 1233.94 -26.1999 143.856 170.809)
(94.3808 -38.1538 514.781 -218.485 -325.469 38.4475)
(-167.615 201.345 -148.326 115.886 38.8757 -19.3445)
(-185.722 -82.7086 -122.484 230.457 -909.75 384.501)
(-65.0223 38.3926 52.5179 -26.3117 161.877 -31.6559)
(256.326 -117.408 566.524 -113.794 240.608 -20.3159)
(7552.51 2865.84 -354.731 -14218.4 732.104 2805.16)
(-2777.04 -1443.71 -388.182 1609.71 276.026 286.028)
(-3272.8 -2427.95 472.507 3789.45 -520.353 50.973)
(-225.163 102.175 14.3202 -299.659 -363.026 228.648)
(131.09 788.849 -275.795 423.336 1448.54 982.453)
(-321.642 1305.18 1681.9 1083.44 3178.82 -1025.22)
(-1746.7 -604.658 -1315.43 763.483 551.228 814.364)
(6.48668 -7.27281 141.016 297.051 685.851 -541.061)
(28.5048 -354.999 766.939 372.544 76.3824 -421.45)
(-124.847 -616.669 -2658.81 -82.3228 987.824 198.6)
(535.979 -804.055 1404.5 35.8327 -526.853 -1058.15)
(2336.22 54.357 -2697.02 -2254.62 -3841.08 969.482)
)
;
    }
}


// ************************************************************************* //
