/*--------------------------------*- C++ -*----------------------------------*\
| =========                 |                                                 |
| \\      /  F ield         | OpenFOAM: The Open Source CFD Toolbox           |
|  \\    /   O peration     | Version:  2.4.0                                 |
|   \\  /    A nd           | Web:      www.OpenFOAM.org                      |
|    \\/     M anipulation  |                                                 |
\*---------------------------------------------------------------------------*/
FoamFile
{
    version     2.0;
    format      ascii;
    class       volScalarField;
    location    "0.05";
    object      p;
}
// * * * * * * * * * * * * * * * * * * * * * * * * * * * * * * * * * * * * * //

dimensions      [1 -1 -2 0 0 0 0];

internalField   nonuniform List<scalar> 
200
(
-24147.6
-22965.4
-20375.7
-18167.6
-14268
-12862
-7934.7
-6327.66
-950.056
1451.85
-22053.7
-20070.3
-16540.4
-11773.9
-9637.6
-4684.01
-3236.44
2784.5
5473.15
12573.9
-12018
-9994.17
-6769.01
-5402.31
209.081
368.45
6222.76
7887.69
15305.5
19892.1
6656.11
4594.67
5772.84
6981.98
7106.79
10218.7
11005.7
16087.5
19981.3
28000.5
-48815.8
-41420.7
-35680.9
-30274.2
-27237.4
-21301.1
-21098.4
-14772.1
-15863.4
-10324.6
-36796.9
-26020.9
-22721.3
-18644.3
-15032.5
-14932.4
-9700.31
-10111.1
-3144.79
-4234.78
-8404.09
-9439.79
-4144.55
-3689.05
-5673.59
-3028.23
-4352.78
699.895
2270.37
9765.28
11530.4
26998.2
17157.1
15619.3
11080.9
6956.95
8065.45
7608.38
12885.5
17292.9
-137899
-91678.2
-76810.9
-56192.7
-47443.8
-41663.7
-39471
-35329.5
-45088.7
-44053.4
-76578.1
-74251.8
-38547.6
-41826.2
-31365.2
-35002
-32003.7
-32038.6
-28887.3
-44380
-70822.3
-14512.1
-25186.4
-7110.17
-22387.2
-16960.3
-23167
-16920.5
-15362.3
-13312.7
9119.63
-7015.55
27455
5281.62
7448.31
-5826.12
-3803.43
-6447.4
-202.718
2881.1
-275646
-247850
-157495
-147132
-105025
-90974
-66749.5
-63713.8
-49703.1
-44530.6
-278997
-163895
-182509
-115342
-116641
-77256.5
-73622.3
-52029.4
-50517
-42720.3
-161660
-189434
-121806
-135131
-91141.2
-84702.2
-59556.6
-59341.9
-43404.8
-37983.4
-155675
-87163
-122304
-90547.4
-100032
-68998.3
-66090.2
-45420.9
-42551.4
-26841.5
-88036.3
-29776.8
-88296.3
-79435.3
-84864.3
-70573.5
-65270.1
-51917.2
-48281.2
-39080.1
115796
-6450
-43060.8
-79717
-71987.2
-73844.2
-58440
-53671.4
-45631.3
-43501.9
185804
62160.3
-22833.8
-48700.9
-61998.2
-63452.7
-65138.4
-49750.1
-43861.8
-35150.1
364892
156504
23297.2
-32922.7
-47029.4
-53952.4
-47623.2
-45045.9
-35495.3
-30613.4
)
;

boundaryField
{
    inlet
    {
        type            zeroGradient;
    }
    outlet
    {
        type            fixedValue;
        value           nonuniform 0();
    }
    bottom
    {
        type            zeroGradient;
    }
    top
    {
        type            symmetryPlane;
    }
    side1
    {
        type            symmetryPlane;
    }
    side2
    {
        type            symmetryPlane;
    }
    procBoundary30to22
    {
        type            processor;
        value           nonuniform List<scalar> 
50
(
-20091.9
-20028.4
-19773.9
-17701.5
-16988.3
-13265.8
-12165
-7428.32
-5862.95
-137.237
-46429.3
-42908.3
-36057.2
-35164.6
-29315.3
-27843.6
-21646.9
-21968.2
-15957.5
-14902.1
-123155
-106799
-83441.2
-68968.3
-59672.6
-54417.3
-61493.6
-49545
-36768
-38738.6
-312396
-210033
-183934
-152171
-115878
-95083.8
-73365.3
-53137.8
-47110.6
-40433.4
-96785.5
-121229
-103405
-102985
-82452.9
-74069
-58169.4
-49950.3
-41416.6
-39856.1
)
;
    }
    procBoundary30to29
    {
        type            processor;
        value           nonuniform List<scalar> 
20
(
-24052.4
-24265.9
-13889.1
2157.93
-61507.7
-43688.9
-21093.7
13799.2
-172699
-140636
-69931.1
-78356.6
-412149
-320165
-302649
-124881
-81409.1
-1139.69
403855
498379
)
;
    }
    procBoundary30to31
    {
        type            processor;
        value           nonuniform List<scalar> 
20
(
8559.75
17225.1
29362.6
35769.6
-12481.5
3134.37
12947.5
26377.2
-46197.7
-38560.2
-3206.06
13733.8
-31857.5
-37770.3
-30008.6
-18155.1
-38070.3
-35717.7
-29310.2
-21866
)
;
    }
}


// ************************************************************************* //
