/*--------------------------------*- C++ -*----------------------------------*\
| =========                 |                                                 |
| \\      /  F ield         | OpenFOAM: The Open Source CFD Toolbox           |
|  \\    /   O peration     | Version:  2.4.0                                 |
|   \\  /    A nd           | Web:      www.OpenFOAM.org                      |
|    \\/     M anipulation  |                                                 |
\*---------------------------------------------------------------------------*/
FoamFile
{
    version     2.0;
    format      ascii;
    class       volVectorField;
    location    "0.05";
    object      Uc;
}
// * * * * * * * * * * * * * * * * * * * * * * * * * * * * * * * * * * * * * //

dimensions      [0 1 -1 0 0 0 0];

internalField   nonuniform List<vector> 
200
(
(-7.6082e-12 4.81735e-12 9.7679e-12)
(-8.82888e-14 5.59028e-14 1.13257e-13)
(-8.9416e-16 5.66166e-16 1.14476e-15)
(-8.17541e-18 5.17655e-18 1.04446e-17)
(-6.89993e-20 4.36895e-20 8.79715e-20)
(-5.45958e-22 3.4569e-22 6.94723e-22)
(-4.93487e-24 2.54319e-24 4.74793e-24)
(-7.47504e-23 -4.45646e-24 -4.07352e-23)
(-5.91523e-21 -3.54266e-22 -3.25493e-21)
(-4.01228e-19 -2.403e-20 -2.23681e-19)
(-1.44222e-09 9.13185e-10 1.85158e-09)
(-1.52149e-11 9.63381e-12 1.95336e-11)
(-1.41252e-13 8.94389e-14 1.81346e-13)
(-1.19215e-15 7.54858e-16 1.53055e-15)
(-9.34295e-18 5.91592e-18 1.19951e-17)
(-6.89972e-20 4.36892e-20 8.85842e-20)
(-4.85281e-22 3.07282e-22 6.23045e-22)
(-3.52662e-24 2.05982e-24 4.07701e-24)
(-1.8634e-23 -1.10114e-24 -9.78214e-24)
(-1.18276e-21 -7.08351e-23 -6.45622e-22)
(-1.51888e-07 9.61727e-08 1.95002e-07)
(-1.44215e-09 9.13151e-10 1.85153e-09)
(-1.21717e-11 7.70701e-12 1.56269e-11)
(-9.41678e-14 5.96272e-14 1.20902e-13)
(-6.81237e-16 4.31367e-16 8.74654e-16)
(-4.67159e-18 2.95816e-18 5.99807e-18)
(-3.06665e-20 1.94191e-20 3.9375e-20)
(-1.9412e-22 1.22926e-22 2.49251e-22)
(-1.24355e-24 7.51455e-25 1.50327e-24)
(-3.11837e-24 -1.81819e-25 -1.66671e-24)
(-1.28306e-09 9.14321e-10 1.89624e-09)
(-1.29557e-11 9.66154e-12 2.01381e-11)
(-1.14883e-13 8.98419e-14 1.88194e-13)
(-9.24003e-16 7.59485e-16 1.59875e-15)
(-6.88354e-18 5.96174e-18 1.2611e-17)
(-4.81872e-20 4.4098e-20 9.37334e-20)
(-3.20266e-22 3.10651e-22 6.63482e-22)
(-2.03631e-24 2.10085e-24 4.50834e-24)
(-1.25893e-26 1.37152e-26 2.95213e-26)
(-7.57306e-27 -3.6012e-28 -3.81203e-27)
(-1.71457e-14 2.24115e-14 4.77472e-14)
(-1.44185e-16 2.86287e-16 6.18329e-16)
(-7.82955e-19 3.16921e-18 6.92847e-18)
(1.39893e-22 3.1482e-20 6.96299e-20)
(7.20537e-23 2.87175e-22 6.42275e-22)
(-1.98929e-26 2.37139e-24 4.8591e-24)
(-1.27147e-22 -7.59606e-24 -6.97695e-23)
(-1.20787e-20 -7.234e-22 -6.68039e-21)
(-1.02428e-18 -6.13449e-20 -5.71427e-19)
(-7.47802e-17 -4.47871e-18 -4.22586e-17)
(-1.46379e-12 3.91674e-12 8.54816e-12)
(2.97469e-16 4.6066e-14 1.02782e-13)
(1.78043e-16 4.72756e-16 1.07678e-15)
(3.22725e-18 4.37917e-18 1.017e-17)
(4.07263e-20 3.74372e-20 8.855e-20)
(4.28883e-22 2.99989e-22 7.21933e-22)
(3.5912e-24 2.25329e-24 5.35113e-24)
(-3.79694e-23 -2.25943e-24 -2.00908e-23)
(-3.01549e-21 -1.80594e-22 -1.62313e-21)
(-2.04936e-19 -1.22738e-20 -1.14385e-19)
(2.86e-10 3.86605e-10 8.99251e-10)
(6.00206e-12 4.18503e-12 1.01095e-11)
(8.34395e-14 3.98399e-14 9.96123e-14)
(9.3821e-16 3.44558e-16 8.8917e-16)
(9.18705e-18 2.76536e-18 7.34716e-18)
(8.1395e-20 2.09015e-20 5.70475e-20)
(6.67792e-22 1.50372e-22 4.20799e-22)
(5.04665e-24 1.03165e-24 2.9186e-24)
(-7.88654e-24 -4.67654e-25 -4.1612e-24)
(-5.03885e-22 -3.01779e-23 -2.7874e-22)
(8.97367e-08 3.21458e-09 1.87785e-08)
(1.13674e-09 4.06308e-11 2.37867e-10)
(1.2e-11 4.27996e-13 2.511e-12)
(1.11478e-13 3.96757e-15 2.33266e-14)
(9.4147e-16 3.3437e-17 1.97001e-16)
(7.38316e-18 2.61669e-19 1.54492e-18)
(5.45598e-20 1.92963e-21 1.14167e-20)
(3.83985e-22 1.35522e-23 8.03497e-23)
(2.57527e-24 9.02358e-26 5.32936e-25)
(-1.12319e-24 -6.73996e-26 -6.23008e-25)
(3.80792e-12 1.38106e-13 7.96597e-13)
(5.89065e-14 2.1352e-15 1.23152e-14)
(7.45604e-16 2.70112e-17 1.55417e-16)
(8.1786e-18 2.96128e-19 1.69911e-18)
(8.05064e-20 2.91339e-21 1.6666e-20)
(7.27738e-22 2.63214e-23 1.50088e-22)
(5.30547e-24 1.71987e-25 8.13598e-25)
(-7.43581e-23 -4.45442e-24 -4.03536e-23)
(-5.89802e-21 -3.53232e-22 -3.23816e-21)
(-4.00272e-19 -2.39728e-20 -2.24194e-19)
(1.08383e-09 3.92529e-11 2.26717e-10)
(1.52437e-11 5.51681e-13 3.18874e-12)
(1.76885e-13 6.39701e-15 3.69705e-14)
(1.79133e-15 6.47373e-17 3.73995e-16)
(1.63775e-17 5.91451e-19 3.41513e-18)
(1.38216e-19 4.98798e-21 2.87848e-20)
(1.09356e-21 3.94369e-23 2.27447e-22)
(7.95457e-24 2.80723e-25 1.57473e-24)
(-1.85224e-23 -1.11067e-24 -9.83045e-24)
(-1.18092e-21 -7.0726e-23 -6.52931e-22)
(2.2865e-07 8.25953e-09 4.7827e-08)
(2.89488e-09 1.04461e-10 6.05522e-10)
(3.05436e-11 1.10099e-12 6.38878e-12)
(2.83594e-13 1.02118e-14 5.93192e-14)
(2.39379e-15 8.61058e-17 5.00707e-16)
(1.87626e-17 6.74188e-19 3.92455e-18)
(1.38578e-19 4.97422e-21 2.89862e-20)
(9.74778e-22 3.49526e-23 2.03893e-22)
(6.53045e-24 2.32664e-25 1.34981e-24)
(-3.06739e-24 -1.84741e-25 -1.69578e-24)
(2.72006e-05 9.7525e-07 5.68939e-06)
(3.06283e-07 1.09583e-08 6.40633e-08)
(2.90997e-09 1.03895e-10 6.08661e-10)
(2.45757e-11 8.7558e-13 5.14036e-12)
(1.90256e-13 6.76413e-15 3.97947e-14)
(1.37726e-15 4.88621e-17 2.88072e-16)
(9.45067e-18 3.34583e-19 1.97674e-18)
(6.20789e-20 2.19315e-21 1.29847e-20)
(3.93216e-22 1.38625e-23 8.22466e-23)
(2.40771e-24 8.45195e-26 5.01087e-25)
(1.72617e-14 6.25563e-16 3.6085e-15)
(2.91297e-16 1.05508e-17 6.0714e-17)
(3.99392e-18 1.44582e-19 8.2889e-19)
(4.71746e-20 1.70683e-21 9.75085e-21)
(4.97488e-22 1.79901e-23 1.02424e-22)
(4.79652e-24 1.73358e-25 9.83636e-25)
(4.00896e-26 1.37916e-27 7.25915e-27)
(-2.43872e-25 -1.46137e-26 -1.29903e-25)
(-1.81858e-23 -1.08913e-24 -9.82989e-24)
(-1.15351e-21 -6.90843e-23 -6.40446e-22)
(4.46679e-12 1.61637e-13 9.34333e-13)
(6.91048e-14 2.49887e-15 1.44427e-14)
(8.74761e-16 3.16095e-17 1.82558e-16)
(9.59693e-18 3.4654e-19 1.99991e-18)
(9.44896e-20 3.40956e-21 1.9663e-20)
(8.5439e-22 3.08081e-23 1.77553e-22)
(7.21053e-24 2.59818e-25 1.49646e-24)
(5.66053e-26 2.01754e-27 1.14711e-26)
(-6.06097e-26 -3.64017e-27 -3.17557e-26)
(-3.6451e-24 -2.18304e-25 -1.997e-24)
(8.48242e-10 3.06071e-11 1.77423e-10)
(1.19324e-11 4.301e-13 2.49583e-12)
(1.38485e-13 4.98639e-15 2.89661e-14)
(1.4027e-15 5.04534e-17 2.93395e-16)
(1.28266e-17 4.60871e-19 2.68287e-18)
(1.08268e-19 3.88606e-21 2.26458e-20)
(8.56767e-22 3.07195e-23 1.79205e-22)
(6.42839e-24 2.30248e-25 1.34459e-24)
(4.59411e-26 1.63938e-27 9.5542e-27)
(-9.92021e-27 -6.01808e-28 -5.49561e-27)
(8.97426e-08 3.21085e-09 1.87709e-08)
(1.13681e-09 4.05875e-11 2.37779e-10)
(1.20007e-11 4.27558e-13 2.5101e-12)
(1.11484e-13 3.96357e-15 2.33184e-14)
(9.41524e-16 3.34032e-17 1.96932e-16)
(7.38359e-18 2.61402e-19 1.54438e-18)
(5.4563e-20 1.92763e-21 1.14126e-20)
(3.84009e-22 1.35379e-23 8.03206e-23)
(2.59451e-24 9.12746e-26 5.42678e-25)
(1.69058e-26 5.92845e-28 3.52738e-27)
(4.2758e-17 1.54862e-18 8.88209e-18)
(7.81704e-19 2.82966e-20 1.61513e-19)
(1.15423e-20 4.1759e-22 2.37211e-21)
(1.46075e-22 5.28205e-24 2.98813e-23)
(1.64325e-24 5.93882e-26 3.34699e-25)
(1.68349e-26 6.08103e-28 3.41466e-27)
(1.52649e-28 5.34112e-30 2.86319e-29)
(-5.67119e-28 -3.39971e-29 -2.95573e-28)
(-3.99319e-26 -2.39145e-27 -2.11882e-26)
(-2.37812e-24 -1.42426e-25 -1.30491e-24)
(1.01418e-14 3.66722e-16 2.11257e-15)
(1.71184e-16 6.18554e-18 3.55873e-17)
(2.34779e-18 8.47746e-20 4.8704e-19)
(2.77422e-20 1.00102e-21 5.7441e-21)
(2.92693e-22 1.05537e-23 6.04982e-23)
(2.82338e-24 1.01732e-25 5.82637e-25)
(2.53202e-26 9.11696e-28 5.21709e-27)
(2.11584e-28 7.5621e-30 4.29089e-29)
(-1.40586e-28 -8.46017e-30 -7.25416e-29)
(-8.01424e-27 -4.79968e-28 -4.33718e-27)
(1.75089e-12 6.31094e-14 3.65115e-13)
(2.70961e-14 9.75628e-16 5.64882e-15)
(3.43103e-16 1.23408e-17 7.15082e-17)
(3.76535e-18 1.3529e-19 7.84543e-19)
(3.70846e-20 1.33105e-21 7.72478e-21)
(3.35431e-22 1.20267e-23 6.98516e-23)
(2.83173e-24 1.01423e-25 5.8953e-25)
(2.25776e-26 8.07803e-28 4.69908e-27)
(1.71095e-28 6.10432e-30 3.54679e-29)
(-2.26666e-29 -1.38773e-30 -1.25759e-29)
(1.6678e-10 5.95454e-12 3.47885e-11)
(2.34769e-12 8.36429e-14 4.89568e-13)
(2.72651e-14 9.69346e-16 5.68407e-15)
(2.7635e-16 9.80426e-18 5.7596e-17)
(2.5287e-18 8.95234e-20 5.26878e-19)
(2.13587e-20 7.54569e-22 4.44907e-21)
(1.69133e-22 5.96259e-24 3.52211e-23)
(1.26987e-24 4.46734e-26 2.6437e-25)
(9.11718e-27 3.20063e-28 1.89756e-27)
(6.2943e-29 2.2034e-30 1.30756e-29)
)
;

boundaryField
{
    inlet
    {
        type            calculated;
        value           nonuniform 0();
    }
    outlet
    {
        type            calculated;
        value           nonuniform 0();
    }
    bottom
    {
        type            calculated;
        value           uniform (0 0 0);
    }
    top
    {
        type            symmetryPlane;
    }
    side1
    {
        type            symmetryPlane;
    }
    side2
    {
        type            symmetryPlane;
    }
    procBoundary30to22
    {
        type            processor;
        value           nonuniform List<vector> 
50
(
(-2.94336e-14 1.86365e-14 3.7307e-14)
(-3.72529e-16 2.35873e-16 4.6759e-16)
(-4.08509e-18 2.58654e-18 5.09229e-18)
(-4.01977e-20 2.54518e-20 4.98461e-20)
(-3.6327e-22 2.29999e-22 4.48408e-22)
(-4.99258e-24 1.82439e-24 2.68295e-24)
(-2.00117e-22 -1.19687e-23 -1.12968e-22)
(-1.89777e-20 -1.13663e-21 -1.0782e-20)
(-1.60689e-18 -9.62415e-20 -9.19248e-19)
(-1.17205e-16 -7.01981e-18 -6.74387e-17)
(-9.05347e-17 9.38703e-17 1.9362e-16)
(-9.91474e-19 1.29539e-18 2.67607e-18)
(-8.77546e-21 1.53971e-20 3.19652e-20)
(-6.17441e-23 1.63389e-22 3.41283e-22)
(-2.75984e-24 1.43785e-24 1.94662e-24)
(-2.91741e-22 -1.74586e-23 -1.65035e-22)
(-3.22863e-20 -1.9337e-21 -1.83631e-20)
(-3.2811e-18 -1.96513e-19 -1.87653e-18)
(-2.99201e-16 -1.792e-17 -1.72093e-16)
(-2.36447e-14 -1.41615e-15 -1.36402e-14)
(1.10402e-14 4.00795e-16 2.29011e-15)
(1.8626e-16 6.75838e-18 3.82935e-17)
(2.55182e-18 9.25489e-20 5.2145e-19)
(3.01159e-20 1.09175e-21 6.11721e-21)
(3.173e-22 1.14972e-23 6.40169e-23)
(1.13715e-24 -4.24793e-27 -4.5551e-25)
(-1.99283e-22 -1.1936e-23 -1.11865e-22)
(-1.89169e-20 -1.13297e-21 -1.07204e-20)
(-1.6023e-18 -9.59655e-20 -9.17543e-19)
(-1.16892e-16 -7.00101e-18 -6.73468e-17)
(5.45753e-17 1.97962e-18 1.11902e-17)
(9.96873e-19 3.61431e-20 2.02604e-19)
(1.47023e-20 5.32818e-22 2.97022e-21)
(1.85859e-22 6.7327e-24 3.73235e-23)
(2.08843e-24 7.56192e-26 4.16596e-25)
(1.46723e-26 3.72271e-28 5.7639e-28)
(-6.55476e-25 -3.92617e-26 -3.62452e-25)
(-5.84061e-23 -3.49802e-24 -3.2742e-23)
(-4.61996e-21 -2.767e-22 -2.63089e-21)
(-3.13024e-19 -1.87479e-20 -1.80024e-19)
(1.46316e-19 5.30448e-21 2.95028e-20)
(2.87698e-21 1.04255e-22 5.7505e-22)
(4.54552e-23 1.64648e-24 9.03208e-24)
(6.12926e-25 2.21918e-26 1.2106e-25)
(7.31816e-27 2.64848e-28 1.43578e-27)
(6.27823e-29 1.87937e-30 6.64674e-30)
(-1.52873e-27 -9.15743e-29 -8.28847e-28)
(-1.28411e-25 -7.69063e-27 -7.0894e-26)
(-9.52962e-24 -5.70747e-25 -5.375e-24)
(-6.0275e-22 -3.61003e-23 -3.44841e-22)
)
;
    }
    procBoundary30to29
    {
        type            processor;
        value           nonuniform List<vector> 
20
(
(-5.40912e-10 3.42493e-10 6.94446e-10)
(-1.13926e-07 7.21355e-08 1.46263e-07)
(-1.34976e-05 8.5464e-06 1.73289e-05)
(-1.0569e-07 7.2107e-08 1.48794e-07)
(-1.48032e-12 1.43538e-12 3.01134e-12)
(-2.09971e-10 2.74694e-10 5.8572e-10)
(2.47797e-10 2.97405e-08 6.63744e-08)
(5.3133e-06 1.90783e-07 1.11198e-06)
(1.80534e-10 6.55176e-12 3.77687e-11)
(5.70863e-08 2.06905e-09 1.19417e-08)
(1.35457e-05 4.89836e-07 2.83339e-06)
(0.00184058 6.61315e-05 0.000384984)
(7.44026e-13 2.69789e-14 1.55635e-13)
(2.11754e-10 7.66818e-12 4.42931e-11)
(4.467e-08 1.61354e-09 9.3435e-09)
(5.31373e-06 1.90518e-07 1.11144e-06)
(1.68927e-15 6.12166e-17 3.52185e-16)
(4.37039e-13 1.58145e-14 9.11388e-14)
(8.29769e-11 2.99401e-12 1.73083e-11)
(8.7771e-09 3.14029e-10 1.83131e-09)
)
;
    }
    procBoundary30to31
    {
        type            processor;
        value           nonuniform List<vector> 
20
(
(-2.19817e-17 -1.31655e-18 -1.26494e-17)
(-6.0287e-20 -3.61074e-21 -3.44933e-20)
(-1.48364e-22 -8.8858e-24 -8.4198e-23)
(-3.3596e-25 -2.0036e-26 -1.89238e-25)
(-4.43436e-15 -2.65587e-16 -2.55748e-15)
(-1.12247e-17 -6.72277e-19 -6.46082e-18)
(-2.56508e-20 -1.5363e-21 -1.47188e-20)
(-5.42163e-23 -3.23434e-24 -3.10161e-23)
(-2.1923e-17 -1.31303e-18 -1.26275e-17)
(-6.01184e-20 -3.60065e-21 -3.45185e-20)
(-1.47953e-22 -8.86126e-24 -8.46396e-23)
(-3.20654e-25 -1.94783e-26 -1.88054e-25)
(-5.87094e-20 -3.51627e-21 -3.37581e-20)
(-1.73382e-22 -1.03843e-23 -9.92769e-23)
(-4.57179e-25 -2.73816e-26 -2.60701e-25)
(-9.97419e-28 -6.21079e-29 -6.0534e-28)
(-1.13054e-22 -6.7711e-24 -6.46753e-23)
(-3.57763e-25 -2.14272e-26 -2.03579e-25)
(-1.00636e-27 -6.02732e-29 -5.69987e-28)
(-2.16293e-30 -1.39314e-31 -1.37062e-30)
)
;
    }
}


// ************************************************************************* //
