/*--------------------------------*- C++ -*----------------------------------*\
| =========                 |                                                 |
| \\      /  F ield         | OpenFOAM: The Open Source CFD Toolbox           |
|  \\    /   O peration     | Version:  2.4.0                                 |
|   \\  /    A nd           | Web:      www.OpenFOAM.org                      |
|    \\/     M anipulation  |                                                 |
\*---------------------------------------------------------------------------*/
FoamFile
{
    version     2.0;
    format      ascii;
    class       Cloud<softParticle>;
    location    "0.03/lagrangian/defaultCloud";
    object      positions;
}
// * * * * * * * * * * * * * * * * * * * * * * * * * * * * * * * * * * * * * //

23
(
(0.0376374 0.000134322 0.000132538) 0
(0.0421633 0.00477701 0.00438582) 117
(0.0400325 0.0044871 0.00109395) 34
(0.0404776 0.0028193 0.00143288) 24
(0.0420572 0.0036412 0.00322159) 67
(0.0414724 0.000650383 0.000433956) 6
(0.0404841 0.00232102 0.00113111) 14
(0.0422666 0.000395056 0.000166677) 7
(0.0418273 0.000654584 0.000278996) 6
(0.0404728 0.00082692 0.000726562) 4
(0.0424049 0.000322196 0.000650891) 7
(0.0419142 0.00393733 0.00235343) 77
(0.0394665 0.00191409 0.000962568) 13
(0.0420601 0.000275652 0.00350534) 47
(0.040979 0.00228482 0.0010331) 15
(0.0424323 0.000212552 0.00466768) 87
(0.0430133 0.00364658 0.00400301) 108
(0.0398625 0.00100881 0.0035679) 43
(0.0385803 0.0017901 0.000674891) 11
(0.040393 0.000396356 0.00491229) 84
(0.0434978 0.0017343 0.00562669) 99
(0.0386061 0.00388934 0.00486791) 111
(0.0425108 0.00493882 0.00600012) 158
)


// ************************************************************************* //
