/*--------------------------------*- C++ -*----------------------------------*\
| =========                 |                                                 |
| \\      /  F ield         | OpenFOAM: The Open Source CFD Toolbox           |
|  \\    /   O peration     | Version:  2.4.0                                 |
|   \\  /    A nd           | Web:      www.OpenFOAM.org                      |
|    \\/     M anipulation  |                                                 |
\*---------------------------------------------------------------------------*/
FoamFile
{
    version     2.0;
    format      ascii;
    class       volVectorField;
    location    "0.11";
    object      A_Source;
}
// * * * * * * * * * * * * * * * * * * * * * * * * * * * * * * * * * * * * * //

dimensions      [1 -2 -2 0 0 0 0];

internalField   nonuniform List<vector> 
200
(
(4.27176e-81 2.99145e-81 -5.8714e-81)
(2.06851e-83 1.44791e-83 -2.8431e-83)
(1.0179e-85 7.12117e-86 -1.39907e-85)
(5.06866e-88 3.54385e-88 -6.96672e-88)
(2.54392e-90 1.77747e-90 -3.49655e-90)
(1.28254e-92 8.95534e-93 -1.76282e-92)
(6.47793e-95 4.52019e-95 -8.90372e-95)
(3.27129e-97 2.28116e-97 -4.49629e-97)
(1.64926e-99 1.14935e-99 -2.26686e-99)
(8.29282e-102 5.77558e-102 -1.13982e-101)
(4.78447e-83 3.35982e-83 -6.57612e-83)
(2.35065e-85 1.65022e-85 -3.2309e-85)
(1.1536e-87 8.09604e-88 -1.58559e-87)
(5.66251e-90 3.97259e-90 -7.78295e-90)
(2.78233e-92 1.95121e-92 -3.82423e-92)
(1.36913e-94 9.59746e-95 -1.88183e-94)
(6.74803e-97 4.72812e-97 -9.27497e-97)
(3.33093e-99 2.33272e-99 -4.57826e-99)
(1.64626e-101 1.15232e-101 -2.26274e-101)
(8.14362e-104 5.69715e-104 -1.11932e-103)
(4.26606e-85 3.00224e-85 -5.86357e-85)
(2.1498e-87 1.5125e-87 -2.95484e-87)
(1.07863e-89 7.58666e-90 -1.48255e-89)
(5.39187e-92 3.79135e-92 -7.41096e-92)
(2.68703e-94 1.88887e-94 -3.69324e-94)
(1.33576e-96 9.38703e-97 -1.83596e-96)
(6.6272e-99 4.65578e-99 -9.10889e-99)
(3.28295e-101 2.30559e-101 -4.51232e-101)
(1.62436e-103 1.14037e-103 -2.23263e-103)
(8.02946e-106 5.63493e-106 -1.10363e-105)
(3.30076e-87 2.32684e-87 -4.53679e-87)
(1.69795e-89 1.19664e-89 -2.33379e-89)
(8.69462e-92 6.12599e-92 -1.19505e-91)
(4.43297e-94 3.12255e-94 -6.09299e-94)
(2.25103e-96 1.5852e-96 -3.09398e-96)
(1.13879e-98 8.01744e-99 -1.56524e-98)
(5.74144e-101 4.0411e-101 -7.89144e-101)
(2.88568e-103 2.03054e-103 -3.96628e-103)
(1.4463e-105 1.01743e-105 -1.9879e-105)
(7.23046e-108 5.08499e-108 -9.93805e-108)
(8.60149e-83 6.02103e-83 -1.18225e-82)
(4.24792e-85 2.97223e-85 -5.83865e-85)
(2.13151e-87 1.49058e-87 -2.9297e-87)
(1.08202e-89 7.56198e-90 -1.48721e-89)
(5.53455e-92 3.86542e-92 -7.60707e-92)
(2.84283e-94 1.98414e-94 -3.90738e-94)
(1.46241e-96 1.02e-96 -2.01004e-96)
(7.51904e-99 5.24091e-99 -1.03347e-98)
(3.85829e-101 2.68759e-101 -5.30311e-101)
(1.9739e-103 1.37412e-103 -2.71307e-103)
(9.83162e-85 6.90169e-85 -1.35133e-84)
(4.92403e-87 3.45561e-87 -6.76794e-87)
(2.46254e-89 1.72763e-89 -3.38469e-89)
(1.23138e-91 8.63591e-92 -1.6925e-91)
(6.16197e-94 4.31982e-94 -8.46945e-94)
(3.08715e-96 2.1633e-96 -4.2432e-96)
(1.54871e-98 1.08474e-98 -2.12865e-98)
(7.77889e-101 5.44578e-101 -1.06919e-100)
(3.91106e-103 2.73659e-103 -5.37564e-103)
(1.96761e-105 1.37601e-105 -2.70442e-105)
(8.93961e-87 6.28937e-87 -1.22872e-86)
(4.59068e-89 3.22883e-89 -6.30975e-89)
(2.34632e-91 1.64981e-91 -3.22495e-91)
(1.19438e-93 8.39591e-94 -1.64164e-93)
(6.05937e-96 4.25822e-96 -8.32843e-96)
(3.06551e-98 2.15364e-98 -4.21346e-98)
(1.54738e-100 1.08675e-100 -2.12683e-100)
(7.79658e-103 5.47383e-103 -1.07162e-102)
(3.92262e-105 2.75302e-105 -5.39152e-105)
(1.97117e-107 1.38291e-107 -2.70931e-107)
(7.05113e-89 4.96933e-89 -9.69157e-89)
(3.69485e-91 2.60329e-91 -5.07846e-91)
(1.92665e-93 1.35711e-93 -2.64812e-93)
(9.99967e-96 7.04184e-96 -1.37442e-95)
(5.16745e-98 3.63803e-98 -7.10251e-98)
(2.65958e-100 1.87194e-100 -3.65551e-100)
(1.36376e-102 9.59629e-103 -1.87445e-102)
(6.96934e-105 4.90278e-105 -9.57915e-105)
(3.55069e-107 2.49715e-107 -4.88031e-107)
(1.80392e-109 1.26832e-109 -2.47944e-109)
(8.89532e-85 6.22414e-85 -1.22264e-84)
(4.47924e-87 3.13278e-87 -6.15658e-87)
(2.29125e-89 1.60162e-89 -3.14926e-89)
(1.18544e-91 8.28121e-92 -1.62935e-91)
(6.17822e-94 4.31312e-94 -8.49178e-94)
(3.23251e-96 2.25514e-96 -4.443e-96)
(1.69329e-98 1.18051e-98 -2.32737e-98)
(8.86241e-101 6.17452e-101 -1.21811e-100)
(4.62777e-103 3.22213e-103 -6.36074e-103)
(2.40852e-105 1.67591e-105 -3.31043e-105)
(1.03733e-86 7.27941e-87 -1.42578e-86)
(5.29481e-89 3.71452e-89 -7.27756e-89)
(2.69778e-91 1.89201e-91 -3.70803e-91)
(1.37398e-93 9.6326e-94 -1.8885e-93)
(7.00076e-96 4.90612e-96 -9.62234e-96)
(3.57027e-98 2.50096e-98 -4.90723e-98)
(1.82269e-100 1.27619e-100 -2.50524e-100)
(9.31425e-103 6.51829e-103 -1.28022e-102)
(4.76319e-105 3.33162e-105 -6.54686e-105)
(2.4367e-107 1.70343e-107 -3.34918e-107)
(9.61621e-89 6.76335e-89 -1.32172e-88)
(5.03094e-91 3.53741e-91 -6.91488e-91)
(2.61879e-93 1.84084e-93 -3.59944e-93)
(1.35724e-95 9.53789e-96 -1.86549e-95)
(7.00827e-98 4.92358e-98 -9.63266e-98)
(3.60768e-100 2.53377e-100 -4.95865e-100)
(1.85243e-102 1.3006e-102 -2.54612e-102)
(9.49186e-105 6.66204e-105 -1.30463e-104)
(4.85527e-107 3.40655e-107 -6.67343e-107)
(2.47995e-109 1.73932e-109 -3.40861e-109)
(7.73028e-91 5.44654e-91 -1.0625e-90)
(4.1254e-93 2.90587e-93 -5.67024e-93)
(2.19009e-95 1.54227e-95 -3.01022e-95)
(1.15692e-97 8.14497e-98 -1.59015e-97)
(6.08303e-100 4.2815e-100 -8.36094e-100)
(3.18461e-102 2.24089e-102 -4.37715e-102)
(1.66058e-104 1.16819e-104 -2.28242e-104)
(8.62734e-107 6.06756e-107 -1.1858e-106)
(4.46732e-109 3.14099e-109 -6.14021e-109)
(2.30618e-111 1.62103e-111 -3.16978e-111)
(6.26581e-87 4.38244e-87 -8.61217e-87)
(3.21595e-89 2.2483e-89 -4.42023e-89)
(1.67645e-91 1.17137e-91 -2.30423e-91)
(8.83715e-94 6.17083e-94 -1.21464e-93)
(4.69139e-96 3.27373e-96 -6.44818e-96)
(2.49952e-98 1.74301e-98 -3.43552e-98)
(1.33289e-100 9.28839e-101 -1.83201e-100)
(7.09941e-103 4.94401e-103 -9.75793e-103)
(3.7715e-105 2.62476e-105 -5.18381e-105)
(1.99631e-107 1.38845e-107 -2.74386e-107)
(7.45216e-89 5.22766e-89 -1.02428e-88)
(3.87532e-91 2.71774e-91 -5.32651e-91)
(2.01105e-93 1.40989e-93 -2.76412e-93)
(1.04286e-95 7.30865e-96 -1.43338e-95)
(5.4088e-98 3.78915e-98 -7.43424e-98)
(2.80706e-100 1.96564e-100 -3.85822e-100)
(1.45797e-102 1.02046e-102 -2.00393e-102)
(7.57799e-105 5.30131e-105 -1.04157e-104)
(3.94065e-107 2.75529e-107 -5.4163e-107)
(2.0494e-109 1.43215e-109 -2.81684e-109)
(7.04066e-91 4.9504e-91 -9.67718e-91)
(3.75153e-93 2.63702e-93 -5.15636e-93)
(1.98824e-95 1.39719e-95 -2.73277e-95)
(1.04882e-97 7.36825e-98 -1.44157e-97)
(5.51062e-100 3.87026e-100 -7.57418e-100)
(2.88564e-102 2.02605e-102 -3.96623e-102)
(1.50683e-104 1.05763e-104 -2.07109e-104)
(7.84994e-107 5.50796e-107 -1.07895e-106)
(4.08144e-109 2.86275e-109 -5.60982e-109)
(2.11847e-111 1.48534e-111 -2.91177e-111)
(5.76654e-93 4.06188e-93 -7.92594e-93)
(3.13319e-95 2.2064e-95 -4.30648e-95)
(1.69297e-97 1.19188e-97 -2.32694e-97)
(9.09963e-100 6.40467e-100 -1.25072e-99)
(4.86687e-102 3.42461e-102 -6.68937e-102)
(2.59104e-104 1.82274e-104 -3.56131e-104)
(1.37356e-106 9.6602e-107 -1.88792e-106)
(7.2531e-109 5.09971e-109 -9.96916e-109)
(3.8163e-111 2.68254e-111 -5.2454e-111)
(2.0014e-113 1.40642e-113 -2.75086e-113)
(3.39219e-89 2.37158e-89 -4.62165e-89)
(1.77412e-91 1.23979e-91 -2.41674e-91)
(9.42246e-94 6.58092e-94 -1.28333e-93)
(5.05936e-96 3.53136e-96 -6.88967e-96)
(2.73519e-98 1.90783e-98 -3.72406e-98)
(1.48362e-100 1.03413e-100 -2.01967e-100)
(8.05214e-103 5.60875e-103 -1.09596e-102)
(4.36376e-105 3.03754e-105 -5.93844e-105)
(2.35798e-107 1.64028e-107 -3.20833e-107)
(1.26914e-109 8.82296e-110 -1.72654e-109)
(4.11349e-91 2.88458e-91 -5.60343e-91)
(2.1788e-93 1.52744e-93 -2.9675e-93)
(1.15129e-95 8.06855e-96 -1.56779e-95)
(6.07742e-98 4.25772e-98 -8.27468e-98)
(3.20782e-100 2.24645e-100 -4.36687e-100)
(1.69381e-102 1.18567e-102 -2.30544e-102)
(8.94861e-105 6.26106e-105 -1.21779e-104)
(4.7299e-107 3.30768e-107 -6.43574e-107)
(2.50063e-109 1.74779e-109 -3.40192e-109)
(1.32187e-111 9.23398e-112 -1.79801e-111)
(3.9598e-93 2.78336e-93 -5.39319e-93)
(2.14839e-95 1.50969e-95 -2.92559e-95)
(1.15899e-97 8.14209e-98 -1.57802e-97)
(6.22147e-100 4.36944e-100 -8.4694e-100)
(3.32544e-102 2.33484e-102 -4.52625e-102)
(1.77104e-104 1.2431e-104 -2.41017e-104)
(9.4032e-107 6.59803e-107 -1.27945e-106)
(4.9796e-109 3.4929e-109 -6.7744e-109)
(2.63119e-111 1.84497e-111 -3.57897e-111)
(1.38762e-113 9.72615e-114 -1.88714e-113)
(3.30353e-95 2.32635e-95 -4.49861e-95)
(1.82705e-97 1.28627e-97 -2.4876e-97)
(1.00458e-99 7.07054e-100 -1.36755e-99)
(5.49291e-102 3.8651e-102 -7.47636e-102)
(2.9878e-104 2.10183e-104 -4.06601e-104)
(1.61727e-106 1.13741e-106 -2.20053e-106)
(8.71463e-109 6.12733e-109 -1.18556e-108)
(4.67636e-111 3.28711e-111 -6.36081e-111)
(2.4998e-113 1.75669e-113 -3.39969e-113)
(1.3316e-115 9.35489e-116 -1.81066e-115)
)
;

boundaryField
{
    inlet
    {
        type            zeroGradient;
    }
    outlet
    {
        type            zeroGradient;
    }
    bottom
    {
        type            zeroGradient;
    }
    top
    {
        type            symmetryPlane;
    }
    side1
    {
        type            symmetryPlane;
    }
    side2
    {
        type            symmetryPlane;
    }
    procBoundary12to4
    {
        type            processor;
        value           nonuniform List<vector> 
50
(
(1.32147e-78 9.20495e-79 -1.81632e-78)
(6.40144e-81 4.45672e-81 -8.7986e-81)
(3.08997e-83 2.15012e-83 -4.24707e-83)
(1.4865e-85 1.03383e-85 -2.04316e-85)
(7.12836e-88 4.95499e-88 -9.79771e-88)
(3.40795e-90 2.36766e-90 -4.68412e-90)
(1.62458e-92 1.12808e-92 -2.23294e-92)
(7.72316e-95 5.36e-95 -1.06153e-94)
(3.66191e-97 2.5401e-97 -5.03319e-97)
(1.73191e-99 1.20071e-99 -2.38046e-99)
(2.63183e-80 1.8323e-80 -3.61737e-80)
(1.30062e-82 9.05026e-83 -1.78767e-82)
(6.40216e-85 4.45255e-85 -8.79958e-85)
(3.13958e-87 2.18236e-87 -4.31526e-87)
(1.53415e-89 1.06585e-89 -2.10865e-89)
(7.47122e-92 5.18788e-92 -1.0269e-91)
(3.6267e-94 2.517e-94 -4.9848e-94)
(1.75507e-96 1.21741e-96 -2.41229e-96)
(8.46835e-99 5.87102e-99 -1.16395e-98)
(4.07449e-101 2.82332e-101 -5.60027e-101)
(2.69225e-82 1.87337e-82 -3.70042e-82)
(1.35695e-84 9.43725e-85 -1.86509e-84)
(6.80973e-87 4.73351e-87 -9.35977e-87)
(3.40334e-89 2.36445e-89 -4.67779e-89)
(1.69426e-91 1.17646e-91 -2.32871e-91)
(8.40295e-94 5.83178e-94 -1.15496e-93)
(4.15278e-96 2.88058e-96 -5.70787e-96)
(2.04536e-98 1.41802e-98 -2.81129e-98)
(1.00413e-100 6.95786e-101 -1.38015e-100)
(4.91419e-103 3.40337e-103 -6.75441e-103)
(1.87611e-84 1.30478e-84 -2.57866e-84)
(9.64073e-87 6.70134e-87 -1.32509e-86)
(4.93081e-89 3.42564e-89 -6.77726e-89)
(2.51064e-91 1.74333e-91 -3.4508e-91)
(1.27292e-93 8.83422e-94 -1.74959e-93)
(6.42765e-96 4.45854e-96 -8.83461e-96)
(3.23311e-98 2.24147e-98 -4.44382e-98)
(1.62025e-100 1.12271e-100 -2.22698e-100)
(8.09101e-103 5.6035e-103 -1.11209e-102)
(4.02662e-105 2.78721e-105 -5.53448e-105)
(1.00491e-86 6.98516e-87 -1.36925e-86)
(5.26335e-89 3.65665e-89 -7.17047e-89)
(2.74284e-91 1.90456e-91 -3.73607e-91)
(1.42249e-93 9.87219e-94 -1.93728e-93)
(7.34351e-96 5.09379e-96 -9.99944e-96)
(3.77448e-98 2.61678e-98 -5.13876e-98)
(1.93195e-100 1.33868e-100 -2.62982e-100)
(9.8491e-103 6.82104e-103 -1.34047e-102)
(5.0019e-105 3.46227e-105 -6.80648e-105)
(2.53087e-107 1.75093e-107 -3.44339e-107)
)
;
    }
    procBoundary12to11
    {
        type            processor;
        value           nonuniform List<vector> 
20
(
(2.11098e-78 1.47643e-78 -2.90148e-78)
(1.68477e-80 1.18249e-80 -2.31566e-80)
(1.34544e-82 9.46873e-83 -1.84926e-82)
(1.00351e-84 7.07562e-85 -1.3793e-84)
(4.19388e-80 2.93189e-80 -5.76436e-80)
(3.40864e-82 2.39154e-82 -4.68508e-82)
(2.77425e-84 1.95182e-84 -3.81312e-84)
(2.10936e-86 1.48689e-86 -2.89926e-86)
(4.27986e-82 2.99065e-82 -5.88254e-82)
(3.54164e-84 2.48393e-84 -4.86788e-84)
(2.93698e-86 2.06568e-86 -4.0368e-86)
(2.27589e-88 1.60385e-88 -3.12814e-88)
(2.97549e-84 2.07825e-84 -4.08973e-84)
(2.50615e-86 1.75703e-86 -3.44463e-86)
(2.11687e-88 1.4884e-88 -2.90958e-88)
(1.67126e-90 1.17745e-90 -2.2971e-90)
(1.59016e-86 1.11015e-86 -2.16674e-86)
(1.36288e-88 9.55137e-89 -1.85677e-88)
(1.17226e-90 8.23976e-91 -1.59682e-90)
(9.42677e-93 6.63967e-93 -1.28388e-92)
)
;
    }
    procBoundary12to13
    {
        type            processor;
        value           nonuniform List<vector> 
20
(
(1.26122e-104 8.79644e-105 -1.73351e-104)
(1.67566e-106 1.17272e-106 -2.30314e-106)
(1.77901e-108 1.2483e-108 -2.44519e-108)
(1.63162e-110 1.14719e-110 -2.24261e-110)
(3.03083e-106 2.113e-106 -4.16579e-106)
(4.09531e-108 2.86513e-108 -5.62889e-108)
(4.4198e-110 3.10038e-110 -6.07489e-110)
(4.11959e-112 2.89571e-112 -5.66225e-112)
(3.73335e-108 2.6017e-108 -5.13138e-108)
(5.12969e-110 3.58754e-110 -7.0506e-110)
(5.62691e-112 3.94595e-112 -7.73402e-112)
(5.32935e-114 3.74508e-114 -7.32504e-114)
(3.12344e-110 2.17576e-110 -4.29308e-110)
(4.36301e-112 3.05027e-112 -5.99683e-112)
(4.86327e-114 3.4094e-114 -6.68442e-114)
(4.6794e-116 3.28747e-116 -6.4317e-116)
(2.00416e-112 1.3955e-112 -2.72621e-112)
(2.84558e-114 1.98871e-114 -3.87012e-114)
(3.22261e-116 2.25853e-116 -4.38217e-116)
(3.14965e-118 2.21217e-118 -4.28224e-118)
)
;
    }
    procBoundary12to20
    {
        type            processor;
        value           nonuniform List<vector> 
50
(
(4.29256e-90 3.03094e-90 -5.89999e-90)
(2.23159e-92 1.57525e-92 -3.06726e-92)
(1.19658e-94 8.44359e-95 -1.64466e-94)
(6.5405e-97 4.61362e-97 -8.98972e-97)
(3.60907e-99 2.54491e-99 -4.96056e-99)
(1.99633e-101 1.40722e-101 -2.7439e-101)
(1.10184e-103 7.76442e-104 -1.51444e-103)
(6.05124e-106 4.2629e-106 -8.31725e-106)
(3.30185e-108 2.32538e-108 -4.53829e-108)
(1.78871e-110 1.25938e-110 -2.45853e-110)
(9.24684e-92 6.52763e-92 -1.27095e-91)
(4.89646e-94 3.45555e-94 -6.73004e-94)
(2.67407e-96 1.8865e-96 -3.67542e-96)
(1.48844e-98 1.04969e-98 -2.04581e-98)
(8.3616e-101 5.89473e-101 -1.14928e-100)
(4.70722e-103 3.31735e-103 -6.46994e-103)
(2.64327e-105 1.86221e-105 -3.6331e-105)
(1.47644e-107 1.03985e-107 -2.02932e-107)
(8.19089e-110 5.76716e-110 -1.12581e-109)
(4.51005e-112 3.17463e-112 -6.19893e-112)
(1.0222e-93 7.21437e-94 -1.40498e-93)
(5.51216e-96 3.88916e-96 -7.5763e-96)
(3.06541e-98 2.16208e-98 -4.21331e-98)
(1.73721e-100 1.22484e-100 -2.38774e-100)
(9.93359e-103 7.00127e-103 -1.36534e-102)
(5.69042e-105 4.00928e-105 -7.82132e-105)
(3.25045e-107 2.28942e-107 -4.46765e-107)
(1.84628e-109 1.30001e-109 -2.53766e-109)
(1.04125e-111 7.32963e-112 -1.43117e-111)
(5.82663e-114 4.10037e-114 -8.00854e-114)
(7.68806e-96 5.42475e-96 -1.0567e-95)
(4.22055e-98 2.97717e-98 -5.80103e-98)
(2.38938e-100 1.68488e-100 -3.28413e-100)
(1.37826e-102 9.71526e-103 -1.89437e-102)
(8.01975e-105 5.65103e-105 -1.10229e-104)
(4.67356e-107 3.29204e-107 -6.42367e-107)
(2.71493e-109 1.91177e-109 -3.7316e-109)
(1.56779e-111 1.10365e-111 -2.15488e-111)
(8.98644e-114 6.32421e-114 -1.23516e-113)
(5.10929e-116 3.59468e-116 -7.02257e-116)
(4.44027e-98 3.13237e-98 -6.04612e-98)
(2.48102e-100 1.7497e-100 -3.37775e-100)
(1.42955e-102 1.00782e-102 -1.94592e-102)
(8.39142e-105 5.91366e-105 -1.14206e-104)
(4.96769e-107 3.49959e-107 -6.75979e-107)
(2.94447e-109 2.07357e-109 -4.00602e-109)
(1.73921e-111 1.22439e-111 -2.36583e-111)
(1.02089e-113 7.18484e-114 -1.38848e-113)
(5.94634e-116 4.18371e-116 -8.08607e-116)
(3.43454e-118 2.4158e-118 -4.66964e-118)
)
;
    }
}


// ************************************************************************* //
