/*--------------------------------*- C++ -*----------------------------------*\
| =========                 |                                                 |
| \\      /  F ield         | OpenFOAM: The Open Source CFD Toolbox           |
|  \\    /   O peration     | Version:  2.4.0                                 |
|   \\  /    A nd           | Web:      www.OpenFOAM.org                      |
|    \\/     M anipulation  |                                                 |
\*---------------------------------------------------------------------------*/
FoamFile
{
    version     2.0;
    format      ascii;
    class       volVectorField;
    location    "0.01";
    object      U;
}
// * * * * * * * * * * * * * * * * * * * * * * * * * * * * * * * * * * * * * //

dimensions      [0 1 -1 0 0 0 0];

internalField   nonuniform List<vector> 
40
(
(-4.1681e+08 8.77378e+08 -1.07094e+08)
(-5.70378e+08 8.92288e+08 -9.83131e+07)
(-6.3668e+08 1.07608e+09 -1.28314e+08)
(-4.80494e+08 1.05304e+09 -1.51069e+08)
(-4.39262e+08 3.10608e+08 -4.4559e+07)
(-1.22823e+09 1.28338e+09 -3.96475e+08)
(-1.01975e+09 1.0868e+09 -2.06854e+08)
(-8.65562e+08 9.97816e+08 -1.49602e+08)
(-6.94293e+08 8.69903e+08 -9.286e+07)
(-5.5946e+08 3.90793e+08 -4.76651e+07)
(-1.77122e+09 1.05874e+09 -2.48568e+08)
(-1.40583e+09 9.1909e+08 -1.77105e+08)
(-1.1614e+09 7.20835e+08 -1.69816e+08)
(-8.54297e+08 5.32438e+08 -1.00839e+08)
(-6.94013e+08 2.98053e+08 -6.01523e+07)
(-1.43247e+09 5.72119e+08 -6.95019e+07)
(-1.23326e+09 5.89432e+08 -5.38537e+07)
(-1.08124e+09 4.26557e+08 -8.14404e+07)
(-9.60484e+08 2.74857e+08 -1.29112e+08)
(-8.62062e+08 2.67014e+08 -1.21983e+08)
(-3.72215e+08 1.07189e+09 -2.32831e+08)
(-5.44479e+08 8.83238e+08 -2.33791e+08)
(-5.59989e+08 1.11204e+09 -2.79931e+08)
(-4.82806e+08 8.82344e+08 -2.85828e+08)
(-3.81807e+08 4.21346e+08 -9.44366e+07)
(-8.93196e+08 1.43695e+09 -7.86709e+08)
(-8.85892e+08 9.15923e+08 -4.21544e+08)
(-7.39999e+08 8.57789e+08 -2.66708e+08)
(-5.46511e+08 5.83636e+08 -1.55404e+08)
(-4.21164e+08 2.949e+08 -8.96942e+07)
(-9.27429e+08 1.21187e+09 -3.72962e+08)
(-7.34442e+08 6.89033e+08 -3.06712e+08)
(-6.15684e+08 4.52764e+08 -2.61562e+08)
(-5.02583e+08 2.59054e+08 -1.71086e+08)
(-4.43167e+08 2.35553e+08 -1.01709e+08)
(-8.80266e+08 7.1864e+08 -1.29375e+08)
(-6.88973e+08 4.10779e+08 -1.26557e+08)
(-6.30701e+08 2.45166e+08 -1.11748e+08)
(-6.68311e+08 1.867e+08 -1.78977e+08)
(-7.17934e+08 2.78384e+08 -2.45854e+08)
)
;

boundaryField
{
    inlet
    {
        type            calculated;
        value           nonuniform 0();
    }
    outlet
    {
        type            calculated;
        value           nonuniform 0();
    }
    bottom
    {
        type            calculated;
        value           uniform (0 0 0);
    }
    top
    {
        type            symmetryPlane;
    }
    side1
    {
        type            symmetryPlane;
    }
    side2
    {
        type            symmetryPlane;
    }
    procBoundary45to29
    {
        type            processor;
        value           nonuniform List<vector> 10((-2.34943e+08 5.17424e+08 -8.43388e+07) (-2.6389e+08 6.60578e+08 -7.4727e+07) (-1.76974e+08 1.03386e+09 -1.28038e+08) (-2.16506e+08 8.78817e+08 -9.67436e+07) (-2.43227e+08 3.4783e+08 -3.57785e+07) (-1.72137e+08 7.48226e+08 -2.49531e+08) (-1.81927e+08 7.87789e+08 -2.05566e+08) (-1.24415e+08 1.19433e+09 -2.50928e+08) (-1.39904e+08 9.9135e+08 -2.11198e+08) (-1.27247e+08 5.38219e+08 -1.10208e+08));
    }
    procBoundary45to44
    {
        type            processor;
        value           nonuniform List<vector> 8((-3.52675e+08 8.81776e+08 -1.57059e+08) (-1.03987e+09 1.23537e+09 -2.36126e+08) (-2.1287e+09 1.66722e+09 -3.9662e+08) (-1.90392e+09 9.35068e+08 -6.86125e+06) (-2.69282e+08 1.01844e+09 -3.72855e+08) (-7.80521e+08 1.10966e+09 -4.52553e+08) (-9.8735e+08 1.12155e+09 -5.43609e+08) (-1.12545e+09 8.59784e+08 -1.57599e+08));
    }
    procBoundary45to46
    {
        type            processor;
        value           nonuniform List<vector> 8((-4.3842e+08 1.76241e+08 -8.31911e+06) (-5.88745e+08 2.22745e+08 -1.65991e+07) (-6.54256e+08 3.33586e+08 -4.22086e+07) (-8.87652e+08 5.02301e+08 -1.11736e+08) (-3.37059e+08 1.97336e+08 -1.63145e+07) (-4.06328e+08 2.31842e+08 -2.92557e+07) (-4.80781e+08 2.62422e+08 -8.31228e+07) (-7.20402e+08 2.571e+08 -2.16289e+08));
    }
    procBoundary45to61
    {
        type            processor;
        value           nonuniform List<vector> 10((-1.86724e+09 2.90512e+08 1.36168e+08) (-1.85273e+09 3.00282e+08 6.62242e+07) (-1.69122e+09 2.59819e+08 -2.98325e+07) (-1.58802e+09 2.21457e+08 -6.42915e+07) (-1.45491e+09 2.7068e+08 -1.40223e+08) (-9.1e+08 3.10652e+08 1.22292e+08) (-7.15137e+08 2.33126e+08 4.79813e+07) (-6.23735e+08 1.6071e+08 -6.43081e+07) (-5.37806e+08 1.56285e+08 -1.02755e+08) (-4.86372e+08 1.81381e+08 -1.93887e+08));
    }
    procBoundary45to109
    {
        type            processor;
        value           nonuniform List<vector> 
20
(
(-2.40453e+08 1.25976e+09 -1.81736e+08)
(-3.22375e+08 1.15229e+09 -2.3646e+08)
(-4.00132e+08 9.42538e+08 -2.48332e+08)
(-3.4566e+08 7.46246e+08 -2.76516e+08)
(-2.14829e+08 4.09769e+08 -1.29598e+08)
(-7.33987e+08 1.33871e+09 -4.21032e+08)
(-7.47231e+08 1.04697e+09 -3.22495e+08)
(-5.82408e+08 7.3037e+08 -2.15418e+08)
(-3.57214e+08 3.77026e+08 -1.4474e+08)
(-2.33468e+08 2.35576e+08 -9.44029e+07)
(-6.12217e+08 1.05047e+09 -2.04015e+08)
(-4.66106e+08 7.33039e+08 -1.56325e+08)
(-3.92616e+08 3.72615e+08 -1.44965e+08)
(-3.54214e+08 1.68821e+08 -1.29946e+08)
(-3.33196e+08 1.611e+08 -1.18259e+08)
(-7.80051e+08 6.13522e+08 -1.87884e+08)
(-6.3068e+08 4.83159e+08 -1.38875e+08)
(-4.93872e+08 1.96055e+08 -7.45426e+07)
(-4.52826e+08 1.03943e+08 -9.15435e+07)
(-4.4964e+08 1.40745e+08 -1.97623e+08)
)
;
    }
}


// ************************************************************************* //
