/*--------------------------------*- C++ -*----------------------------------*\
| =========                 |                                                 |
| \\      /  F ield         | OpenFOAM: The Open Source CFD Toolbox           |
|  \\    /   O peration     | Version:  2.4.0                                 |
|   \\  /    A nd           | Web:      www.OpenFOAM.org                      |
|    \\/     M anipulation  |                                                 |
\*---------------------------------------------------------------------------*/
FoamFile
{
    version     2.0;
    format      ascii;
    class       volSymmTensorField;
    location    "0.03";
    object      B;
}
// * * * * * * * * * * * * * * * * * * * * * * * * * * * * * * * * * * * * * //

dimensions      [0 2 -2 0 0 0 0];

internalField   nonuniform List<symmTensor> 
200
(
(21.0357 -1.96823 -6.69918 24.147 -0.746826 17.819)
(13.6651 -0.372023 -3.1165 10.7491 0.438054 9.42242)
(17.6411 5.72488 -3.52222 22.9985 0.929204 13.7784)
(3.97301 -0.53277 -4.27734 6.69928 0.469215 2.75025)
(29.2959 -4.76323 -9.06392 48.463 3.06948 31.3381)
(13.7474 -1.64766 -7.30757 13.5244 -0.358204 11.8872)
(56.3589 12.5343 -3.9922 64.9377 4.5269 52.4801)
(14.9103 0.712505 -3.00609 28.2988 -0.093036 21.4242)
(77.7019 -0.2372 -13.6518 101.343 7.48438 90.2665)
(12.2075 -0.706476 -6.4581 20.7307 1.20525 12.7571)
(10.6187 1.15301 -4.13076 5.57009 -0.0354064 5.83668)
(31.5961 7.5135 -5.99381 44.5868 3.48176 26.4026)
(4.92901 -0.692725 -1.2104 3.58716 0.0534694 3.442)
(44.0398 15.1879 -4.30479 50.8173 7.41845 31.8116)
(-0.343526 0.906181 -2.70537 0.0624187 2.51294 1.42791)
(50.2992 4.72166 -4.08415 67.6935 4.58006 51.9503)
(31.1837 -1.23731 -7.46595 35.0597 3.66856 32.5532)
(25.9532 14.1164 2.82509 36.5557 15.843 26.7901)
(18.8586 0.472121 -2.73934 33.3578 2.02439 31.6968)
(343.12 -8.36901 -36.3443 394.967 22.3569 397.462)
(30.4601 1.19601 -7.84245 48.764 3.00428 28.1784)
(4.04086 -0.399667 -1.91679 1.26735 0.321456 1.64374)
(29.0815 6.283 -1.74246 38.5072 3.36277 25.9945)
(1.67985 -0.416617 -0.342598 1.58307 0.305877 1.37123)
(4.5178 2.28326 -2.16779 5.35825 2.14214 2.65738)
(96.2494 -0.908046 -1.35646 103.143 3.47107 126.223)
(-3.65341 3.46431 -3.59343 3.60631 1.75896 2.84186)
(61.4149 1.49266 -12.7891 59.1685 6.48956 63.9428)
(24.6088 23.1548 6.16503 14.965 6.52342 36.2982)
(54.0591 0.25467 -2.15373 61.5456 1.82692 62.2621)
(3.39564 0.565621 -1.13329 2.16189 0.894977 2.47823)
(33.7203 4.49772 -3.15495 47.3679 3.03369 33.2045)
(1.24242 0.165811 -1.24488 1.74791 1.03032 0.599398)
(15.729 2.17307 -2.37406 26.4089 3.19116 16.9468)
(11.4029 -0.824002 -1.81375 19.1531 2.44676 13.2609)
(2.89516 0.872316 -2.44449 5.80474 0.809032 1.13865)
(51.6834 7.13115 -10.3438 71.8012 7.62166 63.9906)
(6.40555 0.993219 -4.04376 11.666 0.710653 10.9522)
(72.5138 2.60414 -13.2447 70.4091 6.06382 71.8802)
(20.7344 20.3259 0.625661 -9.48344 -1.65596 14.2588)
(6.40137 0.452238 -0.555567 2.84028 0.093342 1.88521)
(13.5526 4.24744 -0.134008 14.3369 0.39951 9.33214)
(3.75638 -1.38709 -0.288678 3.96168 -0.454453 0.654284)
(14.1147 2.53801 1.20843 20.4408 -0.343404 14.3444)
(8.17519 1.02767 0.628775 16.7853 0.144287 12.3089)
(10.8529 2.71853 3.20808 19.7553 1.04501 12.019)
(10.6124 -0.0342778 -0.411111 21.0979 -0.237226 14.8945)
(21.6392 2.75728 9.5265 55.0555 5.66563 27.8833)
(12.2569 -2.28182 -2.30679 29.4968 -2.94738 16.9958)
(134.201 -1.17802 -4.10546 149.62 8.82776 136.964)
(8.62484 3.43575 -1.44486 13.0733 0.804013 2.72926)
(8.83021 -0.525497 -0.344633 6.14449 -0.485778 6.19716)
(39.2987 8.82966 -1.14773 41.1291 2.62464 33.8046)
(8.6941 2.83296 2.67824 7.37691 -0.381414 6.85778)
(0.577061 4.48159 1.82716 10.8848 -2.31146 2.24269)
(236.46 2.01274 0.848771 245.668 7.30081 254.47)
(13.2247 12.6642 26.9751 27.1271 -2.73444 28.8897)
(10.8311 -0.755716 -1.98181 22.8067 4.73513 28.3477)
(136.207 22.6222 60.365 162.456 10.1632 142.548)
(40.2984 -1.33731 -22.4939 63.6949 4.92244 43.8981)
(11.617 -0.814462 -0.950665 6.31281 -0.99599 7.17428)
(34.1441 9.30541 0.610874 37.0753 1.58083 21.7271)
(15.7919 -1.80382 -0.387047 4.14724 -0.817145 3.61552)
(16.4847 3.13503 -0.0552203 15.9349 2.07406 12.5783)
(809.794 3.81592 95.9553 793.084 -1.66165 842.065)
(-14.9416 3.86778 5.32762 -8.29329 -2.48275 -4.36188)
(1175.48 -1.98393 -28.9682 1212.29 7.75494 1288.09)
(26.0951 8.93214 14.6701 39.1264 -3.95063 50.3908)
(51.333 4.71364 -4.40418 53.9942 2.92807 61.2352)
(36.8828 17.3537 26.1221 31.6839 -29.4219 64.2509)
(18.8279 2.44844 -2.14985 28.1454 -0.704153 14.1311)
(7.64461 -2.33493 -2.5795 4.16735 -0.959474 2.37308)
(19.4221 5.21219 0.25796 24.1704 1.62768 13.1151)
(10.0579 5.08847 -0.912337 3.22636 1.54464 7.55593)
(75.6501 -9.72187 -3.37883 68.2149 4.15203 65.1376)
(249.902 -9.2206 9.0357 265.291 -6.58493 284.898)
(51.3519 6.10033 9.37077 72.0804 0.100606 74.2051)
(29.2301 6.81027 -2.53513 33.6296 0.0090162 34.5807)
(10.9706 4.78664 1.896 11.242 -4.57617 13.6037)
(33.2158 3.3558 -3.35247 34.5207 0.139021 38.9014)
(15.9742 3.83925 -7.69815 15.1807 0.732292 17.8857)
(9.07623 -3.52009 -7.14598 8.49245 -1.36311 3.02599)
(33.6035 6.27935 1.24647 44.1919 0.561623 38.6438)
(84.8288 4.70704 6.75511 77.034 -5.19457 21.1225)
(48.302 -3.47203 -1.40737 45.9677 -2.19261 51.702)
(177.146 7.9279 0.0115497 193.475 20.6893 204.642)
(9.18959 4.45637 4.36623 19.2831 0.788797 18.0233)
(42.0838 0.453915 2.17363 62.7248 6.48874 55.0929)
(36.998 -0.66591 -1.29895 56.5258 4.9648 39.1694)
(25.5072 0.660409 6.02705 35.507 0.755923 36.9894)
(13.1688 -0.823373 -5.29555 6.18552 -2.59334 7.15249)
(47.0251 17.3394 -5.30293 55.665 2.49785 52.9682)
(46.1399 2.79048 1.43812 39.9673 -4.2082 19.7969)
(59.9593 -6.84428 0.236808 75.4463 -6.56119 59.2469)
(487.719 -4.4979 119.48 458.281 31.3955 299.514)
(132.884 2.90714 8.6449 128.41 -3.02084 126.902)
(1177.28 16.648 -31.7118 1239.3 66.6923 1260.36)
(35.3122 23.8146 19.2591 74.2413 12.7501 80.7236)
(84.2447 -11.9553 -22.0664 110.739 17.662 109.201)
(151.123 -4.20016 -6.81214 161.844 4.99115 147.094)
(46.548 9.6976 -12.9166 49.9119 4.12829 43.9743)
(17.9033 4.02637 -12.779 2.11607 -4.33199 -4.98769)
(86.7006 32.2295 -0.573189 83.957 7.09527 75.9461)
(473.099 10.2883 134.704 459.702 2.86049 407.372)
(37.3996 -1.59316 -5.14415 78.571 3.75924 56.3543)
(1179.99 6.11655 417.215 1272.74 -1.78583 821.776)
(94.375 2.27753 28.3304 87.0084 9.11516 74.8357)
(3491.35 -11.8863 -142.112 3547.51 5.49282 3683.6)
(15.1987 41.9256 35.0404 63.9809 -19.0135 108.367)
(86.4583 -2.94679 -10.3155 94.7064 4.65904 92.2223)
(4.89721 -3.4868 -7.88418 7.17102 -0.0738476 2.71242)
(73.9063 30.9003 -7.88247 86.8959 18.708 74.7497)
(84.862 26.2624 12.6701 60.248 -3.89758 20.9989)
(166.69 14.4753 9.2105 157.324 20.5406 150.38)
(438.502 68.3863 187.755 434.511 -82.7277 190.581)
(180.74 -8.82006 8.60685 172.455 20.4182 173.548)
(2162.35 -29.8504 -34.536 2176.44 -35.8386 2249.53)
(63.3853 5.64357 -0.957306 127.59 -11.7573 148.15)
(30.3296 15.8575 2.15428 34.261 -9.61274 37.5135)
(107.682 36.3271 39.8831 83.7229 -41.433 94.3635)
(-2.38965 -5.39345 -16.4984 6.74341 -12.2688 -4.19559)
(15.8398 7.55995 0.804712 31.4857 11.3028 51.5382)
(315.37 -43.6942 -197.262 302.068 -48.9294 203.868)
(236.134 -16.9647 29.8679 135.381 84.2168 233.405)
(1010.53 29.4122 155.461 876.962 -112.127 782.534)
(402.157 -26.8178 -17.3061 368.909 -9.65022 391.937)
(235.224 9.40078 -24.5133 255.815 30.355 287.243)
(45.3589 6.22627 -10.3257 60.8743 4.76697 64.1463)
(39.0368 0.790918 0.0876943 61.8029 5.30916 60.9499)
(15.8933 0.429593 0.0716574 34.9641 -3.15111 28.7638)
(15.1652 4.73669 -1.1874 27.2581 3.5931 37.0314)
(26.4679 -13.6362 -48.4524 32.2933 -30.6348 -34.3369)
(47.9171 -12.3216 -3.32722 57.6279 -3.13513 79.5207)
(555.626 -144.332 -441.155 681.274 72.1349 281.726)
(93.674 -4.03439 20.2505 119.924 -30.3022 212.739)
(2168.58 47.638 523.89 1931.88 -201.645 1381.8)
(729.367 -9.5742 0.266325 694.606 -9.46743 676.371)
(1401.03 9.69303 -43.787 1446.28 61.9324 1447.68)
(72.6489 5.36252 -15.2193 90.8917 8.60938 92.0729)
(27.5991 -4.98147 0.273098 38.0075 -0.276631 43.0697)
(11.3783 -3.52342 -14.5738 21.0189 -4.10558 10.0989)
(22.3192 11.3643 -1.11696 80.4196 8.54294 99.9069)
(37.7182 -18.6316 -22.3141 67.6232 -53.7817 -106.868)
(344.599 -3.98326 -15.1563 374.52 4.37927 357.108)
(349.362 -58.4083 -426.471 602.42 -161.203 -561.414)
(168.236 22.217 -57.1751 325.341 -11.4102 311.889)
(5241.12 128.215 1719.93 5523.94 279.956 3722.06)
(542.405 -2.97299 68.5708 458.629 24.3333 401.133)
(6787.74 -10.3297 -99.6908 6803.16 1.53772 6876.79)
(133.342 -0.659721 -24.6176 151.325 -4.22318 163.484)
(42.598 11.9533 1.44876 87.1651 7.77067 89.2147)
(5.69945 13.9744 -125.736 85.6547 -10.7638 -103.592)
(171.613 17.1416 4.03004 195.12 5.54088 199.446)
(866.76 -25.412 -685.734 801.055 -419.295 66.7091)
(188.704 23.8659 -62.0746 290.911 47.923 342.805)
(5324.36 404.535 1716.8 5681.89 206.815 4197.07)
(1230.74 7.53145 53.2116 1068.73 52.7973 1027.31)
(7212.56 -38.4798 -108.487 7199.64 -45.4517 7278.48)
(270.33 -0.634823 -35.3818 337.346 -17.8082 369.208)
(21.6797 8.47088 -1.95085 23.7973 -1.23713 21.5528)
(23.8214 9.38592 6.89707 40.8842 20.0252 62.0367)
(104.276 -24.6842 -122.312 157.593 -79.5017 154.347)
(182.769 22.3222 34.4449 196.997 113.629 365.184)
(542.326 -85.5822 -567.503 805.666 -351.23 1076.68)
(899.536 10.0049 -6.66197 964.003 204.844 1211.71)
(3242.9 41.2298 257.876 3162.1 -174.866 3137.3)
(300.639 -30.9806 -10.6303 301.068 -6.50405 253.062)
(119.742 -5.68099 -13.7979 125.934 7.05859 120.666)
(48.4118 -1.36685 -9.29687 40.0394 4.17364 44.1274)
(2.98291 0.390734 -0.343949 5.03691 3.78997 4.86126)
(51.3092 -11.1182 -54.6494 76.1861 -9.24814 69.027)
(44.8171 1.0902 21.5161 85.2647 4.32333 168.944)
(171.315 -66.8806 -298.913 323.138 -33.0812 324.438)
(459.827 -24.7673 108.786 517.428 -0.318099 923.878)
(260.031 -121.201 -1098.58 1026.7 94.6185 1477.62)
(1318.24 2.39548 -108.137 1530.57 0.818384 1973.84)
(5482.98 32.5041 745.962 5155.64 -278.775 5110.73)
(663.242 -60.0902 12.6176 582.986 -26.3779 488.954)
(1424.42 -8.83111 -16.6859 1428.04 40.7049 1412.45)
(261.999 10.1766 -16.2214 254.427 18.1088 253.808)
(33.9908 9.2002 14.383 52.6534 4.74175 91.1515)
(73.5262 -19.5293 -102.096 134.559 -24.0252 146.075)
(125.215 -2.95563 24.7017 279.204 4.64762 429.015)
(193.799 -61.6672 -245.977 344.085 -82.4131 345.636)
(555.431 -51.2933 37.843 855.205 2.56757 1374.47)
(-584.14 -62.7819 -159.972 -60.715 -172.39 359.815)
(1372.46 9.6768 -288.385 1558.86 -87.12 1974.91)
(10792.5 93.2052 2308.27 11098.8 424.46 10047.6)
(1992.05 -8.24955 189.076 1791.75 73.897 1305.66)
(6019.1 -4.14575 -78.3745 5993.34 -2.13279 5976.41)
(93.0833 -10.3046 -122.235 143.247 -11.169 146.147)
(101.043 25.3579 42.9154 188.332 -2.15672 334.291)
(341.378 -74.5208 -572.973 537.882 -143.508 631.304)
(680.832 -3.10264 162.523 920.698 27.0811 1585.34)
(-4.85789 -494.463 -1489.85 643.536 -705.814 1738.73)
(2348.26 5.29098 -293.7 2589.73 -90.4808 3322.11)
(13784.7 655.272 3009.67 14520.7 672.028 13329.6)
(2140.18 66.5603 129.849 1872.34 149.281 1467.55)
(6883.43 -14.949 -93.0967 6806.62 -58.3807 6789.06)
(493.318 -6.50599 -58.8974 518.716 -25.4698 506.435)
)
;

boundaryField
{
    inlet
    {
        type            calculated;
        value           nonuniform 0();
    }
    outlet
    {
        type            calculated;
        value           nonuniform 0();
    }
    bottom
    {
        type            calculated;
        value           nonuniform List<symmTensor> 
40
(
(0.00346402 -0.0608156 -0.372857 0.0995997 0.396135 -0.0381976)
(0.0929387 0.0426356 -0.341104 -0.0937452 -0.316629 -0.221513)
(-0.058461 0.0208493 -0.250219 0.260621 0.34968 -0.0798482)
(0.0214383 0.048608 -0.201789 -0.0845872 0.0399962 -0.0511979)
(0.110714 -0.0192657 -0.376559 -0.040298 -0.366558 -0.284421)
(-0.0152038 0.133719 -0.220538 0.215994 0.390719 -0.0717372)
(0.0581442 -0.0228938 -0.289342 -0.100728 -0.139212 -0.124439)
(-0.0755332 0.113852 -0.15522 0.269932 0.265925 -0.0722908)
(-0.00862107 0.151052 -0.213955 0.132734 0.328455 -0.0635968)
(0.0551663 -0.0685196 -0.338772 -0.0775605 -0.187562 -0.160881)
(-0.0226701 0.153187 -0.142362 0.207138 0.281646 -0.0914303)
(-0.0386922 0.0115765 -0.238826 -0.00340013 0.101425 -0.00746057)
(-0.0430752 -0.0176085 -0.365847 0.0470306 -0.164111 -0.167226)
(0.0505615 0.226657 -0.158929 0.151706 0.276816 -0.0764847)
(-0.00194925 -0.0641886 -0.26981 -0.0168608 0.0122256 0.0116157)
(-0.115382 0.0661047 -0.170624 0.209502 0.234101 -0.0522191)
(-0.118033 -0.0909702 -0.302332 0.248029 0.248429 -0.0487457)
(-0.0788812 0.0311736 -0.294488 -0.0649163 0.0708694 -0.0324226)
(-0.0225432 0.0943382 -0.201178 0.0121817 0.182148 -0.018761)
(-0.171434 -0.0383101 -0.300539 0.188893 0.1009 0.0582223)
(-0.0333751 -0.0612186 -0.520687 -0.0416608 -0.256385 -0.203669)
(-0.142294 0.129693 -0.220417 0.335486 0.276606 -0.0495256)
(-0.260751 -0.0240745 -0.294494 -0.0779726 0.140819 0.00367359)
(-0.0661889 0.0411415 -0.327505 0.071037 0.173802 -0.00614546)
(-0.000934714 0.277641 -0.217137 0.189089 0.136095 -0.236568)
(-0.0846237 -0.0475646 -0.479023 0.0643784 0.213492 0.0655666)
(-0.177371 0.0877856 -0.274705 0.00659002 0.142942 0.0274231)
(-0.183375 0.142482 -0.358917 0.218582 0.261253 -0.000430028)
(-0.329477 0.0304975 -0.347133 0.243594 0.0453132 0.0250257)
(-0.00379954 0.135334 -0.0951076 0.0978468 0.240723 -0.26157)
(0.0370319 0.0347976 -0.492552 -0.0153375 0.276736 0.219339)
(-0.191418 0.0450318 -0.369095 0.0470879 0.124887 -0.00259631)
(-0.219702 -0.00513939 -0.552245 0.292538 0.16659 0.0109546)
(-0.514665 0.0221179 -0.286495 0.164594 0.287632 0.609054)
(0.0183558 0.178358 -0.0678049 -0.0559292 0.155596 -0.144397)
(0.0714765 0.0618861 -0.552878 0.0214586 0.276197 0.123465)
(-0.136416 -0.0231361 -0.499669 0.142705 0.0538065 -0.0692414)
(-0.459631 -0.132607 -0.931571 0.361884 0.333878 0.0136437)
(-0.495359 0.0222078 -0.365871 0.157474 0.449884 0.894392)
(0.076827 0.17104 -0.136923 -0.177452 0.151997 -0.184859)
)
;
    }
    top
    {
        type            symmetryPlane;
    }
    side1
    {
        type            symmetryPlane;
    }
    side2
    {
        type            symmetryPlane;
    }
    procBoundary4to3
    {
        type            processor;
        value           nonuniform List<symmTensor> 
20
(
(1.27582 4.25925 -5.49681 0.579652 1.11498 -2.12024)
(-2.45724 -3.68146 -8.99715 7.75811 1.53841 -3.17181)
(1.08282 2.07349 -2.86869 -2.09107 0.909953 -1.00052)
(-2.81572 1.18362 -4.29873 11.3814 2.52934 -3.49955)
(-0.157916 -2.22245 -1.27303 1.22022 -0.481815 -1.27818)
(2.61343 2.20914 -0.639804 -1.44534 -0.717575 -1.31246)
(-0.851382 -2.76253 -3.19691 6.08359 -0.849109 -3.76399)
(0.973406 -0.135069 -1.0083 -1.08175 -0.353774 -1.04318)
(0.0225995 1.30083 -2.12205 -0.305005 -0.51594 0.0409518)
(1.04312 -2.64641 -8.38227 1.63302 1.95247 1.76764)
(0.595293 -0.572718 -2.8138 -1.50168 -1.205 -0.518096)
(-3.08931 -1.4324 -10.0292 11.446 3.13756 1.13801)
(-6.27443 -1.18541 -3.37399 0.0618506 3.2222 6.2374)
(-3.13639 -0.260596 -4.58314 0.599621 -2.86901 -2.21141)
(-11.4144 0.173545 -3.37878 7.00599 4.28928 10.4058)
(-10.3384 -0.0216283 -8.89646 4.47836 -0.17532 -2.33874)
(-4.95561 -5.93226 -16.1314 7.38499 -11.3637 -2.08165)
(-4.01588 3.80351 4.41946 -2.13321 3.28964 10.851)
(-8.8015 -4.20877 -27.3845 1.82689 -3.73015 -0.617516)
(-6.51547 0.776502 8.33725 6.36674 2.53905 14.9606)
)
;
    }
    procBoundary4to5
    {
        type            processor;
        value           nonuniform List<symmTensor> 
20
(
(-1.70204 -6.43515 -18.4505 5.0516 -3.42681 -0.635891)
(0.603185 -0.780133 -5.27731 1.94094 -0.0570158 -7.773)
(-28.5132 -16.9846 -47.6309 21.5308 21.4903 18.6895)
(-10.8421 -1.62445 -4.61283 5.39108 5.87823 3.79051)
(-1.98726 0.0530541 3.40458 1.51538 -2.75032 -0.550336)
(-11.6098 -9.39521 -20.5487 11.965 7.94507 -1.92844)
(-3.41266 -0.924799 -0.365627 2.86781 2.88933 -0.0840462)
(-7.47135 6.0377 7.42415 -13.3752 -19.7388 8.82904)
(-3.80419 0.887646 4.45128 4.1455 -3.40234 -1.13423)
(-6.09809 -0.274208 5.37431 0.211876 -0.0554829 9.10305)
(-1.80739 -7.26874 -14.9982 7.94598 3.64877 -6.87561)
(-3.77235 -0.685754 -4.9052 4.24589 0.0658526 1.57045)
(-8.27646 -0.85591 2.37607 5.35787 4.55869 3.65177)
(-5.60385 -2.29894 -0.588475 1.94714 0.922675 1.29105)
(2.33566 0.561393 0.172951 -0.471881 -0.319497 2.39108)
(3.64859 1.78402 -4.60559 3.46574 -2.1884 -8.28128)
(-3.03906 2.22042 1.71027 4.41942 -5.27084 -0.931295)
(-2.11776 3.43593 -0.810405 2.56065 -1.62756 -0.677202)
(-11.3558 6.87476 -50.242 -1.2301 0.0888443 -1.13101)
(-3.81412 2.14382 -1.51128 0.981044 -2.14395 1.2852)
)
;
    }
    procBoundary4to12
    {
        type            processor;
        value           nonuniform List<symmTensor> 
50
(
(-1.71446 3.26152 -2.54393 7.9462 4.21081 -2.1031)
(-1.33334 1.28671 -1.58016 0.253261 2.70952 -0.875842)
(-1.30326 3.98562 -2.74859 5.78467 4.59994 -2.19759)
(0.689463 4.61637 -1.90851 2.08223 4.07352 -2.31314)
(-10.2853 0.755899 -1.24013 4.74336 4.02883 -1.15301)
(2.34079 3.01405 -0.610505 7.47482 5.00938 1.2537)
(-3.83956 2.82315 -6.31981 3.41026 5.15207 4.10503)
(-33.3979 -2.24464 -21.5135 10.1582 8.63976 2.84746)
(-0.580323 1.19806 -4.52331 2.02917 2.53221 -0.80732)
(6.78397 4.20086 -12.1903 2.54113 8.62401 -0.334665)
(-0.229275 -0.227239 -1.39032 -0.0252313 0.443587 -1.29291)
(-1.61941 5.71247 -3.0567 8.58716 0.910897 -3.20961)
(-0.220629 -1.23584 -3.00917 1.8038 2.27997 -5.83755)
(-1.09249 1.32256 -0.638464 5.53301 3.60083 0.305421)
(-7.07476 -0.371117 4.03195 -1.07784 4.06093 0.302347)
(-5.51877 -1.81438 5.18714 7.32056 2.88844 0.903052)
(-3.50073 5.66533 3.64394 6.15424 -3.24158 -3.3246)
(-3.25627 2.38616 -1.17244 1.79179 -0.379754 0.772689)
(-5.51742 2.14426 -2.33174 4.00535 0.516043 1.69439)
(-0.615757 1.90509 0.640621 -0.0691711 -1.05399 0.264463)
(-10.7795 10.2844 -3.07925 22.3722 10.7195 2.78586)
(1.271 13.6519 -21.6936 10.5287 10.8577 -14.4056)
(26.8412 40.0427 11.5661 12.3692 36.4072 13.2328)
(22.9091 14.7936 19.0407 1.33255 1.48858 -69.9033)
(20.3946 -9.26034 3.92811 15.4927 9.28675 23.7417)
(-7.25361 -14.8484 -0.952919 -14.3165 -11.812 17.3518)
(-17.486 -6.15701 0.650161 5.89721 -3.12735 9.23561)
(-9.54869 5.26735 3.63278 6.54023 -3.50481 -0.249087)
(-5.54504 6.07779 -0.353639 3.17596 -1.84062 1.55875)
(-2.32577 3.88366 -0.311983 1.90908 -3.20599 2.43968)
(-48.9656 17.6019 -72.3803 33.7684 11.5413 -49.1124)
(-9.89747 27.9393 10.5686 20.3885 5.12121 23.1364)
(15.2134 21.345 -455.189 23.5439 -42.9317 -265.426)
(26.9593 14.4057 44.7811 -0.344035 9.08592 62.873)
(21.6823 113.232 427.878 59.15 127.656 -389.395)
(86.0782 18.9017 -21.1341 5.78565 8.97039 14.2671)
(11.5286 -21.3789 -41.7989 -33.8287 -47.1459 33.0642)
(-35.5204 -14.3032 -21.9923 6.58582 -15.3511 23.4949)
(-13.3049 7.2025 0.392666 8.10818 -1.8964 0.891254)
(-5.66898 9.71718 -0.841121 9.79286 -2.74982 -2.22766)
(-23.0261 4.65697 18.6653 11.2761 -2.81521 43.8084)
(-131.846 -28.2796 -413.957 14.5895 28.3153 30.2805)
(-88.4232 5.37912 110.367 -40.4538 -20.5204 308.086)
(-675.726 -336.497 -1266.22 -156.525 136.507 543.523)
(-190.623 -33.257 -88.9435 -32.0738 -68.1288 340.053)
(-172.45 374.106 1225.04 162.59 468.466 -192.061)
(158.533 104.992 14.7723 14.8844 57.5457 -156.055)
(65.6289 2.70948 -45.4646 -26.5157 -49.1601 -20.715)
(-3.20674 -11.7255 -40.4258 -0.403537 -24.9226 -4.57581)
(-4.58835 1.77966 -1.52351 2.41564 -2.20452 -0.777135)
)
;
    }
}


// ************************************************************************* //
