/*--------------------------------*- C++ -*----------------------------------*\
| =========                 |                                                 |
| \\      /  F ield         | OpenFOAM: The Open Source CFD Toolbox           |
|  \\    /   O peration     | Version:  2.4.0                                 |
|   \\  /    A nd           | Web:      www.OpenFOAM.org                      |
|    \\/     M anipulation  |                                                 |
\*---------------------------------------------------------------------------*/
FoamFile
{
    version     2.0;
    format      ascii;
    class       surfaceScalarField;
    location    "0.03";
    object      phib;
}
// * * * * * * * * * * * * * * * * * * * * * * * * * * * * * * * * * * * * * //

dimensions      [0 3 -1 0 0 0 0];

internalField   nonuniform List<scalar> 
490
(
5.83564e-05
-5.05762e-06
4.76013e-06
5.16136e-05
1.52696e-06
5.21588e-06
5.35433e-05
-6.91625e-06
4.98651e-06
5.354e-05
-3.21484e-06
3.21815e-06
6.37176e-05
-1.33683e-05
3.19071e-06
5.9201e-05
1.55889e-07
4.36079e-06
6.60792e-05
-1.08334e-05
3.95512e-06
7.69107e-05
-1.30777e-05
2.24622e-06
9.44355e-05
-1.46724e-05
-2.85238e-06
-8.82064e-06
5.8483e-06
4.56974e-05
-8.93107e-07
4.01264e-06
5.07224e-05
-8.76679e-06
5.26875e-06
4.34848e-05
-3.68088e-06
4.00226e-06
4.5422e-05
-1.03852e-05
5.23313e-06
4.33169e-05
-1.04611e-05
-8.02199e-07
5.59897e-05
-1.59461e-05
3.42923e-06
5.77085e-05
-1.34507e-05
8.98508e-07
6.41504e-05
-1.86037e-05
-9.15926e-07
7.92102e-05
-2.47569e-05
-4.9753e-06
-2.5497e-05
-2.02762e-05
4.54934e-05
-1.32779e-05
4.83494e-06
3.79344e-05
-4.41698e-06
3.20919e-06
4.29782e-05
-1.28647e-05
4.1401e-06
4.12959e-05
-9.44059e-06
7.37655e-07
3.83709e-05
-9.53222e-06
1.99616e-06
6.10359e-05
-9.12106e-06
-2.949e-05
6.21189e-05
-1.33597e-05
-1.17403e-06
6.43563e-05
-1.58182e-05
-5.02283e-06
6.5875e-05
-2.04139e-05
-5.86171e-06
-3.36192e-05
-1.086e-05
2.84729e-05
2.58338e-06
3.71849e-05
4.28366e-06
3.50169e-05
3.29079e-06
4.34661e-05
2.03324e-06
5.28042e-05
4.08169e-07
5.39304e-05
5.4869e-06
6.69112e-05
-2.68005e-06
7.0981e-05
-6.60773e-07
7.47005e-05
-2.76326e-06
-1.17495e-06
4.72179e-05
1.42752e-06
8.6825e-06
4.52319e-05
-4.03987e-06
1.12417e-05
4.21095e-05
-2.74703e-06
1.08559e-05
4.74542e-05
-9.857e-06
7.73046e-06
5.6556e-05
-9.86186e-06
3.95078e-06
6.28691e-05
-1.09111e-05
8.95884e-06
7.22207e-05
-1.15576e-05
6.16113e-06
8.28111e-05
-1.54108e-05
7.06667e-06
9.12268e-05
-1.30811e-05
1.81297e-06
-2.22188e-05
1.188e-05
4.30166e-05
-4.02598e-06
9.52965e-06
3.39264e-05
2.80333e-07
1.00387e-05
3.17494e-05
-8.42162e-06
1.18538e-05
3.13329e-05
-1.12494e-05
7.04207e-06
3.41408e-05
-1.97429e-05
6.27085e-06
6.75235e-05
-1.25409e-05
-2.83237e-05
7.02252e-05
-1.42725e-05
9.11746e-07
8.11824e-05
-1.846e-05
-8.82397e-06
8.98303e-05
-2.22873e-05
-4.41692e-06
-3.44106e-05
-1.49813e-05
3.13899e-05
1.75362e-06
8.29539e-06
2.81115e-05
-5.79012e-06
1.2558e-05
1.62331e-05
-2.60225e-06
1.01991e-05
6.35894e-06
-1.03246e-05
9.68707e-06
2.36379e-05
-1.31396e-05
-2.18861e-05
4.8014e-06
-1.50799e-06
-2.16864e-05
7.76623e-05
-1.71098e-06
-8.65964e-05
8.27904e-05
-1.34702e-05
-1.51408e-05
9.35034e-05
-2.20889e-05
-1.67731e-05
-2.73135e-05
-1.94427e-05
3.46591e-05
9.96451e-06
2.7021e-05
9.96609e-06
2.54147e-05
1.12713e-05
2.16899e-05
2.30999e-06
1.73393e-05
9.21875e-06
5.28505e-05
-3.08004e-05
7.43319e-05
-1.45612e-05
8.42306e-05
-5.83356e-06
8.36746e-05
-3.9355e-06
-1.02485e-05
5.37946e-05
8.61613e-09
7.82572e-06
5.06011e-05
-2.31863e-06
1.67538e-05
6.02692e-05
-1.03941e-05
1.15819e-05
3.20855e-05
-1.03156e-05
4.62297e-05
3.41737e-05
4.74034e-07
1.38856e-06
5.4981e-05
-4.43104e-06
-7.41739e-06
6.10471e-05
-4.54006e-06
4.63507e-06
7.61456e-05
-1.14766e-05
3.4448e-06
8.59394e-05
-1.83961e-05
1.04153e-05
-4.64159e-06
4.0351e-06
4.11974e-05
3.79431e-06
1.37032e-05
4.38904e-05
-5.2668e-06
1.02939e-05
3.88003e-05
-1.61071e-05
2.26569e-05
4.30677e-05
-2.14423e-05
1.39014e-05
-2.24844e-06
-1.31747e-05
6.52357e-05
-4.35586e-06
-7.92649e-06
-2.27208e-05
4.98287e-05
-2.17106e-05
-3.61023e-05
6.88608e-05
-2.23638e-05
-1.69689e-05
8.70006e-05
-2.94449e-05
-1.15079e-05
-3.14666e-05
8.48709e-06
4.76883e-05
-1.41732e-07
9.57269e-06
3.29179e-05
-1.78458e-06
2.38461e-05
3.26446e-05
-1.86422e-05
1.30076e-05
2.70392e-05
-2.74746e-05
2.13247e-05
3.5009e-05
-2.84869e-05
-1.45436e-05
1.04598e-05
-4.81602e-05
4.30965e-05
-7.21425e-08
-2.78878e-05
-6.98873e-05
8.29377e-05
-3.29651e-06
-0.000117218
9.4815e-05
-2.01776e-05
-3.79177e-05
-3.55448e-05
-2.39652e-05
4.45176e-05
1.61888e-05
4.80778e-05
1.12044e-05
3.2814e-05
2.88238e-05
3.64367e-05
5.47006e-06
-5.80015e-06
6.76138e-05
-1.51978e-05
-2.23372e-05
4.48055e-05
-9.88676e-05
8.22198e-05
-3.54667e-05
8.84133e-05
-9.10023e-06
-8.46232e-06
8.0467e-05
-1.11182e-06
9.38443e-06
9.73807e-05
-2.40079e-07
8.01907e-08
8.79707e-05
-3.87515e-06
2.48671e-05
8.66044e-05
2.54127e-05
2.21833e-05
1.09676e-05
2.26055e-05
5.44199e-05
1.62429e-05
1.46812e-05
-2.73738e-05
4.05643e-05
4.65718e-06
-2.43435e-05
5.54706e-05
-4.33294e-06
-7.12861e-06
7.45206e-05
-8.17274e-06
-4.61992e-07
-1.10191e-05
7.48517e-07
8.54233e-05
-9.0645e-07
-1.00701e-06
7.73115e-05
-3.62284e-06
2.17885e-05
9.71534e-05
-3.39101e-06
2.33087e-06
8.82701e-05
-3.12872e-08
4.82287e-05
0.000119456
2.74512e-05
2.92036e-05
6.75909e-06
1.19725e-05
9.26853e-05
1.56583e-05
2.9544e-06
-4.32987e-05
5.22952e-05
-2.10344e-05
-3.69044e-05
7.14517e-05
-2.2685e-05
-1.61521e-05
-1.77813e-05
-3.25974e-06
7.7292e-05
-5.18492e-06
1.47029e-05
0.00010203
-8.02506e-06
3.51009e-06
8.79922e-05
-1.08349e-05
3.44894e-05
0.000116485
-7.66957e-06
4.7016e-07
7.41882e-05
-7.47182e-06
6.26763e-05
0.000120025
-5.43476e-06
1.46666e-05
5.8222e-05
-7.77109e-05
7.25812e-05
3.86416e-05
-3.19571e-05
-8.67148e-05
0.000109967
3.97483e-06
-0.000135903
-8.97781e-06
-3.44515e-05
9.66114e-05
1.09775e-06
8.83564e-05
2.99236e-05
0.000120496
6.66447e-06
8.05701e-05
6.5705e-05
0.000124287
3.33988e-05
5.11605e-05
0.000112535
2.3285e-05
-8.34704e-05
6.54037e-05
-0.000114032
0.000100322
-3.73456e-05
-4.09359e-06
5.96867e-05
-3.65324e-07
6.38773e-05
-4.11032e-06
8.2442e-05
6.30249e-06
0.000106424
-1.79851e-06
0.000145647
1.51969e-05
0.000108847
9.42595e-06
0.000101898
-1.73943e-05
0.000101794
-7.02436e-06
9.70965e-05
4.23576e-06
-1.04175e-06
5.04167e-05
-4.40116e-06
6.93278e-05
-1.2329e-06
7.68637e-05
1.09754e-06
0.000112455
1.08394e-05
0.000146694
1.01607e-05
0.000225959
2.28465e-05
0.000154512
1.07548e-05
0.000115994
-5.41155e-06
0.000102364
1.71468e-06
2.2808e-06
5.50144e-05
-3.12597e-06
6.30708e-05
-5.77912e-06
0.000102538
-3.8802e-06
0.000114222
-3.74484e-07
0.000173865
1.31939e-05
0.00018784
2.35382e-05
0.000251595
1.9581e-05
0.000217824
-5.8355e-05
0.000123059
-3.94231e-05
-2.98472e-06
5.20128e-05
8.05149e-05
8.82628e-05
0.000144496
0.000166087
0.000261282
0.00024888
0.000148926
8.20556e-05
)
;

boundaryField
{
    inlet
    {
        type            fixedValue;
        value           nonuniform 0();
    }
    outlet
    {
        type            calculated;
        value           nonuniform 0();
    }
    bottom
    {
        type            fixedValue;
        value           uniform 0;
    }
    top
    {
        type            symmetryPlane;
        value           nonuniform List<scalar> 
40
(
-1.49864e-10
-1.54882e-10
-1.27755e-10
-1.41053e-10
-1.14099e-10
-9.19403e-11
-1.11494e-10
-7.69127e-11
-7.28403e-11
-7.03998e-11
-6.85013e-11
-5.58698e-11
-9.88052e-11
-4.24654e-11
-5.18311e-11
-3.23746e-11
-1.33278e-10
-6.10789e-11
-3.77192e-11
-4.41077e-11
-1.09235e-10
-8.90178e-11
-4.44126e-11
-5.70007e-11
-1.28927e-10
-9.00666e-11
-6.62674e-11
-8.18259e-11
-1.37367e-10
-1.18611e-10
-8.91879e-11
-3.06283e-10
-1.31927e-10
-1.27662e-10
-3.1519e-10
-2.33093e-10
-1.20644e-10
-1.20062e-10
-1.97039e-10
-1.39516e-10
)
;
    }
    side1
    {
        type            symmetryPlane;
        value           uniform 0;
    }
    side2
    {
        type            symmetryPlane;
        value           nonuniform 0();
    }
    procBoundary4to3
    {
        type            processor;
        value           nonuniform List<scalar> 
20
(
-5.80589e-05
-5.38746e-05
-3.79436e-05
-3.43904e-05
-5.25678e-05
-4.30801e-05
-4.06299e-05
-3.13767e-05
-5.29464e-05
-4.91567e-05
-4.50295e-05
-4.93461e-05
-8.09139e-05
-7.09184e-05
-7.81437e-05
-7.29201e-05
-4.99367e-05
-4.73877e-05
-4.15865e-05
-4.78634e-05
)
;
    }
    procBoundary4to5
    {
        type            processor;
        value           nonuniform List<scalar> 
20
(
9.74097e-05
0.000116163
8.48572e-05
6.83015e-05
0.000107414
9.67271e-05
9.4989e-05
9.2759e-05
9.84258e-05
9.03573e-05
0.000103416
8.10881e-05
8.88263e-05
8.99607e-05
0.00011165
9.93467e-05
9.88869e-05
9.57814e-05
9.38735e-05
8.40351e-05
)
;
    }
    procBoundary4to12
    {
        type            processor;
        value           nonuniform List<scalar> 
50
(
-9.9437e-06
-1.74126e-05
-1.39875e-05
-1.99231e-05
-1.92785e-05
-1.57341e-05
-2.36605e-05
-1.92273e-05
-2.13701e-05
-2.60453e-05
-8.90987e-06
-3.83445e-06
-8.97642e-06
-6.87656e-06
-1.75996e-05
-7.31896e-07
-1.13111e-05
-1.81961e-05
-2.03607e-05
-2.73242e-05
-1.53757e-06
-6.58306e-06
-2.09309e-05
-3.42575e-05
-4.4645e-05
-4.72258e-05
-3.5847e-06
-1.10777e-05
-2.12063e-05
-3.00058e-05
-1.37851e-05
-1.84893e-05
-2.0815e-05
-2.79788e-05
-1.69741e-05
-6.71801e-05
-6.52326e-05
4.48975e-06
-2.6979e-06
-1.23714e-05
-6.17745e-06
-4.35754e-06
-4.96359e-06
9.09725e-06
2.5002e-05
4.08778e-05
-5.14864e-05
-7.24336e-05
-9.89805e-06
-9.05768e-06
)
;
    }
}


// ************************************************************************* //
