/*--------------------------------*- C++ -*----------------------------------*\
| =========                 |                                                 |
| \\      /  F ield         | OpenFOAM: The Open Source CFD Toolbox           |
|  \\    /   O peration     | Version:  2.4.0                                 |
|   \\  /    A nd           | Web:      www.OpenFOAM.org                      |
|    \\/     M anipulation  |                                                 |
\*---------------------------------------------------------------------------*/
FoamFile
{
    version     2.0;
    format      ascii;
    class       volVectorField;
    location    "0.03";
    object      Ua;
}
// * * * * * * * * * * * * * * * * * * * * * * * * * * * * * * * * * * * * * //

dimensions      [0 1 -1 0 0 0 0];

internalField   nonuniform List<vector> 
200
(
(-6.53097 -10.2938 2.89379)
(-6.53097 -10.301 2.89379)
(-6.53097 -10.3083 2.89379)
(-6.53097 -10.301 2.89379)
(-6.53096 -10.2938 2.89379)
(-6.4123 -10.1893 2.87547)
(1.55352 -3.66966 1.64397)
(1.62212 -3.6212 1.63336)
(1.62213 -3.62884 1.63336)
(1.62213 -3.63651 1.63336)
(-6.53097 -10.381 2.89379)
(-6.53097 -10.381 2.89379)
(-6.53097 -10.381 2.89379)
(-6.53097 -10.381 2.89379)
(-6.53097 -10.381 2.89379)
(-6.53098 -10.381 2.8938)
(-6.44189 -10.3075 2.88004)
(1.53435 -3.7358 1.64698)
(1.62214 -3.66732 1.63339)
(1.62214 -3.67118 1.63338)
(-6.53097 -10.381 2.89379)
(-6.53097 -10.381 2.89379)
(-6.53097 -10.381 2.89379)
(-6.53097 -10.381 2.89379)
(-6.53097 -10.381 2.89379)
(-6.53097 -10.381 2.89379)
(-6.53097 -10.381 2.8938)
(-6.46166 -10.324 2.88308)
(1.50561 -3.7762 1.65049)
(1.6233 -3.68206 1.63157)
(-6.53097 -10.381 2.89379)
(-6.53097 -10.381 2.89379)
(-6.53097 -10.381 2.89379)
(-6.53096 -10.381 2.89378)
(-6.53095 -10.381 2.89378)
(-6.53095 -10.381 2.89379)
(-6.53091 -10.3809 2.89378)
(-6.16563 -10.0872 2.76436)
(2.97901 -2.74066 -0.530065)
(3.03101 -2.70222 -0.587272)
(-6.53097 -10.3011 2.89379)
(-6.53097 -10.3083 2.89379)
(-6.53097 -10.3155 2.89379)
(-6.53097 -10.3083 2.89379)
(-6.53096 -10.301 2.89379)
(-6.4214 -10.204 2.87686)
(1.55866 -3.67309 1.64317)
(1.62212 -3.62886 1.63336)
(1.62213 -3.63652 1.63336)
(1.62213 -3.6442 1.63336)
(-6.53097 -10.381 2.89379)
(-6.53097 -10.381 2.89379)
(-6.53097 -10.381 2.89379)
(-6.53097 -10.381 2.89379)
(-6.53097 -10.381 2.89379)
(-6.53096 -10.381 2.89379)
(-6.44872 -10.3132 2.88108)
(1.54094 -3.7342 1.64594)
(1.62213 -3.6712 1.63338)
(1.62213 -3.67507 1.63337)
(-6.53097 -10.381 2.89379)
(-6.53097 -10.381 2.89379)
(-6.53097 -10.381 2.89379)
(-6.53097 -10.381 2.89379)
(-6.53097 -10.381 2.89379)
(-6.53097 -10.381 2.89379)
(-6.53096 -10.381 2.89379)
(-6.46684 -10.3283 2.88388)
(1.51394 -3.77179 1.65014)
(1.62213 -3.68544 1.63339)
(-6.53097 -10.381 2.89379)
(-6.53097 -10.381 2.89379)
(-6.53097 -10.381 2.89379)
(-6.53096 -10.381 2.89379)
(-6.53096 -10.381 2.89378)
(-6.53095 -10.381 2.89378)
(-6.53094 -10.381 2.89378)
(-6.5078 -10.362 2.8902)
(1.28022 -3.96859 1.68459)
(1.62294 -3.68823 1.6299)
(-6.53097 -10.3083 2.89379)
(-6.53097 -10.3156 2.89379)
(-6.53097 -10.3228 2.89379)
(-6.53097 -10.3155 2.89379)
(-6.53096 -10.3083 2.89379)
(-6.43047 -10.2187 2.87825)
(1.56386 -3.67649 1.64237)
(1.62212 -3.63652 1.63336)
(1.62213 -3.6442 1.63336)
(1.62213 -3.65189 1.63336)
(-6.53097 -10.381 2.89379)
(-6.53097 -10.381 2.89379)
(-6.53097 -10.381 2.89379)
(-6.53097 -10.381 2.89379)
(-6.53097 -10.381 2.89379)
(-6.53096 -10.381 2.89379)
(-6.45553 -10.3189 2.88213)
(1.5476 -3.73254 1.6449)
(1.62213 -3.67508 1.63337)
(1.62213 -3.67895 1.63336)
(-6.53097 -10.381 2.89379)
(-6.53097 -10.381 2.89379)
(-6.53097 -10.381 2.89379)
(-6.53097 -10.381 2.89379)
(-6.53097 -10.381 2.89379)
(-6.53097 -10.381 2.89379)
(-6.53096 -10.381 2.89379)
(-6.47208 -10.3327 2.88468)
(1.52288 -3.76695 1.64873)
(1.62212 -3.68802 1.63337)
(-6.53097 -10.381 2.89379)
(-6.53097 -10.381 2.89379)
(-6.53097 -10.381 2.89379)
(-6.53097 -10.381 2.89379)
(-6.53097 -10.381 2.89379)
(-6.53097 -10.381 2.89379)
(-6.53096 -10.381 2.89379)
(-6.50952 -10.3634 2.89047)
(1.30578 -3.94948 1.68138)
(1.62214 -3.69099 1.63147)
(-6.53095 -10.301 2.89378)
(-6.53097 -10.3083 2.89379)
(-6.53097 -10.3155 2.89379)
(-6.53097 -10.3083 2.89379)
(-6.53096 -10.301 2.89379)
(-6.42139 -10.204 2.87686)
(1.55867 -3.67311 1.6432)
(1.62213 -3.62886 1.63338)
(1.62213 -3.63652 1.63337)
(1.62213 -3.6442 1.63336)
(-6.53096 -10.381 2.89378)
(-6.53097 -10.381 2.89379)
(-6.53097 -10.381 2.89379)
(-6.53097 -10.381 2.89379)
(-6.53097 -10.381 2.89379)
(-6.53096 -10.381 2.89379)
(-6.44886 -10.3134 2.8811)
(1.54088 -3.73431 1.64597)
(1.62213 -3.67122 1.63339)
(1.62213 -3.67507 1.63337)
(-6.53097 -10.381 2.89379)
(-6.53097 -10.381 2.89379)
(-6.53097 -10.381 2.89379)
(-6.53097 -10.381 2.89379)
(-6.53097 -10.381 2.89379)
(-6.53097 -10.381 2.89379)
(-6.53096 -10.381 2.89379)
(-6.46692 -10.3284 2.88389)
(1.51396 -3.77174 1.65013)
(1.62212 -3.68543 1.63338)
(-6.53097 -10.381 2.89379)
(-6.53097 -10.381 2.89379)
(-6.53097 -10.381 2.89379)
(-6.53097 -10.381 2.89379)
(-6.53097 -10.381 2.89379)
(-6.53097 -10.381 2.89379)
(-6.53096 -10.381 2.89379)
(-6.50784 -10.362 2.89021)
(1.28023 -3.96849 1.68523)
(1.62214 -3.68878 1.63115)
(-5.31328 -9.24615 2.37252)
(-6.5307 -10.3008 2.88494)
(-6.53097 -10.3083 2.88585)
(-6.53097 -10.301 2.88506)
(-6.53096 -10.2938 2.88427)
(-6.41268 -10.1896 2.86526)
(1.55335 -3.66991 1.63819)
(1.62215 -3.62125 1.62802)
(1.62214 -3.62885 1.62845)
(1.62213 -3.6365 1.62888)
(-5.9097 -9.84452 2.62391)
(-6.53086 -10.3809 2.88581)
(-6.53097 -10.381 2.88664)
(-6.53097 -10.381 2.88585)
(-6.53097 -10.381 2.88506)
(-6.53096 -10.381 2.88426)
(-6.44248 -10.3081 2.86984)
(1.53399 -3.73621 1.64118)
(1.62214 -3.66735 1.62803)
(1.62214 -3.67119 1.62844)
(-6.53087 -10.381 2.88581)
(-6.53097 -10.381 2.88664)
(-6.53097 -10.381 2.88743)
(-6.53097 -10.381 2.88664)
(-6.53097 -10.381 2.88585)
(-6.53097 -10.381 2.88506)
(-6.53096 -10.381 2.88426)
(-6.46191 -10.3243 2.87283)
(1.50496 -3.77658 1.64565)
(1.62212 -3.68283 1.62801)
(-6.53091 -10.381 2.88504)
(-6.53097 -10.381 2.88585)
(-6.53097 -10.381 2.88664)
(-6.53097 -10.381 2.88585)
(-6.53097 -10.381 2.88506)
(-6.53097 -10.381 2.88426)
(-6.53096 -10.381 2.88347)
(-6.5062 -10.3607 2.87886)
(1.25456 -3.9876 1.68257)
(1.62215 -3.68657 1.62502)
)
;

boundaryField
{
    inlet
    {
        type            calculated;
        value           nonuniform 0();
    }
    outlet
    {
        type            calculated;
        value           nonuniform 0();
    }
    bottom
    {
        type            calculated;
        value           uniform (0 0 0);
    }
    top
    {
        type            symmetryPlane;
    }
    side1
    {
        type            symmetryPlane;
    }
    side2
    {
        type            symmetryPlane;
    }
    procBoundary4to3
    {
        type            processor;
        value           nonuniform List<vector> 
20
(
(-6.53097 -10.2865 2.89379)
(-6.53097 -10.381 2.89379)
(-6.53097 -10.381 2.89379)
(-6.53101 -10.3809 2.89379)
(-6.53097 -10.2938 2.89379)
(-6.53097 -10.381 2.89379)
(-6.53097 -10.381 2.89379)
(-6.53101 -10.381 2.89382)
(-6.53097 -10.301 2.89379)
(-6.53097 -10.381 2.89379)
(-6.53097 -10.381 2.89379)
(-6.53099 -10.381 2.8938)
(-6.40438 -10.1848 2.84044)
(-6.47249 -10.3304 2.86915)
(-6.53098 -10.381 2.8938)
(-6.53101 -10.381 2.89383)
(-0.18547 -4.83963 0.217673)
(-0.188659 -4.90402 0.219193)
(-5.84047 -9.78465 2.59482)
(-6.13445 -10.0385 2.71766)
)
;
    }
    procBoundary4to5
    {
        type            processor;
        value           nonuniform List<vector> 
20
(
(1.62213 -3.64419 1.63336)
(1.62213 -3.67507 1.63336)
(1.62459 -3.6837 1.62948)
(3.05076 -2.68845 -0.618523)
(1.62213 -3.6519 1.63336)
(1.62213 -3.67896 1.63336)
(1.62213 -3.68802 1.63336)
(1.62393 -3.6866 1.62498)
(1.62213 -3.65961 1.63336)
(1.62213 -3.68284 1.63336)
(1.62213 -3.69062 1.63336)
(1.6222 -3.69051 1.6286)
(1.62213 -3.6519 1.63336)
(1.62213 -3.67896 1.63336)
(1.62213 -3.68802 1.63336)
(1.62225 -3.68778 1.62763)
(1.62213 -3.64419 1.62932)
(1.62213 -3.67507 1.62888)
(1.62213 -3.68542 1.62843)
(1.62229 -3.685 1.62125)
)
;
    }
    procBoundary4to12
    {
        type            processor;
        value           nonuniform List<vector> 
50
(
(-6.52904 -10.3778 2.89047)
(-6.53026 -10.3798 2.89355)
(-6.52974 -10.379 2.89335)
(-5.9535 -9.43044 2.68115)
(-5.48349 -8.65278 2.51339)
(-5.09251 -8.00315 2.37752)
(-4.45161 -7.26549 2.14992)
(3.04751 -2.68856 -0.633701)
(3.06441 -2.67891 -0.640001)
(3.06441 -2.67891 -0.640003)
(-6.53075 -10.3806 2.89372)
(-6.53067 -10.3805 2.89369)
(-6.53046 -10.3802 2.8936)
(-6.22574 -9.88001 2.77952)
(-5.95426 -9.43172 2.68142)
(-5.71044 -9.02726 2.5958)
(-5.49115 -8.66215 2.52054)
(-5.18088 -8.24614 2.40828)
(2.5295 -2.26107 -0.835469)
(2.55461 -2.13964 -0.948855)
(-6.53098 -10.381 2.8938)
(-6.53097 -10.381 2.89379)
(-6.53097 -10.381 2.89379)
(-6.53097 -10.381 2.89379)
(-6.53096 -10.381 2.89379)
(-6.53095 -10.381 2.89378)
(-6.53093 -10.3809 2.89378)
(-6.47616 -10.3242 2.86891)
(1.72823 -1.62316 -1.14003)
(1.82949 -1.37438 -1.38613)
(-6.53102 -10.381 2.89383)
(-6.53099 -10.381 2.8938)
(-6.53097 -10.381 2.89379)
(-6.53097 -10.381 2.89379)
(-6.53096 -10.381 2.89379)
(-6.53096 -10.381 2.89379)
(-6.53095 -10.381 2.89378)
(-6.47028 -10.3139 2.86746)
(1.68028 -1.5856 -1.09176)
(1.82951 -1.37377 -1.38676)
(-6.53101 -10.3809 2.88432)
(-6.53101 -10.381 2.88509)
(-6.53097 -10.381 2.88585)
(-6.53097 -10.381 2.88506)
(-6.53097 -10.381 2.88427)
(-6.53096 -10.381 2.88347)
(-6.53095 -10.381 2.88268)
(-6.46498 -10.3042 2.85452)
(1.63767 -1.55645 -1.0437)
(1.82951 -1.37359 -1.38152)
)
;
    }
}


// ************************************************************************* //
