/*--------------------------------*- C++ -*----------------------------------*\
| =========                 |                                                 |
| \\      /  F ield         | OpenFOAM: The Open Source CFD Toolbox           |
|  \\    /   O peration     | Version:  2.4.0                                 |
|   \\  /    A nd           | Web:      www.OpenFOAM.org                      |
|    \\/     M anipulation  |                                                 |
\*---------------------------------------------------------------------------*/
FoamFile
{
    version     2.0;
    format      ascii;
    class       volVectorField;
    location    "0.03";
    object      Uc;
}
// * * * * * * * * * * * * * * * * * * * * * * * * * * * * * * * * * * * * * //

dimensions      [0 1 -1 0 0 0 0];

internalField   nonuniform List<vector> 
200
(
(-1.41118e-15 -2.22424e-15 6.25277e-16)
(-6.08121e-14 -9.59166e-14 2.69451e-14)
(-1.44209e-12 -2.27615e-12 6.38971e-13)
(-6.08123e-14 -9.59167e-14 2.69451e-14)
(-1.41119e-15 -2.22424e-15 6.2528e-16)
(-2.37273e-17 -3.77032e-17 1.064e-17)
(9.22434e-18 -2.17893e-17 9.76137e-18)
(9.42278e-16 -2.10353e-15 9.48809e-16)
(8.11363e-14 -1.81509e-13 8.16981e-14)
(5.76392e-12 -1.29216e-11 5.80384e-12)
(-2.42222e-13 -3.85015e-13 1.07326e-13)
(-1.14853e-11 -1.82559e-11 5.08897e-12)
(-3.02678e-10 -4.8111e-10 1.34113e-10)
(-1.14853e-11 -1.8256e-11 5.08898e-12)
(-2.42223e-13 -3.85015e-13 1.07326e-13)
(-3.74662e-15 -5.95526e-15 1.66008e-15)
(-4.72766e-17 -7.56462e-17 2.11364e-17)
(1.13377e-17 -2.76047e-17 1.21699e-17)
(9.36417e-16 -2.11705e-15 9.42916e-16)
(6.05097e-14 -1.36944e-13 6.0929e-14)
(-2.29644e-11 -3.65022e-11 1.01752e-11)
(-1.2098e-09 -1.923e-09 5.36049e-10)
(-3.58626e-08 -5.7004e-08 1.58903e-08)
(-1.20981e-09 -1.923e-09 5.36049e-10)
(-2.29645e-11 -3.65023e-11 1.01753e-11)
(-3.22924e-13 -5.13291e-13 1.43084e-13)
(-3.7464e-15 -5.95492e-15 1.65998e-15)
(-3.78518e-17 -6.04771e-17 1.68889e-17)
(5.55942e-18 -1.39435e-17 6.09438e-18)
(3.50734e-16 -7.95553e-16 3.5252e-16)
(-2.42222e-13 -3.85014e-13 1.07325e-13)
(-1.14853e-11 -1.8256e-11 5.08898e-12)
(-3.02678e-10 -4.8111e-10 1.34113e-10)
(-1.14853e-11 -1.8256e-11 5.08898e-12)
(-2.42223e-13 -3.85015e-13 1.07326e-13)
(-3.74659e-15 -5.95522e-15 1.66007e-15)
(-4.74161e-17 -7.5368e-17 2.10095e-17)
(-5.10664e-19 -8.35466e-19 2.28956e-19)
(1.09173e-18 -1.00438e-18 -1.94255e-19)
(1.18508e-16 -1.05652e-16 -2.29613e-17)
(-6.21535e-13 -9.80325e-13 2.75394e-13)
(-2.94647e-11 -4.65062e-11 1.30554e-11)
(-7.76338e-10 -1.22621e-09 3.43985e-10)
(-2.94647e-11 -4.65063e-11 1.30554e-11)
(-6.21537e-13 -9.80326e-13 2.75395e-13)
(-9.58318e-15 -1.52283e-14 4.29338e-15)
(3.7312e-15 -8.79282e-15 3.9335e-15)
(4.14743e-13 -9.27825e-13 4.17617e-13)
(3.92881e-11 -8.8077e-11 3.95602e-11)
(3.10151e-09 -6.96771e-09 3.12299e-09)
(-1.1741e-10 -1.86624e-10 5.20228e-11)
(-6.18626e-09 -9.83312e-09 2.74105e-09)
(-1.83408e-07 -2.91529e-07 8.12658e-08)
(-6.18626e-09 -9.83312e-09 2.74105e-09)
(-1.1741e-10 -1.86624e-10 5.20229e-11)
(-1.65076e-12 -2.6239e-12 7.31433e-13)
(-1.91e-14 -3.0546e-14 8.53325e-15)
(4.59213e-15 -1.11282e-14 4.90505e-15)
(4.12377e-13 -9.3329e-13 4.15237e-13)
(2.93151e-11 -6.64158e-11 2.95182e-11)
(-1.23698e-08 -1.9662e-08 5.48091e-09)
(-7.33193e-07 -1.16542e-06 3.24868e-07)
(-2.48395e-05 -3.94827e-05 1.10061e-05)
(-7.33192e-07 -1.16542e-06 3.24868e-07)
(-1.23698e-08 -1.9662e-08 5.48092e-09)
(-1.56531e-10 -2.48807e-10 6.93568e-11)
(-1.65069e-12 -2.62379e-12 7.314e-13)
(-1.52885e-14 -2.44176e-14 6.81788e-15)
(2.25704e-15 -5.62312e-15 2.46009e-15)
(1.54373e-13 -3.50732e-13 1.55444e-13)
(-1.1741e-10 -1.86624e-10 5.20228e-11)
(-6.18626e-09 -9.83312e-09 2.74105e-09)
(-1.83408e-07 -2.91529e-07 8.12658e-08)
(-6.18626e-09 -9.83312e-09 2.74105e-09)
(-1.1741e-10 -1.86624e-10 5.20229e-11)
(-1.65076e-12 -2.6239e-12 7.31432e-13)
(-1.91484e-14 -3.04366e-14 8.48444e-15)
(-1.93714e-16 -3.08439e-16 8.60309e-17)
(8.26926e-18 -2.56341e-17 1.08812e-17)
(5.97254e-16 -1.35729e-15 5.99816e-16)
(-1.50811e-10 -2.38037e-10 6.68225e-11)
(-7.94339e-09 -1.25465e-08 3.51962e-09)
(-2.35421e-07 -3.72105e-07 1.04312e-07)
(-7.9434e-09 -1.25465e-08 3.51962e-09)
(-1.50812e-10 -2.38037e-10 6.68227e-11)
(-2.11455e-12 -3.36024e-12 9.46463e-13)
(8.24727e-13 -1.93885e-12 8.66127e-13)
(1.00569e-10 -2.25458e-10 1.01265e-10)
(1.05852e-08 -2.37802e-08 1.06585e-08)
(9.40056e-07 -2.11635e-06 9.46566e-07)
(-3.16654e-08 -5.03325e-08 1.40305e-08)
(-1.87691e-06 -2.98337e-06 8.31634e-07)
(-6.35875e-05 -0.000101073 2.81748e-05)
(-1.87691e-06 -2.98337e-06 8.31634e-07)
(-3.16654e-08 -5.03325e-08 1.40306e-08)
(-4.00698e-10 -6.36913e-10 1.77544e-10)
(-4.21571e-12 -6.73864e-12 1.88214e-12)
(1.01637e-12 -2.45131e-12 1.08027e-12)
(1.00047e-10 -2.26665e-10 1.0074e-10)
(7.9022e-09 -1.7922e-08 7.95693e-09)
(-3.75317e-06 -5.9657e-06 1.66298e-06)
(-0.000254231 -0.000404103 0.000112647)
(-0.0100474 -0.0159705 0.00445189)
(-0.000254231 -0.000404103 0.000112647)
(-3.75317e-06 -5.9657e-06 1.66298e-06)
(-4.22171e-08 -6.71044e-08 1.87058e-08)
(-4.00683e-10 -6.36889e-10 1.77537e-10)
(-3.37427e-12 -5.38702e-12 1.50395e-12)
(5.00692e-13 -1.2385e-12 5.42069e-13)
(3.74572e-11 -8.51621e-11 3.7717e-11)
(-3.16654e-08 -5.03325e-08 1.40305e-08)
(-1.87691e-06 -2.98337e-06 8.31634e-07)
(-6.35875e-05 -0.000101073 2.81748e-05)
(-1.87691e-06 -2.98337e-06 8.31634e-07)
(-3.16654e-08 -5.03325e-08 1.40305e-08)
(-4.00697e-10 -6.36913e-10 1.77544e-10)
(-4.2255e-12 -6.71647e-12 1.87226e-12)
(-3.91871e-14 -6.23875e-14 1.74005e-14)
(1.70443e-15 -5.15522e-15 2.1947e-15)
(1.31686e-13 -2.99636e-13 1.32444e-13)
(-6.21535e-13 -9.80325e-13 2.75394e-13)
(-2.94647e-11 -4.65063e-11 1.30554e-11)
(-7.76338e-10 -1.22621e-09 3.43985e-10)
(-2.94647e-11 -4.65063e-11 1.30554e-11)
(-6.21537e-13 -9.80326e-13 2.75395e-13)
(-9.58312e-15 -1.52282e-14 4.29334e-15)
(3.73114e-15 -8.79271e-15 3.93349e-15)
(4.1474e-13 -9.27812e-13 4.17615e-13)
(3.9288e-11 -8.80762e-11 3.95601e-11)
(3.10151e-09 -6.96771e-09 3.12299e-09)
(-1.1741e-10 -1.86624e-10 5.20228e-11)
(-6.18626e-09 -9.83312e-09 2.74105e-09)
(-1.83408e-07 -2.91529e-07 8.12658e-08)
(-6.18626e-09 -9.83312e-09 2.74105e-09)
(-1.1741e-10 -1.86624e-10 5.20229e-11)
(-1.65076e-12 -2.6239e-12 7.31433e-13)
(-1.91001e-14 -3.05459e-14 8.53315e-15)
(4.58825e-15 -1.11195e-14 4.90115e-15)
(4.12385e-13 -9.33311e-13 4.15247e-13)
(2.93152e-11 -6.6416e-11 2.95183e-11)
(-1.23698e-08 -1.9662e-08 5.48091e-09)
(-7.33192e-07 -1.16542e-06 3.24868e-07)
(-2.48395e-05 -3.94827e-05 1.10061e-05)
(-7.33193e-07 -1.16542e-06 3.24868e-07)
(-1.23698e-08 -1.9662e-08 5.48091e-09)
(-1.56531e-10 -2.48807e-10 6.93567e-11)
(-1.65069e-12 -2.62379e-12 7.31399e-13)
(-1.52885e-14 -2.44175e-14 6.81782e-15)
(2.25754e-15 -5.62422e-15 2.4606e-15)
(1.5437e-13 -3.50726e-13 1.55441e-13)
(-1.1741e-10 -1.86624e-10 5.20228e-11)
(-6.18626e-09 -9.83312e-09 2.74105e-09)
(-1.83408e-07 -2.91529e-07 8.12658e-08)
(-6.18626e-09 -9.83312e-09 2.74105e-09)
(-1.1741e-10 -1.86624e-10 5.20228e-11)
(-1.65076e-12 -2.6239e-12 7.3143e-13)
(-1.91484e-14 -3.04366e-14 8.48441e-15)
(-1.93713e-16 -3.08439e-16 8.60305e-17)
(8.28012e-18 -2.5667e-17 1.08995e-17)
(5.96996e-16 -1.35758e-15 6.00312e-16)
(-1.42049e-15 -2.47193e-15 6.34286e-16)
(-6.08123e-14 -9.59186e-14 2.68639e-14)
(-1.44209e-12 -2.27615e-12 6.37218e-13)
(-6.08123e-14 -9.59166e-14 2.68638e-14)
(-1.41119e-15 -2.22424e-15 6.23222e-16)
(-2.37324e-17 -3.77102e-17 1.06039e-17)
(9.20565e-18 -2.1749e-17 9.70841e-18)
(9.41501e-16 -2.10179e-15 9.44912e-16)
(8.1137e-14 -1.81509e-13 8.14527e-14)
(5.7639e-12 -1.29216e-11 5.78789e-12)
(-2.42953e-13 -4.04716e-13 1.07871e-13)
(-1.14853e-11 -1.82561e-11 5.07503e-12)
(-3.02678e-10 -4.8111e-10 1.33782e-10)
(-1.14853e-11 -1.8256e-11 5.07502e-12)
(-2.42223e-13 -3.85015e-13 1.07002e-13)
(-3.7466e-15 -5.95525e-15 1.65461e-15)
(-4.72871e-17 -7.56601e-17 2.10643e-17)
(1.12951e-17 -2.75104e-17 1.20843e-17)
(9.3585e-16 -2.11577e-15 9.39247e-16)
(6.051e-14 -1.36945e-13 6.07453e-14)
(-2.29644e-11 -3.65024e-11 1.01473e-11)
(-1.20981e-09 -1.923e-09 5.34726e-10)
(-3.58626e-08 -5.7004e-08 1.58554e-08)
(-1.2098e-09 -1.923e-09 5.34725e-10)
(-2.29644e-11 -3.65022e-11 1.01473e-11)
(-3.22924e-13 -5.1329e-13 1.42652e-13)
(-3.74639e-15 -5.95493e-15 1.65452e-15)
(-3.78522e-17 -6.04768e-17 1.68283e-17)
(5.55806e-18 -1.39475e-17 6.07764e-18)
(3.5049e-16 -7.95744e-16 3.51762e-16)
(-2.42222e-13 -3.85015e-13 1.07002e-13)
(-1.14853e-11 -1.8256e-11 5.07502e-12)
(-3.02678e-10 -4.8111e-10 1.33782e-10)
(-1.14853e-11 -1.82559e-11 5.07501e-12)
(-2.42222e-13 -3.85015e-13 1.07002e-13)
(-3.74659e-15 -5.95524e-15 1.6546e-15)
(-4.74161e-17 -7.53684e-17 2.09346e-17)
(-5.19696e-19 -8.27582e-19 2.29955e-19)
(2.18096e-20 -6.93214e-20 2.92501e-20)
(1.47893e-18 -3.36107e-18 1.48154e-18)
)
;

boundaryField
{
    inlet
    {
        type            calculated;
        value           nonuniform 0();
    }
    outlet
    {
        type            calculated;
        value           nonuniform 0();
    }
    bottom
    {
        type            calculated;
        value           uniform (0 0 0);
    }
    top
    {
        type            symmetryPlane;
    }
    side1
    {
        type            symmetryPlane;
    }
    side2
    {
        type            symmetryPlane;
    }
    procBoundary4to3
    {
        type            processor;
        value           nonuniform List<vector> 
20
(
(-2.38193e-17 -3.75163e-17 1.0554e-17)
(-3.74656e-15 -5.95517e-15 1.66005e-15)
(-3.22922e-13 -5.13287e-13 1.43083e-13)
(-3.74648e-15 -5.95496e-15 1.66001e-15)
(-9.61558e-15 -1.51556e-14 4.26054e-15)
(-1.65075e-12 -2.62388e-12 7.31428e-13)
(-1.5653e-10 -2.48806e-10 6.93566e-11)
(-1.65073e-12 -2.62382e-12 7.31421e-13)
(-2.12111e-12 -3.34554e-12 9.39836e-13)
(-4.00697e-10 -6.36909e-10 1.77544e-10)
(-4.2217e-08 -6.71042e-08 1.87058e-08)
(-4.00694e-10 -6.36903e-10 1.77543e-10)
(-9.62084e-15 -1.52999e-14 4.267e-15)
(-1.65116e-12 -2.63534e-12 7.31934e-13)
(-1.56529e-10 -2.48804e-10 6.93564e-11)
(-1.65077e-12 -2.62388e-12 7.31441e-13)
(-1.12685e-15 -2.94039e-14 1.32251e-15)
(-9.81991e-14 -2.5526e-12 1.14092e-13)
(-3.24023e-13 -5.42842e-13 1.43958e-13)
(-3.75119e-15 -6.13847e-15 1.66183e-15)
)
;
    }
    procBoundary4to5
    {
        type            processor;
        value           nonuniform List<vector> 
20
(
(3.03337e-10 -6.81463e-10 3.05438e-10)
(2.86769e-12 -6.497e-12 2.88755e-12)
(1.51529e-14 -3.43586e-14 1.51985e-14)
(1.16155e-14 -1.02361e-14 -2.35498e-15)
(1.83643e-07 -4.13436e-07 1.84915e-07)
(1.5438e-09 -3.50132e-09 1.55449e-09)
(7.31826e-12 -1.66386e-11 7.36894e-12)
(2.58208e-14 -5.86175e-14 2.58375e-14)
(6.36108e-05 -0.00014351 6.40513e-05)
(4.68143e-07 -1.06286e-06 4.71385e-07)
(1.97294e-09 -4.48877e-09 1.9866e-09)
(6.24949e-12 -1.42176e-11 6.27414e-12)
(1.83643e-07 -4.13436e-07 1.84915e-07)
(1.5438e-09 -3.50132e-09 1.55449e-09)
(7.31827e-12 -1.66386e-11 7.36895e-12)
(2.57639e-14 -5.8568e-14 2.58495e-14)
(3.03337e-10 -6.81463e-10 3.04683e-10)
(2.86769e-12 -6.49701e-12 2.87963e-12)
(1.51042e-14 -3.43162e-14 1.51629e-14)
(5.85163e-17 -1.32919e-16 5.84786e-17)
)
;
    }
    procBoundary4to12
    {
        type            processor;
        value           nonuniform List<vector> 
50
(
(-1.40525e-15 -2.23363e-15 6.22118e-16)
(-6.05785e-14 -9.62887e-14 2.68422e-14)
(-1.43707e-12 -2.2842e-12 6.36768e-13)
(-6.11237e-14 -9.6821e-14 2.7527e-14)
(-1.4309e-15 -2.25792e-15 6.55862e-16)
(-2.43655e-17 -3.82918e-17 1.13755e-17)
(-3.28064e-19 -5.35434e-19 1.58439e-19)
(1.21901e-18 -1.07543e-18 -2.53482e-19)
(1.56056e-16 -1.36424e-16 -3.25921e-17)
(1.84902e-14 -1.61641e-14 -3.86167e-15)
(-6.19131e-13 -9.84103e-13 2.74332e-13)
(-2.93617e-11 -4.66704e-11 1.30099e-11)
(-7.73899e-10 -1.23011e-09 3.42909e-10)
(-2.94834e-11 -4.6789e-11 1.31631e-11)
(-6.24696e-13 -9.89537e-13 2.81323e-13)
(-9.71202e-15 -1.53531e-14 4.4148e-15)
(-1.2358e-16 -1.94944e-16 5.67254e-17)
(-1.35345e-18 -2.15422e-18 6.29139e-19)
(1.13912e-18 -1.01823e-18 -3.76239e-19)
(1.29488e-16 -1.08454e-16 -4.80955e-17)
(-1.50281e-10 -2.38872e-10 6.65878e-11)
(-7.91839e-09 -1.25863e-08 3.50854e-09)
(-2.34762e-07 -3.73156e-07 1.0402e-07)
(-7.91839e-09 -1.25863e-08 3.50854e-09)
(-1.50284e-10 -2.38877e-10 6.65889e-11)
(-2.11296e-12 -3.35856e-12 9.36227e-13)
(-2.45098e-14 -3.89584e-14 1.086e-14)
(-2.47675e-16 -3.9484e-16 1.09719e-16)
(5.7366e-17 -5.38786e-17 -3.78415e-17)
(7.74992e-15 -5.82202e-15 -5.8718e-15)
(-6.19142e-13 -9.84117e-13 2.74335e-13)
(-2.93615e-11 -4.66701e-11 1.30097e-11)
(-7.73893e-10 -1.23011e-09 3.42902e-10)
(-2.93616e-11 -4.66705e-11 1.30098e-11)
(-6.19146e-13 -9.84135e-13 2.74336e-13)
(-9.57533e-15 -1.522e-14 4.24271e-15)
(-1.21167e-16 -1.92595e-16 5.36874e-17)
(-1.32649e-18 -2.11448e-18 5.87864e-19)
(3.01556e-19 -2.84565e-19 -1.95937e-19)
(3.83033e-17 -2.87618e-17 -2.90338e-17)
(-1.40405e-15 -2.23171e-15 6.20079e-16)
(-6.05776e-14 -9.62875e-14 2.67603e-14)
(-1.43704e-12 -2.28419e-12 6.34989e-13)
(-6.05783e-14 -9.62894e-14 2.67605e-14)
(-1.40527e-15 -2.23368e-15 6.20607e-16)
(-2.37113e-17 -3.76892e-17 1.04687e-17)
(-3.25087e-19 -5.16727e-19 1.43489e-19)
(-3.83343e-21 -6.10994e-21 1.6926e-21)
(8.51096e-22 -8.08888e-22 -5.4241e-22)
(1.02436e-19 -7.69084e-20 -7.73524e-20)
)
;
    }
}


// ************************************************************************* //
