/*--------------------------------*- C++ -*----------------------------------*\
| =========                 |                                                 |
| \\      /  F ield         | OpenFOAM: The Open Source CFD Toolbox           |
|  \\    /   O peration     | Version:  2.4.0                                 |
|   \\  /    A nd           | Web:      www.OpenFOAM.org                      |
|    \\/     M anipulation  |                                                 |
\*---------------------------------------------------------------------------*/
FoamFile
{
    version     2.0;
    format      ascii;
    class       volVectorField;
    location    "0.01";
    object      A_Source;
}
// * * * * * * * * * * * * * * * * * * * * * * * * * * * * * * * * * * * * * //

dimensions      [1 -2 -2 0 0 0 0];

internalField   nonuniform List<vector> 
200
(
(-7.79315e-49 -4.00638e-48 1.51217e-48)
(-7.19609e-51 -3.70178e-50 1.39625e-50)
(-6.43189e-53 -3.31047e-52 1.24798e-52)
(-5.57052e-55 -2.86848e-54 1.0809e-54)
(-4.68199e-57 -2.41193e-56 9.08572e-57)
(-3.82526e-59 -1.97129e-58 7.42404e-59)
(-3.04308e-61 -1.56869e-60 5.90684e-61)
(-2.36106e-63 -1.21745e-62 4.58374e-63)
(-1.78954e-65 -9.22973e-65 3.47482e-65)
(-1.32699e-67 -6.84556e-67 2.57718e-67)
(-1.97e-51 -1.01227e-50 3.82214e-51)
(-1.86346e-53 -9.58161e-53 3.61511e-53)
(-1.70459e-55 -8.76979e-55 3.30678e-55)
(-1.51162e-57 -7.78091e-57 2.93244e-57)
(-1.30191e-59 -6.70445e-59 2.52575e-59)
(-1.09078e-61 -5.61935e-61 2.1163e-61)
(-8.90341e-64 -4.58831e-63 1.72759e-63)
(-7.09034e-66 -3.65505e-65 1.37596e-65)
(-5.51667e-68 -2.84459e-67 1.07073e-67)
(-4.19918e-70 -2.16575e-69 8.15154e-70)
(-4.73915e-54 -2.43401e-53 9.19416e-54)
(-4.6156e-56 -2.37219e-55 8.95337e-56)
(-4.33112e-58 -2.22733e-57 8.40094e-58)
(-3.93378e-60 -2.02407e-59 7.63002e-60)
(-3.4685e-62 -1.78551e-61 6.7276e-62)
(-2.97519e-64 -1.5322e-63 5.771e-64)
(-2.48691e-66 -1.28121e-65 4.82422e-66)
(-2.02868e-68 -1.04548e-67 3.93569e-68)
(-1.61715e-70 -8.33638e-70 3.13767e-70)
(-1.26127e-72 -6.50346e-72 2.44748e-72)
(-1.09121e-56 -5.57709e-56 2.11694e-56)
(-1.09733e-58 -5.61161e-58 2.1285e-58)
(-1.05886e-60 -5.41753e-60 2.05366e-60)
(-9.8634e-63 -5.04868e-62 1.9129e-62)
(-8.90619e-65 -4.56042e-64 1.72722e-64)
(-7.81781e-67 -4.00441e-66 1.51616e-66)
(-6.68551e-69 -3.42537e-68 1.29661e-68)
(-5.57922e-71 -2.85922e-70 1.08212e-70)
(-4.55009e-73 -2.33227e-72 8.82592e-73)
(-3.63087e-75 -1.8614e-74 7.04361e-75)
(-9.23986e-51 -4.74708e-50 1.79397e-50)
(-8.82373e-53 -4.53635e-52 1.71306e-52)
(-8.14802e-55 -4.1914e-54 1.58185e-54)
(-7.28341e-57 -3.74853e-56 1.41404e-56)
(-6.3122e-59 -3.2501e-58 1.22557e-58)
(-5.31283e-61 -2.73658e-60 1.03165e-60)
(-4.35029e-63 -2.24153e-62 8.44851e-63)
(-3.47131e-65 -1.78916e-64 6.74253e-65)
(-2.70377e-67 -1.39392e-66 5.2526e-67)
(-2.05881e-69 -1.06166e-68 4.00042e-69)
(-2.41591e-53 -1.24061e-52 4.68997e-53)
(-2.36057e-55 -1.21305e-54 4.58205e-55)
(-2.22837e-57 -1.14582e-56 4.3252e-57)
(-2.03744e-59 -1.0482e-58 3.95456e-59)
(-1.80767e-61 -9.30428e-61 3.5087e-61)
(-1.55884e-63 -8.02684e-63 3.02591e-63)
(-1.30857e-65 -6.74061e-65 2.54035e-65)
(-1.07091e-67 -5.51815e-67 2.07922e-67)
(-8.55639e-70 -4.41015e-69 1.66149e-69)
(-6.68347e-72 -3.44568e-71 1.298e-71)
(-6.00458e-56 -3.08198e-55 1.16556e-55)
(-6.03434e-58 -3.09953e-57 1.17117e-57)
(-5.83752e-60 -3.00036e-59 1.13287e-59)
(-5.46125e-62 -2.80855e-61 1.0598e-61)
(-4.95589e-64 -2.54993e-63 9.61728e-64)
(-4.37173e-66 -2.25035e-65 8.48391e-66)
(-3.7552e-68 -1.93374e-67 7.28787e-68)
(-3.14562e-70 -1.6204e-69 6.10535e-70)
(-2.57316e-72 -1.32592e-71 4.99478e-72)
(-2.05807e-74 -1.06078e-73 3.99542e-74)
(-1.42699e-58 -7.2877e-58 2.76984e-58)
(-1.47928e-60 -7.5594e-60 2.87084e-60)
(-1.47017e-62 -7.51684e-62 2.85283e-62)
(-1.40936e-64 -7.20925e-64 2.73463e-64)
(-1.30863e-66 -6.69666e-66 2.53908e-66)
(-1.18037e-68 -6.04243e-68 2.29022e-68)
(-1.03651e-70 -5.30755e-70 2.01114e-70)
(-8.87611e-73 -4.54627e-72 1.72233e-72)
(-7.42335e-75 -3.80299e-74 1.44054e-74)
(-6.07089e-77 -3.11067e-76 1.1782e-76)
(-5.68917e-53 -2.921e-52 1.10525e-52)
(-5.61325e-55 -2.88408e-54 1.0904e-54)
(-5.35027e-57 -2.75066e-56 1.03928e-56)
(-4.9319e-59 -2.53694e-58 9.58032e-59)
(-4.4038e-61 -2.26634e-60 8.55496e-61)
(-3.81564e-63 -1.96445e-62 7.41307e-63)
(-3.21366e-65 -1.65511e-64 6.24429e-65)
(-2.63559e-67 -1.35782e-66 5.12182e-67)
(-2.10832e-69 -1.08648e-68 4.09784e-69)
(-1.64764e-71 -8.49289e-71 3.20302e-71)
(-1.53709e-55 -7.88816e-55 2.98565e-55)
(-1.54998e-57 -7.96026e-57 3.01031e-57)
(-1.50869e-59 -7.75327e-59 2.9299e-59)
(-1.42111e-61 -7.30735e-61 2.75976e-61)
(-1.29789e-63 -6.67705e-63 2.5205e-63)
(-1.1512e-65 -5.92497e-65 2.23574e-65)
(-9.9322e-68 -5.11387e-67 1.92909e-67)
(-8.34803e-70 -4.29968e-69 1.62158e-69)
(-6.84548e-72 -3.52685e-71 1.32988e-71)
(-5.48416e-74 -2.82625e-73 1.06557e-73)
(-3.94341e-58 -2.02277e-57 7.6589e-58)
(-4.08579e-60 -2.09742e-59 7.93414e-60)
(-4.07156e-62 -2.09153e-61 7.90566e-62)
(-3.92067e-64 -2.01522e-63 7.61222e-64)
(-3.65924e-66 -1.88184e-65 7.10451e-66)
(-3.31743e-68 -1.70685e-67 6.44098e-68)
(-2.92653e-70 -1.50635e-69 5.6823e-70)
(-2.51596e-72 -1.29549e-71 4.88547e-72)
(-2.11086e-74 -1.08725e-73 4.09923e-74)
(-1.73051e-76 -8.916e-76 3.36099e-76)
(-9.66439e-61 -4.93189e-60 1.8769e-60)
(-1.03197e-62 -5.26973e-62 2.00378e-62)
(-1.05557e-64 -5.3933e-64 2.04933e-64)
(-1.04066e-66 -5.31975e-66 2.0202e-66)
(-9.93012e-69 -5.07835e-68 1.92761e-68)
(-9.19826e-71 -4.70583e-70 1.78552e-70)
(-8.28932e-73 -4.24218e-72 1.6091e-72)
(-7.28034e-75 -3.72685e-74 1.4133e-74)
(-6.24087e-77 -3.19548e-76 1.21159e-76)
(-5.22827e-79 -2.67752e-78 1.0151e-78)
(-2.41582e-55 -1.23956e-54 4.69609e-55)
(-2.4602e-57 -1.26329e-56 4.78182e-57)
(-2.41813e-59 -1.2425e-58 4.69982e-59)
(-2.29661e-61 -1.18073e-60 4.46365e-61)
(-2.11107e-63 -1.08588e-62 4.10321e-63)
(-1.88145e-65 -9.68186e-65 3.65721e-65)
(-1.6287e-67 -8.38439e-67 3.16626e-67)
(-1.37188e-69 -7.06467e-69 2.66735e-69)
(-1.12634e-71 -5.80194e-71 2.19029e-71)
(-9.02814e-74 -4.65176e-73 1.75593e-73)
(-6.73764e-58 -3.45548e-57 1.30948e-57)
(-7.00514e-60 -3.5955e-59 1.36127e-59)
(-7.02443e-62 -3.60788e-61 1.36489e-61)
(-6.81095e-64 -3.50034e-63 1.32336e-63)
(-6.39804e-66 -3.28986e-65 1.24313e-65)
(-5.83263e-68 -3.00051e-67 1.13332e-67)
(-5.16838e-70 -2.65988e-69 1.00432e-69)
(-4.45849e-72 -2.29537e-71 8.66459e-72)
(-3.74987e-74 -1.93117e-73 7.28835e-74)
(-3.07934e-76 -1.5863e-75 5.98592e-76)
(-1.78255e-60 -9.1378e-60 3.46399e-60)
(-1.90247e-62 -9.76049e-62 3.69636e-62)
(-1.95132e-64 -1.00182e-63 3.7908e-64)
(-1.93251e-66 -9.9279e-66 3.75398e-66)
(-1.85367e-68 -9.52812e-68 3.6007e-68)
(-1.72591e-70 -8.87578e-70 3.35255e-70)
(-1.56262e-72 -8.0395e-72 3.03547e-72)
(-1.37787e-74 -7.0917e-74 2.67674e-74)
(-1.18494e-76 -6.10082e-76 2.30215e-76)
(-9.95145e-79 -5.12522e-78 1.93362e-78)
(-4.50113e-63 -2.29525e-62 8.74626e-63)
(-4.94668e-65 -2.52419e-64 9.60999e-65)
(-5.20354e-67 -2.65685e-66 1.01074e-66)
(-5.27192e-69 -2.69318e-68 1.02392e-68)
(-5.16609e-71 -2.64032e-70 1.0033e-70)
(-4.91105e-73 -2.51098e-72 9.53743e-73)
(-4.53915e-75 -2.32163e-74 8.81523e-75)
(-4.08631e-77 -2.09063e-76 7.93605e-77)
(-3.58835e-79 -1.83633e-78 6.96937e-79)
(-3.07776e-81 -1.57536e-80 5.97815e-81)
(-7.96772e-58 -4.08561e-57 1.54137e-57)
(-8.36747e-60 -4.29403e-59 1.61823e-59)
(-8.47409e-62 -4.35175e-61 1.63847e-61)
(-8.28575e-64 -4.25758e-63 1.60176e-63)
(-7.83488e-66 -4.02801e-65 1.5144e-65)
(-7.17757e-68 -3.69176e-67 1.38722e-67)
(-6.38209e-70 -3.28393e-69 1.23339e-69)
(-5.51789e-72 -2.84026e-71 1.06634e-71)
(-4.64699e-74 -2.39273e-73 8.98022e-74)
(-3.81833e-76 -1.96661e-75 7.37887e-76)
(-2.29184e-60 -1.17465e-59 4.43196e-60)
(-2.45482e-62 -1.25922e-61 4.74554e-62)
(-2.53394e-64 -1.30075e-63 4.89716e-64)
(-2.52725e-66 -1.29813e-65 4.88314e-66)
(-2.44018e-68 -1.2541e-67 4.71408e-68)
(-2.28489e-70 -1.17487e-69 4.41348e-70)
(-2.0782e-72 -1.06905e-71 4.01382e-72)
(-1.83894e-74 -9.46332e-74 3.55144e-74)
(-1.58552e-76 -8.16198e-76 3.06187e-76)
(-1.33392e-78 -6.86886e-78 2.57591e-78)
(-6.24767e-63 -3.20069e-62 1.2078e-62)
(-6.86334e-65 -3.5191e-64 1.32633e-64)
(-7.24031e-67 -3.71517e-66 1.39875e-66)
(-7.36973e-69 -3.78406e-68 1.42339e-68)
(-7.26043e-71 -3.73011e-70 1.40199e-70)
(-6.93845e-73 -3.56652e-72 1.33958e-72)
(-6.44368e-75 -3.31371e-74 1.24388e-74)
(-5.82449e-77 -2.9965e-76 1.12423e-76)
(-5.13171e-79 -2.64104e-78 9.90426e-79)
(-4.41288e-81 -2.27183e-80 8.51637e-81)
(-1.62421e-65 -8.27593e-65 3.13908e-65)
(-1.83579e-67 -9.36088e-67 3.5466e-67)
(-1.98462e-69 -1.01262e-68 3.83285e-69)
(-2.06499e-71 -1.05421e-70 3.98694e-71)
(-2.07682e-73 -1.06077e-72 4.0088e-73)
(-2.02501e-75 -1.03474e-74 3.908e-75)
(-1.91859e-77 -9.80726e-77 3.702e-77)
(-1.76947e-79 -9.04786e-79 3.41378e-79)
(-1.591e-81 -8.13748e-81 3.06911e-81)
(-1.3965e-83 -7.14429e-83 2.69366e-83)
)
;

boundaryField
{
    inlet
    {
        type            zeroGradient;
    }
    outlet
    {
        type            zeroGradient;
    }
    bottom
    {
        type            zeroGradient;
    }
    top
    {
        type            symmetryPlane;
    }
    side1
    {
        type            symmetryPlane;
    }
    side2
    {
        type            symmetryPlane;
    }
    procBoundary29to21
    {
        type            processor;
        value           nonuniform List<vector> 
50
(
(-3.31511e-46 -1.70493e-45 6.43533e-46)
(-2.98709e-48 -1.53713e-47 5.79857e-48)
(-2.58516e-50 -1.33096e-49 5.01855e-50)
(-2.15878e-52 -1.11191e-51 4.19114e-52)
(-1.74599e-54 -8.99635e-54 3.3901e-54)
(-1.37195e-56 -7.07138e-56 2.66421e-56)
(-1.0501e-58 -5.41406e-58 2.03954e-58)
(-7.84676e-61 -4.04665e-60 1.52432e-60)
(-5.73535e-63 -2.95846e-62 1.11439e-62)
(-4.10747e-65 -2.11918e-64 7.98267e-65)
(-3.80192e-48 -1.95402e-47 7.38503e-48)
(-3.54707e-50 -1.82418e-49 6.88984e-50)
(-3.17475e-52 -1.63357e-51 6.16679e-52)
(-2.73875e-54 -1.40987e-53 5.32019e-54)
(-2.2859e-56 -1.17723e-55 4.44093e-56)
(-1.85185e-58 -9.54027e-58 3.59813e-58)
(-1.46001e-60 -7.52395e-60 2.83721e-60)
(-1.12279e-62 -5.78777e-62 2.1823e-62)
(-8.43919e-65 -4.35132e-64 1.6406e-64)
(-6.21032e-67 -3.20281e-66 1.20756e-66)
(-2.2665e-50 -1.16412e-49 4.40536e-50)
(-2.18716e-52 -1.12412e-51 4.25097e-52)
(-2.02255e-54 -1.04011e-53 3.93104e-54)
(-1.80082e-56 -9.26534e-56 3.50023e-56)
(-1.54983e-58 -7.97741e-58 3.01263e-58)
(-1.29343e-60 -6.66019e-60 2.51452e-60)
(-1.04962e-62 -5.40657e-62 2.04082e-62)
(-8.30167e-65 -4.27744e-64 1.6144e-64)
(-6.41244e-67 -3.3049e-66 1.24725e-66)
(-4.84593e-69 -2.49813e-68 9.42751e-69)
(-9.32756e-53 -4.78773e-52 1.81414e-52)
(-9.30004e-55 -4.77697e-54 1.80867e-54)
(-8.87653e-57 -4.56219e-56 1.72628e-56)
(-8.14955e-59 -4.19073e-58 1.58494e-58)
(-7.22556e-61 -3.71729e-60 1.40533e-60)
(-6.20702e-63 -3.19458e-62 1.20735e-62)
(-5.18051e-65 -2.66722e-64 1.00781e-64)
(-4.21088e-67 -2.16869e-66 8.19313e-67)
(-3.34029e-69 -1.72081e-68 6.50039e-69)
(-2.59055e-71 -1.33491e-70 5.04238e-71)
(-2.98408e-55 -1.53069e-54 5.77698e-55)
(-3.0712e-57 -1.57656e-56 5.94414e-57)
(-3.0229e-59 -1.55276e-58 5.8495e-59)
(-2.85941e-61 -1.46959e-60 5.53228e-61)
(-2.60978e-63 -1.34195e-62 5.04873e-63)
(-2.30597e-65 -1.18624e-64 4.46066e-65)
(-1.97811e-67 -1.01797e-66 3.82627e-67)
(-1.65136e-69 -8.50106e-69 3.19419e-69)
(-1.34446e-71 -6.92324e-71 2.60057e-71)
(-1.06946e-73 -5.50866e-73 2.06871e-73)
)
;
    }
    procBoundary29to28
    {
        type            processor;
        value           nonuniform List<vector> 
20
(
(-8.88219e-47 -4.5626e-46 1.72398e-46)
(-2.12711e-49 -1.09211e-48 4.12813e-49)
(-4.85795e-52 -2.49291e-51 9.42737e-52)
(-1.06608e-54 -5.4449e-54 2.06882e-54)
(-1.01846e-48 -5.22802e-48 1.97802e-48)
(-2.52499e-51 -1.2955e-50 4.90327e-51)
(-5.96296e-54 -3.05789e-53 1.15785e-53)
(-1.35174e-56 -6.89831e-56 2.62464e-56)
(-6.07048e-51 -3.11398e-50 1.17974e-50)
(-1.55644e-53 -7.9802e-53 3.02428e-53)
(-3.79711e-56 -1.94589e-55 7.3773e-56)
(-8.88363e-59 -4.5299e-58 1.72588e-58)
(-2.49786e-53 -1.28044e-52 4.85741e-53)
(-6.61622e-56 -3.38995e-55 1.28636e-55)
(-1.66578e-58 -8.53076e-58 3.23827e-58)
(-4.01839e-61 -2.04739e-60 7.81119e-61)
(-7.99004e-56 -4.09298e-55 1.54657e-55)
(-2.18431e-58 -1.11841e-57 4.22639e-58)
(-5.6706e-61 -2.90206e-60 1.09685e-60)
(-1.40932e-63 -7.17475e-63 2.72531e-63)
)
;
    }
    procBoundary29to30
    {
        type            processor;
        value           nonuniform List<vector> 
20
(
(-8.54551e-70 -4.40953e-69 1.65952e-69)
(-2.83305e-72 -1.46158e-71 5.49931e-72)
(-8.83545e-75 -4.55728e-74 1.71446e-74)
(-2.62459e-77 -1.34578e-76 5.09136e-77)
(-1.35943e-71 -7.01206e-71 2.64122e-71)
(-4.62104e-74 -2.38311e-73 8.97401e-74)
(-1.47671e-76 -7.61394e-76 2.86668e-76)
(-4.49241e-79 -2.30237e-78 8.71826e-79)
(-1.11495e-73 -5.7488e-73 2.16724e-73)
(-3.88411e-76 -2.00231e-75 7.54627e-76)
(-1.27125e-78 -6.55211e-78 2.46888e-78)
(-3.95895e-81 -2.02794e-80 7.68615e-81)
(-6.25756e-76 -3.2252e-75 1.21691e-75)
(-2.2328e-78 -1.15059e-77 4.33994e-78)
(-7.48067e-81 -3.85414e-80 1.45344e-80)
(-2.38362e-83 -1.22037e-82 4.62961e-83)
(-2.70948e-78 -1.39595e-77 5.23444e-78)
(-9.89772e-81 -5.0985e-80 1.91083e-80)
(-3.39302e-83 -1.74747e-82 6.54659e-83)
(-1.10573e-85 -5.65826e-85 2.13231e-85)
)
;
    }
}


// ************************************************************************* //
