/*--------------------------------*- C++ -*----------------------------------*\
| =========                 |                                                 |
| \\      /  F ield         | OpenFOAM: The Open Source CFD Toolbox           |
|  \\    /   O peration     | Version:  2.4.0                                 |
|   \\  /    A nd           | Web:      www.OpenFOAM.org                      |
|    \\/     M anipulation  |                                                 |
\*---------------------------------------------------------------------------*/
FoamFile
{
    version     2.0;
    format      ascii;
    class       volVectorField;
    location    "0.01";
    object      gradp;
}
// * * * * * * * * * * * * * * * * * * * * * * * * * * * * * * * * * * * * * //

dimensions      [1 -2 -2 0 0 0 0];

internalField   nonuniform List<vector> 
40
(
(-1.34117e+17 -2.63657e+17 4.79369e+16)
(-8.32899e+16 -2.31629e+17 3.87472e+16)
(-5.11581e+16 -2.14757e+17 2.61182e+16)
(-3.7097e+16 -1.9758e+17 1.7e+16)
(-2.88367e+16 -1.8555e+17 1.32049e+16)
(-4.90874e+16 -2.4042e+17 4.1317e+16)
(-5.86273e+16 -2.1025e+17 2.91987e+16)
(-4.45634e+16 -1.96501e+17 2.08128e+16)
(-2.93357e+16 -1.84164e+17 1.66154e+16)
(-2.53534e+16 -1.67303e+17 1.62621e+16)
(6.61161e+16 -3.10578e+17 3.97044e+16)
(4.54729e+15 -2.47317e+17 2.72228e+16)
(1.01393e+15 -2.09912e+17 2.23592e+16)
(2.13001e+16 -1.89474e+17 1.82671e+16)
(2.52442e+16 -1.5784e+17 1.07409e+16)
(1.70334e+17 -3.88151e+17 5.48161e+16)
(1.42704e+17 -3.18129e+17 3.69814e+16)
(7.11211e+16 -2.48246e+17 3.00562e+16)
(7.48098e+16 -2.15538e+17 2.67184e+16)
(1.0767e+17 -1.904e+17 1.67847e+16)
(-1.69878e+17 -2.5413e+17 1.01032e+17)
(-1.5311e+17 -2.33716e+17 9.14273e+16)
(-1.20749e+17 -2.24332e+17 7.21026e+16)
(-7.84195e+16 -2.01364e+17 5.95352e+16)
(-5.94395e+16 -1.74361e+17 4.78549e+16)
(-1.36825e+17 -2.53592e+17 1.02952e+17)
(-1.24241e+17 -2.28689e+17 8.08961e+16)
(-8.48298e+16 -2.02516e+17 6.85329e+16)
(-4.3898e+16 -1.82137e+17 5.89621e+16)
(-4.26515e+16 -1.71245e+17 4.85493e+16)
(-6.78318e+16 -2.88979e+17 9.36356e+16)
(-5.09574e+16 -2.34864e+17 7.23092e+16)
(-2.76444e+16 -1.95123e+17 6.11575e+16)
(-1.58783e+16 -1.7331e+17 4.94359e+16)
(-1.30568e+16 -1.57003e+17 3.54986e+16)
(7.9968e+16 -3.54275e+17 1.13551e+17)
(6.34725e+16 -2.79542e+17 7.86542e+16)
(3.82796e+16 -2.28557e+17 6.14931e+16)
(3.23409e+16 -1.97469e+17 5.32609e+16)
(3.9824e+16 -1.64857e+17 3.87067e+16)
)
;

boundaryField
{
    inlet
    {
        type            zeroGradient;
    }
    outlet
    {
        type            zeroGradient;
    }
    bottom
    {
        type            zeroGradient;
    }
    top
    {
        type            symmetryPlane;
    }
    side1
    {
        type            symmetryPlane;
    }
    side2
    {
        type            symmetryPlane;
    }
    procBoundary29to13
    {
        type            processor;
        value           nonuniform List<vector> 10((-2.38073e+17 -2.87151e+17 3.53622e+16) (-1.56428e+17 -2.2317e+17 3.05032e+16) (-1.12661e+17 -1.86646e+17 2.6797e+16) (-8.77495e+16 -1.57953e+17 1.89803e+16) (-6.09335e+16 -1.34688e+17 9.26925e+15) (-2.52445e+17 -2.43251e+17 8.54181e+16) (-1.83837e+17 -2.01317e+17 7.7782e+16) (-1.49534e+17 -1.8697e+17 6.06489e+16) (-1.43838e+17 -1.71634e+17 5.11086e+16) (-1.16179e+17 -1.42888e+17 4.48342e+16));
    }
    procBoundary29to28
    {
        type            processor;
        value           nonuniform List<vector> 8((-2.06011e+17 -3.26122e+17 4.99227e+16) (-3.35595e+16 -3.10367e+17 5.66167e+16) (9.38097e+16 -3.57027e+17 6.90816e+16) (1.16676e+17 -4.05649e+17 6.52208e+16) (-2.13053e+17 -2.91526e+17 9.89051e+16) (-1.29922e+17 -2.79712e+17 1.14912e+17) (-5.10856e+16 -3.43261e+17 1.33636e+17) (5.51116e+16 -3.93691e+17 1.41689e+17));
    }
    procBoundary29to30
    {
        type            processor;
        value           nonuniform List<vector> 8((-6.47578e+16 -1.7979e+17 7.43661e+15) (-3.07942e+16 -1.57124e+17 1.12098e+16) (-1.9358e+15 -1.22963e+17 6.29804e+15) (7.86317e+16 -1.17673e+17 5.51668e+15) (-6.20624e+16 -1.646e+17 2.98055e+16) (-5.15326e+16 -1.58946e+17 3.35883e+16) (-1.98932e+16 -1.32072e+17 2.41103e+16) (3.31475e+16 -1.18421e+17 1.97715e+16));
    }
    procBoundary29to45
    {
        type            processor;
        value           nonuniform List<vector> 10((2.41155e+17 -3.68377e+17 6.08764e+16) (2.84357e+17 -3.59176e+17 5.13398e+16) (2.06197e+17 -3.10827e+17 3.46648e+16) (1.36991e+17 -2.37329e+17 2.95601e+16) (2.20974e+17 -1.91721e+17 2.67057e+16) (1.60466e+17 -3.46507e+17 1.27261e+17) (2.0048e+17 -3.24094e+17 9.84269e+16) (1.36502e+17 -2.70431e+17 7.01142e+16) (1.11522e+17 -2.18344e+17 6.09438e+16) (1.45038e+17 -1.70226e+17 5.00578e+16));
    }
    procBoundary29to93
    {
        type            processor;
        value           nonuniform List<vector> 
20
(
(-1.58046e+17 -2.35603e+17 6.86599e+16)
(-1.75862e+17 -2.26646e+17 6.39415e+16)
(-1.53213e+17 -2.02143e+17 6.80219e+16)
(-1.1469e+17 -1.85014e+17 7.03349e+16)
(-1.23972e+17 -1.79606e+17 6.23711e+16)
(-1.57938e+17 -2.52253e+17 9.39153e+16)
(-1.68769e+17 -2.40839e+17 8.34803e+16)
(-1.14752e+17 -2.14014e+17 8.3424e+16)
(-9.32831e+16 -2.00323e+17 7.99913e+16)
(-1.0655e+17 -1.87073e+17 7.23068e+16)
(-1.3013e+17 -2.9362e+17 1.00396e+17)
(-9.93827e+16 -2.50904e+17 8.74893e+16)
(-7.21808e+16 -2.21176e+17 8.2743e+16)
(-6.08081e+16 -1.98596e+17 7.46757e+16)
(-5.57977e+16 -1.73588e+17 5.93174e+16)
(-3.13776e+16 -3.3435e+17 1.04294e+17)
(-2.38812e+16 -2.76341e+17 8.45869e+16)
(-1.01375e+16 -2.33915e+17 7.81842e+16)
(1.89318e+15 -1.97125e+17 5.81956e+16)
(5.03503e+14 -1.67105e+17 4.5173e+16)
)
;
    }
}


// ************************************************************************* //
