/*--------------------------------*- C++ -*----------------------------------*\
| =========                 |                                                 |
| \\      /  F ield         | OpenFOAM: The Open Source CFD Toolbox           |
|  \\    /   O peration     | Version:  2.4.0                                 |
|   \\  /    A nd           | Web:      www.OpenFOAM.org                      |
|    \\/     M anipulation  |                                                 |
\*---------------------------------------------------------------------------*/
FoamFile
{
    version     2.0;
    format      ascii;
    class       volVectorField;
    location    "0.08";
    object      A_Source;
}
// * * * * * * * * * * * * * * * * * * * * * * * * * * * * * * * * * * * * * //

dimensions      [1 -2 -2 0 0 0 0];

internalField   nonuniform List<vector> 
200
(
(5.97384e-132 -3.56096e-132 6.96126e-132)
(2.68885e-134 -1.60217e-134 3.1333e-134)
(1.21852e-136 -7.25739e-137 1.41993e-136)
(5.55526e-139 -3.307e-139 6.4735e-139)
(2.54572e-141 -1.51462e-141 2.9665e-141)
(1.17161e-143 -6.96669e-144 1.36526e-143)
(5.4108e-146 -3.21549e-146 6.30516e-146)
(2.50564e-148 -1.48812e-148 2.9198e-148)
(1.16266e-150 -6.90085e-151 1.35484e-150)
(5.40242e-153 -3.20455e-153 6.2954e-153)
(9.1371e-134 -5.46889e-134 1.06474e-133)
(4.18251e-136 -2.50263e-136 4.87385e-136)
(1.91311e-138 -1.14437e-138 2.22933e-138)
(8.74812e-141 -5.2312e-141 1.01941e-140)
(4.00055e-143 -2.39144e-143 4.66181e-143)
(1.83011e-145 -1.09361e-145 2.13262e-145)
(8.37683e-148 -5.00384e-148 9.76146e-148)
(3.83698e-150 -2.29109e-150 4.47121e-150)
(1.75893e-152 -1.04984e-152 2.04967e-152)
(8.06996e-155 -4.81454e-155 9.40386e-155)
(1.12164e-135 -6.73411e-136 1.30703e-135)
(5.22669e-138 -3.13713e-138 6.09062e-138)
(2.4316e-140 -1.45907e-140 2.83352e-140)
(1.12955e-142 -6.77594e-143 1.31626e-142)
(5.24007e-145 -3.14252e-145 6.10621e-145)
(2.428e-147 -1.45568e-147 2.82933e-147)
(1.12385e-149 -6.73601e-150 1.30961e-149)
(5.19733e-152 -3.11421e-152 6.05641e-152)
(2.40173e-154 -1.43867e-154 2.79872e-154)
(1.10914e-156 -6.64188e-157 1.29248e-156)
(1.18792e-137 -7.14894e-138 1.38428e-137)
(5.61915e-140 -3.38075e-140 6.54795e-140)
(2.65349e-142 -1.59606e-142 3.09209e-142)
(1.25097e-144 -7.52258e-145 1.45774e-144)
(5.88817e-147 -3.5399e-147 6.86143e-147)
(2.76724e-149 -1.66321e-149 3.22464e-149)
(1.29859e-151 -7.80307e-152 1.51324e-151)
(6.08546e-154 -3.65574e-154 7.09134e-154)
(2.84799e-156 -1.71045e-156 3.31874e-156)
(1.33117e-158 -7.99274e-159 1.5512e-158)
(1.663e-133 -9.90893e-134 1.93788e-133)
(7.592e-136 -4.5219e-136 8.8469e-136)
(3.489e-138 -2.07716e-138 4.0657e-138)
(1.61279e-140 -9.59681e-141 1.87937e-140)
(7.4923e-143 -4.45584e-143 8.73072e-143)
(3.49499e-145 -2.07735e-145 4.07269e-145)
(1.63574e-147 -9.71667e-148 1.90611e-147)
(7.67514e-150 -4.55641e-150 8.94379e-150)
(3.60798e-152 -2.14057e-152 4.20435e-152)
(1.69814e-154 -1.00685e-154 1.97882e-154)
(2.58082e-135 -1.54418e-135 3.0074e-135)
(1.19797e-137 -7.16566e-138 1.39599e-137)
(5.55553e-140 -3.32202e-140 6.47382e-140)
(2.57511e-142 -1.53933e-142 3.00076e-142)
(1.19349e-144 -7.13197e-145 1.39076e-144)
(5.53245e-147 -3.30487e-147 6.44692e-147)
(2.56559e-149 -1.53201e-149 2.98966e-149)
(1.1904e-151 -7.10552e-152 1.38717e-151)
(5.52687e-154 -3.29763e-154 6.44042e-154)
(2.56779e-156 -1.53141e-156 2.99223e-156)
(3.21326e-137 -1.92861e-137 3.74439e-137)
(1.5181e-139 -9.1091e-140 1.76903e-139)
(7.15912e-142 -4.29451e-142 8.34246e-142)
(3.37046e-144 -2.02126e-144 3.92757e-144)
(1.58436e-146 -9.49875e-147 1.84624e-146)
(7.43748e-149 -4.45774e-149 8.66684e-149)
(3.48716e-151 -2.08947e-151 4.06356e-151)
(1.63327e-153 -9.78351e-154 1.90323e-153)
(7.64266e-156 -4.5767e-156 8.90594e-156)
(3.57342e-158 -2.13923e-158 4.16407e-158)
(3.45083e-139 -2.07617e-139 4.02123e-139)
(1.65463e-141 -9.95246e-142 1.92813e-141)
(7.91886e-144 -4.7619e-144 9.22778e-144)
(3.78292e-146 -2.27423e-146 4.4082e-146)
(1.80393e-148 -1.08422e-148 2.10211e-148)
(8.58758e-151 -5.16011e-151 1.0007e-150)
(4.08141e-153 -2.45182e-153 4.75604e-153)
(1.93674e-155 -1.16316e-155 2.25687e-155)
(9.17674e-158 -5.50995e-158 1.06936e-157)
(4.34199e-160 -2.60638e-160 5.05969e-160)
(2.37049e-135 -1.41187e-135 2.76232e-135)
(1.09755e-137 -6.53445e-138 1.27896e-137)
(5.11466e-140 -3.04373e-140 5.96008e-140)
(2.39702e-142 -1.42574e-142 2.79323e-142)
(1.1288e-144 -6.71044e-145 1.31539e-144)
(5.33688e-147 -3.1708e-147 6.21903e-147)
(2.53118e-149 -1.50294e-149 2.94957e-149)
(1.20335e-151 -7.14076e-152 1.40226e-151)
(5.73058e-154 -3.39842e-154 6.6778e-154)
(2.7319e-156 -1.61908e-156 3.18346e-156)
(3.73234e-137 -2.23239e-137 4.34927e-137)
(1.75672e-139 -1.05042e-139 2.04709e-139)
(8.2591e-142 -4.93693e-142 9.62426e-142)
(3.88038e-144 -2.31878e-144 4.52178e-144)
(1.8226e-146 -1.08876e-146 2.12387e-146)
(8.56077e-149 -5.11209e-149 9.9758e-149)
(4.02191e-151 -2.4008e-151 4.6867e-151)
(1.89025e-153 -1.1279e-153 2.20269e-153)
(8.8883e-156 -5.30137e-156 1.03575e-155)
(4.18163e-158 -2.49301e-158 4.87282e-158)
(4.71289e-139 -2.82784e-139 5.4919e-139)
(2.25731e-141 -1.35406e-141 2.63043e-141)
(1.079e-143 -6.47063e-144 1.25736e-143)
(5.14808e-146 -3.08637e-146 5.99901e-146)
(2.45204e-148 -1.46963e-148 2.85734e-148)
(1.16611e-150 -6.98714e-151 1.35886e-150)
(5.53804e-153 -3.31734e-153 6.45343e-153)
(2.62689e-155 -1.57307e-155 3.06109e-155)
(1.24469e-157 -7.45142e-158 1.45043e-157)
(5.89204e-160 -3.52622e-160 6.86595e-160)
(5.13192e-141 -3.08677e-141 5.98019e-141)
(2.49419e-143 -1.49983e-143 2.90646e-143)
(1.20971e-145 -7.27252e-146 1.40967e-145)
(5.85548e-148 -3.51929e-148 6.82335e-148)
(2.82877e-150 -1.69973e-150 3.29634e-150)
(1.36401e-152 -8.1939e-153 1.58947e-152)
(6.5653e-155 -3.94293e-155 7.6505e-155)
(3.15461e-157 -1.89409e-157 3.67604e-157)
(1.5133e-159 -9.08385e-160 1.76344e-159)
(7.24807e-162 -4.34967e-162 8.44611e-162)
(2.29054e-137 -1.36368e-137 2.66915e-137)
(1.0754e-139 -6.39994e-140 1.25316e-139)
(5.08093e-142 -3.0224e-142 5.92076e-142)
(2.41384e-144 -1.43515e-144 2.81282e-144)
(1.15212e-146 -6.84617e-147 1.34255e-146)
(5.52002e-149 -3.27822e-149 6.43243e-149)
(2.65266e-151 -1.57441e-151 3.09113e-151)
(1.27759e-153 -7.578e-154 1.48876e-153)
(6.16262e-156 -3.65305e-156 7.18125e-156)
(2.97532e-158 -1.76258e-158 3.46711e-158)
(3.65833e-139 -2.18735e-139 4.26302e-139)
(1.74569e-141 -1.04345e-141 2.03424e-141)
(8.31915e-144 -4.97109e-144 9.69424e-144)
(3.9612e-146 -2.36625e-146 4.61596e-146)
(1.88528e-148 -1.12581e-148 2.19691e-148)
(8.97135e-151 -5.3554e-151 1.04542e-150)
(4.26941e-153 -2.54764e-153 4.97511e-153)
(2.03225e-155 -1.21221e-155 2.36817e-155)
(9.67685e-158 -5.76967e-158 1.12764e-157)
(4.6095e-160 -2.74713e-160 5.37141e-160)
(4.68418e-141 -2.80977e-141 5.45844e-141)
(2.27417e-143 -1.36376e-143 2.65007e-143)
(1.10169e-145 -6.60468e-146 1.28379e-145)
(5.32611e-148 -3.19214e-148 6.20647e-148)
(2.57008e-150 -1.53992e-150 2.9949e-150)
(1.23807e-152 -7.41603e-153 1.44271e-152)
(5.95486e-155 -3.56595e-155 6.93915e-155)
(2.86024e-157 -1.7123e-157 3.33301e-157)
(1.37214e-159 -8.21197e-160 1.59895e-159)
(6.57533e-162 -3.93397e-162 7.66218e-162)
(5.17097e-143 -3.10944e-143 6.02569e-143)
(2.54699e-145 -1.53118e-145 2.96799e-145)
(1.25173e-147 -7.5231e-148 1.45863e-147)
(6.13826e-150 -3.68827e-150 7.15286e-150)
(3.00374e-152 -1.80439e-152 3.50023e-152)
(1.46688e-154 -8.80952e-155 1.70934e-154)
(7.14947e-157 -4.29263e-157 8.33122e-157)
(3.47808e-159 -2.08776e-159 4.05298e-159)
(1.689e-161 -1.01359e-161 1.96818e-161)
(8.18792e-164 -4.9124e-164 9.54132e-164)
(1.69528e-139 -1.00887e-139 1.95204e-139)
(8.07007e-142 -4.80067e-142 9.29084e-142)
(3.86534e-144 -2.29834e-144 4.44933e-144)
(1.86133e-146 -1.10619e-146 2.1422e-146)
(9.00366e-149 -5.34794e-149 1.03606e-148)
(4.37121e-151 -2.59487e-151 5.02915e-151)
(2.12822e-153 -1.2626e-153 2.44815e-153)
(1.03832e-155 -6.15614e-156 1.19421e-155)
(5.07278e-158 -3.00572e-158 5.83343e-158)
(2.48021e-160 -1.46864e-160 2.85164e-160)
(2.74626e-141 -1.64144e-141 3.16168e-141)
(1.32846e-143 -7.93781e-144 1.52916e-143)
(6.41659e-146 -3.83287e-146 7.38479e-146)
(3.09615e-148 -1.84886e-148 3.56275e-148)
(1.49303e-150 -8.91261e-151 1.71776e-150)
(7.19744e-153 -4.29496e-153 8.2794e-153)
(3.46935e-155 -2.0695e-155 3.99023e-155)
(1.67245e-157 -9.97234e-158 1.92323e-157)
(8.06377e-160 -4.80619e-160 9.27142e-160)
(3.88888e-162 -2.31684e-162 4.47056e-162)
(3.5653e-143 -2.13796e-143 4.10393e-143)
(1.75441e-145 -1.05175e-145 2.01913e-145)
(8.61264e-148 -5.16175e-148 9.91057e-148)
(4.21874e-150 -2.52768e-150 4.85371e-150)
(2.06225e-152 -1.23527e-152 2.37226e-152)
(1.00621e-154 -6.02542e-155 1.15728e-154)
(4.9012e-157 -2.9341e-157 5.63613e-157)
(2.38369e-159 -1.42658e-159 2.74068e-159)
(1.15771e-161 -6.92655e-162 1.33088e-161)
(5.61576e-164 -3.35885e-164 6.45467e-164)
(3.98971e-145 -2.39847e-145 4.5917e-145)
(1.99143e-147 -1.19687e-147 2.29154e-147)
(9.91616e-150 -5.95819e-150 1.14086e-149)
(4.92608e-152 -2.95912e-152 5.66658e-152)
(2.44158e-154 -1.4663e-154 2.80814e-154)
(1.20749e-156 -7.24982e-157 1.38855e-156)
(5.9591e-159 -3.57696e-159 6.85153e-159)
(2.93493e-161 -1.76125e-161 3.37391e-161)
(1.44269e-163 -8.65542e-164 1.65821e-163)
(7.0785e-166 -4.24566e-166 8.13458e-166)
)
;

boundaryField
{
    inlet
    {
        type            zeroGradient;
    }
    outlet
    {
        type            zeroGradient;
    }
    bottom
    {
        type            zeroGradient;
    }
    top
    {
        type            symmetryPlane;
    }
    side1
    {
        type            symmetryPlane;
    }
    side2
    {
        type            symmetryPlane;
    }
    procBoundary14to6
    {
        type            processor;
        value           nonuniform List<vector> 
50
(
(2.4962e-129 -1.4768e-129 2.9088e-129)
(1.12245e-131 -6.63719e-132 1.30798e-131)
(5.04281e-134 -2.98032e-134 5.87635e-134)
(2.26364e-136 -1.33712e-136 2.6378e-136)
(1.01526e-138 -5.99397e-139 1.18308e-138)
(4.54988e-141 -2.68478e-141 5.30194e-141)
(2.03741e-143 -1.2016e-143 2.37418e-143)
(9.11642e-146 -5.37376e-146 1.06233e-145)
(4.07611e-148 -2.40145e-148 4.74986e-148)
(1.82114e-150 -1.07237e-150 2.12216e-150)
(6.92373e-131 -4.09408e-131 8.06816e-131)
(3.15789e-133 -1.86632e-133 3.67986e-133)
(1.43874e-135 -8.49856e-136 1.67655e-135)
(6.54805e-138 -3.86588e-138 7.63039e-138)
(2.97712e-140 -1.75673e-140 3.46922e-140)
(1.35223e-142 -7.97501e-143 1.57574e-142)
(6.13595e-145 -3.6169e-145 7.15017e-145)
(2.78166e-147 -1.63882e-147 3.24145e-147)
(1.25987e-149 -7.4187e-150 1.46812e-149)
(5.70104e-152 -3.35527e-152 6.64338e-152)
(9.8339e-133 -5.81183e-133 1.14594e-132)
(4.54903e-135 -2.68707e-135 5.30094e-135)
(2.10163e-137 -1.24076e-137 2.44901e-137)
(9.69736e-140 -5.72216e-140 1.13003e-139)
(4.46916e-142 -2.63576e-142 5.20788e-142)
(2.05725e-144 -1.21266e-144 2.3973e-144)
(9.45917e-147 -5.57287e-147 1.10227e-146)
(4.34444e-149 -2.55819e-149 5.06254e-149)
(1.99316e-151 -1.17304e-151 2.32262e-151)
(9.13449e-154 -5.37315e-154 1.06444e-153)
(9.46868e-135 -5.59303e-135 1.10338e-134)
(4.44166e-137 -2.62226e-137 5.17583e-137)
(2.08048e-139 -1.22763e-139 2.42436e-139)
(9.73106e-142 -5.73901e-142 1.13395e-141)
(4.54522e-144 -2.6792e-144 5.2965e-144)
(2.12013e-146 -1.24906e-146 2.47057e-146)
(9.87637e-149 -5.81559e-149 1.15089e-148)
(4.59491e-151 -2.70424e-151 5.35441e-151)
(2.13508e-153 -1.2559e-153 2.48799e-153)
(9.90864e-156 -5.82544e-156 1.15465e-155)
(6.98353e-137 -4.12289e-137 8.04157e-137)
(3.32162e-139 -1.95997e-139 3.82424e-139)
(1.57727e-141 -9.30205e-142 1.81564e-141)
(7.47763e-144 -4.40768e-144 8.60632e-144)
(3.53951e-146 -2.08527e-146 4.0731e-146)
(1.67286e-148 -9.85035e-149 1.92474e-148)
(7.89465e-151 -4.6462e-151 9.08185e-151)
(3.72031e-153 -2.18835e-153 4.27907e-153)
(1.75071e-155 -1.02926e-155 2.01333e-155)
(8.22707e-158 -4.83425e-158 9.45963e-158)
)
;
    }
    procBoundary14to13
    {
        type            processor;
        value           nonuniform List<vector> 
20
(
(5.62306e-129 -3.34733e-129 6.55251e-129)
(6.82519e-131 -4.08442e-131 7.95334e-131)
(8.06511e-133 -4.84315e-133 9.3982e-133)
(8.4928e-135 -5.11212e-135 9.8966e-135)
(1.5557e-130 -9.25678e-131 1.81285e-130)
(1.91314e-132 -1.14447e-132 2.22936e-132)
(2.29232e-134 -1.37614e-134 2.67122e-134)
(2.44786e-136 -1.47307e-136 2.85247e-136)
(2.204e-132 -1.31085e-132 2.5683e-132)
(2.74584e-134 -1.64203e-134 3.19971e-134)
(3.33586e-136 -2.002e-136 3.88725e-136)
(3.6121e-138 -2.17311e-138 4.20916e-138)
(2.11685e-134 -1.25845e-134 2.46675e-134)
(2.67133e-136 -1.59689e-136 3.11288e-136)
(3.28996e-138 -1.97385e-138 3.83376e-138)
(3.61172e-140 -2.17231e-140 4.20871e-140)
(1.55739e-136 -9.25439e-137 1.7934e-136)
(1.99053e-138 -1.18948e-138 2.29183e-138)
(2.48495e-140 -1.49042e-140 2.86062e-140)
(2.76548e-142 -1.66289e-142 3.18305e-142)
)
;
    }
    procBoundary14to15
    {
        type            processor;
        value           nonuniform List<vector> 
20
(
(3.65312e-156 -2.16887e-156 4.25695e-156)
(6.21871e-158 -3.70983e-158 7.24661e-158)
(8.60594e-160 -5.15251e-160 1.00284e-159)
(1.03132e-161 -6.19168e-162 1.20179e-161)
(1.15222e-157 -6.83798e-158 1.34268e-157)
(1.98641e-159 -1.1846e-159 2.31475e-159)
(2.7833e-161 -1.66591e-161 3.24336e-161)
(3.37659e-163 -2.02666e-163 3.93471e-163)
(1.85997e-159 -1.10336e-159 2.16741e-159)
(3.2473e-161 -1.93585e-161 3.78405e-161)
(4.60677e-163 -2.75649e-163 5.36823e-163)
(5.65756e-165 -3.39482e-165 6.59271e-165)
(2.03248e-161 -1.20519e-161 2.36844e-161)
(3.59311e-163 -2.14126e-163 4.18703e-163)
(5.16032e-165 -3.08678e-165 6.01328e-165)
(6.41466e-167 -3.84811e-167 7.47495e-167)
(1.69988e-163 -1.00755e-163 1.95436e-163)
(3.04274e-165 -1.81263e-165 3.49768e-165)
(4.42362e-167 -2.64531e-167 5.0842e-167)
(5.56567e-169 -3.33792e-169 6.39573e-169)
)
;
    }
    procBoundary14to22
    {
        type            processor;
        value           nonuniform List<vector> 
50
(
(1.11882e-140 -6.74843e-141 1.30375e-140)
(5.29532e-143 -3.19326e-143 6.17059e-143)
(2.53327e-145 -1.52725e-145 2.95199e-145)
(1.22269e-147 -7.36928e-148 1.42479e-147)
(5.94264e-150 -3.58067e-150 6.92491e-150)
(2.90341e-152 -1.74889e-152 3.38332e-152)
(1.42369e-154 -8.57315e-155 1.65902e-154)
(6.99707e-157 -4.2122e-157 8.15363e-157)
(3.44286e-159 -2.07197e-159 4.01194e-159)
(1.69443e-161 -1.01943e-161 1.9745e-161)
(3.25828e-142 -1.96486e-142 3.79685e-142)
(1.56317e-144 -9.42432e-145 1.82155e-144)
(7.57911e-147 -4.56824e-147 8.83187e-147)
(3.70688e-149 -2.23367e-149 4.3196e-149)
(1.82542e-151 -1.09963e-151 2.12715e-151)
(9.0347e-154 -5.44087e-154 1.05281e-153)
(4.48721e-156 -2.70146e-156 5.22891e-156)
(2.23338e-158 -1.34417e-158 2.60254e-158)
(1.11271e-160 -6.69491e-161 1.29664e-160)
(5.54417e-163 -3.33479e-163 6.46058e-163)
(4.85761e-144 -2.92863e-144 5.66054e-144)
(2.36215e-146 -1.4238e-146 2.75259e-146)
(1.1607e-148 -6.99437e-149 1.35255e-148)
(5.75236e-151 -3.46542e-151 6.70318e-151)
(2.86994e-153 -1.72845e-153 3.34432e-153)
(1.4389e-155 -8.6633e-156 1.67674e-155)
(7.23826e-158 -4.35667e-158 8.43469e-158)
(3.64833e-160 -2.19524e-160 4.25137e-160)
(1.84045e-162 -1.10709e-162 2.14466e-162)
(9.28363e-165 -5.58273e-165 1.08181e-164)
(4.90653e-146 -2.95744e-146 5.71754e-146)
(2.41801e-148 -1.45713e-148 2.81768e-148)
(1.20395e-150 -7.25332e-151 1.40295e-150)
(6.04521e-153 -3.64099e-153 7.04443e-153)
(3.05528e-155 -1.83964e-155 3.5603e-155)
(1.55153e-157 -9.3392e-158 1.80798e-157)
(7.90401e-160 -4.75626e-160 9.21047e-160)
(4.03392e-162 -2.42668e-162 4.70069e-162)
(2.06021e-164 -1.23899e-164 2.40075e-164)
(1.05195e-166 -6.32445e-167 1.22583e-166)
(3.79479e-148 -2.2868e-148 4.36724e-148)
(1.89511e-150 -1.14176e-150 2.18064e-150)
(9.56068e-153 -5.75859e-153 1.09993e-152)
(4.86336e-155 -2.92848e-155 5.59426e-155)
(2.48977e-157 -1.49878e-157 2.86348e-157)
(1.28053e-159 -7.70612e-160 1.47249e-159)
(6.60593e-162 -3.9742e-162 7.59496e-162)
(3.41357e-164 -2.05301e-164 3.924e-164)
(1.76492e-166 -1.06115e-166 2.02849e-166)
(9.12176e-169 -5.48277e-169 1.04823e-168)
)
;
    }
}


// ************************************************************************* //
