/*--------------------------------*- C++ -*----------------------------------*\
| =========                 |                                                 |
| \\      /  F ield         | OpenFOAM: The Open Source CFD Toolbox           |
|  \\    /   O peration     | Version:  2.4.0                                 |
|   \\  /    A nd           | Web:      www.OpenFOAM.org                      |
|    \\/     M anipulation  |                                                 |
\*---------------------------------------------------------------------------*/
FoamFile
{
    version     2.0;
    format      ascii;
    class       volVectorField;
    location    "0.08";
    object      Ub;
}
// * * * * * * * * * * * * * * * * * * * * * * * * * * * * * * * * * * * * * //

dimensions      [0 1 -1 0 0 0 0];

internalField   nonuniform List<vector> 
200
(
(150818 -89733.5 -661649)
(113961 -798816 -486428)
(-91555.7 114623 -216722)
(74647.7 -963088 -342189)
(-116057 -73032.7 5921.2)
(90542.9 -1.10749e+06 -108874)
(-33117.2 -183218 96918.2)
(227398 -1.25525e+06 -13204.2)
(142035 -315006 127792)
(489375 -1.47284e+06 40853.5)
(272364 -123474 513520)
(595935 131955 -871289)
(494565 -342765 -314639)
(439104 213518 -385898)
(532389 -689805 -377275)
(255048 -365781 -65879.8)
(565627 -1.0364e+06 231571)
(324155 -768072 -4546.13)
(719735 -1.33617e+06 295957)
(527656 -1.01397e+06 -29596.9)
(800811 -1.20017e+06 1.34614e+06)
(354649 -479780 535527)
(328638 183500 -318276)
(508341 -316366 -88650.6)
(251365 166206 -97988)
(503374 -579685 111114)
(233239 -590810 334183)
(565911 -1.332e+06 472191)
(274430 -1.22792e+06 23592.7)
(656011 -1.62885e+06 392926)
(1.35119e+06 117098 749872)
(975995 -987777 1.05811e+06)
(883305 -677257 456526)
(302072 425721 119235)
(523859 -228292 295273)
(144451 -308458 118393)
(569693 -1.20256e+06 730295)
(94090.9 -1.13395e+06 532016)
(456372 -1.73809e+06 551615)
(136312 -1.61225e+06 34971.6)
(138831 -324969 339157)
(1.35249e+06 -257886 72644.8)
(511875 -994132 -384103)
(-256.201 209227 174659)
(-57375.8 -1.19287e+06 -400730)
(-275364 253987 290210)
(-240223 -1.25764e+06 -329211)
(-320884 297010 349241)
(-180292 -1.34762e+06 -219174)
(-184781 254559 397364)
(1.82618e+06 -6.72303e+06 2.8696e+06)
(545840 172070 709755)
(2.41882e+06 295434 238390)
(1.20899e+06 -415689 -130283)
(343749 238103 54496.3)
(306065 -781444 -137379)
(61206.7 -156251 172289)
(271660 -1.03607e+06 10493.6)
(168554 -421958 217625)
(568505 -1.31737e+06 136285)
(41860.1 -400788 1.15964e+06)
(1.72719e+06 -5.90961e+06 2.81071e+06)
(155217 304505 820820)
(512893 1.15297e+06 126410)
(294277 147091 10700)
(40071.2 -63428.5 208047)
(352200 -907159 377797)
(142504 -761754 213396)
(547157 -1.31894e+06 434599)
(347448 -1.22288e+06 238641)
(587503 -4.00416e+06 2.28686e+06)
(-189219 -300183 1.54462e+06)
(-300863 1.03561e+06 342471)
(-189252 296731 294119)
(-301858 324470 423704)
(91122.9 -652460 684386)
(-252783 -721285 496230)
(137745 -1.27225e+06 647519)
(-105302 -1.31091e+06 304719)
(289486 -1.83992e+06 670633)
(329996 -179494 963515)
(-102195 -1.02394e+06 186321)
(-398222 190563 729813)
(-420722 -1.10273e+06 -86545.9)
(-595093 316530 598763)
(-590067 -1.16237e+06 -264521)
(-677133 483027 542300)
(-620141 -1.30713e+06 -347096)
(-652294 677520 542269)
(-537687 -1.442e+06 -338801)
(-127207 623513 958678)
(1.37656e+06 352629 1.00671e+06)
(285401 -377082 239177)
(-125048 357337 617334)
(-227224 -646578 79957.9)
(-457288 175094 499634)
(-382794 -830653 -71646.8)
(-479547 95103.9 424490)
(-306660 -972829 -105359)
(-306979 21669 403630)
(1.17531e+06 -5.17515e+06 2.22922e+06)
(-347764 1.1235e+06 744960)
(185415 1.15453e+06 602302)
(-67384.1 107240 348701)
(-373841 363084 513775)
(-165857 -461072 373353)
(-381689 -123971 476756)
(-38047.1 -774555 338734)
(-208853 -413988 426664)
(267872 -1.10171e+06 341807)
(-1.12603e+06 973147 720524)
(-859188 1.28216e+06 499918)
(-641772 507506 487199)
(-803408 652368 579561)
(-416696 -101258 609161)
(-706846 -14801.1 583754)
(-249841 -645768 596973)
(-538947 -435576 524514)
(9006.72 -1.12843e+06 525455)
(-316629 -774674 552213)
(-900721 -891793 141801)
(-932552 374804 765323)
(-897268 -950331 -120156)
(-921672 474548 662890)
(-889096 -1.02681e+06 -299886)
(-898534 655086 638207)
(-844166 -1.17144e+06 -399258)
(-827801 846317 645688)
(-767151 -1.31279e+06 -445504)
(-726331 1.04533e+06 674564)
(-580419 445075 1.02593e+06)
(-627424 -429757 320551)
(-766163 416143 739081)
(-775389 -601155 8718.56)
(-845930 347059 594475)
(-815416 -738771 -164662)
(-833748 331937 549507)
(-767684 -871383 -251549)
(-745617 405932 572022)
(-631157 -1.01528e+06 -287955)
(-833971 359177 476813)
(-763331 756648 668732)
(-680981 -48488.9 296849)
(-826679 466147 547648)
(-720497 -358723 131242)
(-792082 226153 468166)
(-646673 -592376 17739.2)
(-662715 86056.8 440511)
(-427052 -784631 -5380.16)
(-398137 -38735.8 427112)
(-1.36586e+06 906534 248115)
(-1.03714e+06 233906 210492)
(-1.17809e+06 646293 383889)
(-889223 -62692.7 230522)
(-1.01911e+06 366287 362336)
(-687116 -429439 179631)
(-836504 97261.1 344842)
(-335985 -840322 173459)
(-582183 -67122.3 396197)
(281648 -1.49581e+06 244291)
(-1.06524e+06 819811 740576)
(-1.07526e+06 -936518 -478624)
(-968688 864149 766945)
(-976325 -976443 -565370)
(-883471 947304 792721)
(-870477 -1.05338e+06 -638268)
(-788467 1.06435e+06 813444)
(-757322 -1.15288e+06 -695517)
(-683222 1.18171e+06 826306)
(-634802 -1.24893e+06 -731421)
(-1.16236e+06 -495067 -253881)
(-1.09945e+06 663080 641792)
(-1.10455e+06 -592032 -391406)
(-1.05562e+06 620470 652645)
(-1.03328e+06 -686048 -491323)
(-975327 620783 682808)
(-927472 -781115 -558977)
(-857229 670721 721837)
(-786918 -881011 -608564)
(-699405 713919 748018)
(-1.23354e+06 785876 507460)
(-1.21466e+06 -207413 -199230)
(-1.17725e+06 607341 495553)
(-1.1606e+06 -365810 -305713)
(-1.11037e+06 429732 495037)
(-1.06358e+06 -508387 -376361)
(-1.00009e+06 337173 531566)
(-909948 -631031 -415735)
(-813701 299143 555194)
(-679192 -734263 -399860)
(-1.39619e+06 30371.7 -203804)
(-1.33717e+06 710872 276553)
(-1.3068e+06 -120727 -210671)
(-1.23045e+06 478101 285801)
(-1.15578e+06 -346111 -236241)
(-1.08002e+06 257061 298408)
(-917297 -556540 -217004)
(-811830 80599.6 278449)
(-478072 -828289 -113873)
(-361500 -68025.7 244329)
)
;

boundaryField
{
    inlet
    {
        type            fixedValue;
        value           nonuniform 0();
    }
    outlet
    {
        type            zeroGradient;
    }
    bottom
    {
        type            fixedValue;
        value           uniform (0 0 0);
    }
    top
    {
        type            symmetryPlane;
    }
    side1
    {
        type            symmetryPlane;
    }
    side2
    {
        type            symmetryPlane;
    }
    procBoundary14to6
    {
        type            processor;
        value           nonuniform List<vector> 
50
(
(-357095 -1.31528e+06 -296334)
(-413730 245898 -59099.5)
(-342127 -1.44529e+06 -273695)
(-375975 276182 91534.7)
(-311321 -1.46183e+06 -197884)
(-346012 274585 176229)
(-244412 -1.47925e+06 -153941)
(-315136 304573 226970)
(-117631 -1.58136e+06 -81267.5)
(-228396 494167 262976)
(117552 -189233 283041)
(-113231 -1.70595e+06 -396426)
(-353382 356812 343030)
(-375184 -1.74341e+06 -467495)
(-462823 597032 411981)
(-489414 -1.7271e+06 -433915)
(-517926 797555 459437)
(-484738 -1.77819e+06 -353434)
(-513752 1.01386e+06 516670)
(-378929 -1.90667e+06 -239751)
(-635670 -1.55798e+06 52477)
(-713586 303713 794346)
(-671474 -1.55813e+06 -206712)
(-718684 586152 712758)
(-706016 -1.60771e+06 -350028)
(-721309 865534 665280)
(-701754 -1.7233e+06 -399135)
(-704831 1.19997e+06 661884)
(-631739 -1.92259e+06 -393255)
(-636827 1.55537e+06 674101)
(-1.04377e+06 562880 738510)
(-1.01082e+06 -1.30859e+06 -260441)
(-963125 764267 705938)
(-942864 -1.40377e+06 -386340)
(-895284 1.02373e+06 697702)
(-868345 -1.53044e+06 -452989)
(-829432 1.32328e+06 701953)
(-771743 -1.72601e+06 -485557)
(-741935 1.60569e+06 710869)
(-665021 -1.92526e+06 -491774)
(-1.0683e+06 -1.32833e+06 -527151)
(-913389 1.21853e+06 861358)
(-944895 -1.34504e+06 -602807)
(-802313 1.31699e+06 872292)
(-822125 -1.39332e+06 -658514)
(-710781 1.45669e+06 865650)
(-701607 -1.48257e+06 -697789)
(-626118 1.61727e+06 850289)
(-586094 -1.59156e+06 -718905)
(-536127 1.74888e+06 835108)
)
;
    }
    procBoundary14to13
    {
        type            processor;
        value           nonuniform List<vector> 
20
(
(81773.1 -525679 266247)
(1.14663e+06 -1.67771e+06 1.76534e+06)
(1.41372e+06 41993.2 475696)
(1.40455e+06 -1.17116e+06 401065)
(1.36798e+06 -5.97317e+06 2.53266e+06)
(167819 175707 773891)
(1.60116e+06 -1.55621e+06 930589)
(1.07185e+06 -391001 490721)
(-560718 -395753 658263)
(863432 -4.68406e+06 1.65124e+06)
(-412815 578639 399132)
(42309.9 -3.09712e+06 1.03444e+06)
(-917168 252530 954627)
(-854237 1419.58 641614)
(-559692 -489400 893821)
(-1.15579e+06 417880 125259)
(-1.17281e+06 -891410 -365326)
(-1.16866e+06 739073 650088)
(-1.31126e+06 -59828.2 -171863)
(-1.40982e+06 857971 206792)
)
;
    }
    procBoundary14to15
    {
        type            processor;
        value           nonuniform List<vector> 
20
(
(422810 -415117 146140)
(932629 -1.56148e+06 254872)
(400106 -1.42418e+06 -69390.9)
(522481 -2.0507e+06 447380)
(72651.7 -1.45353e+06 -65841.5)
(506596 -771642 263305)
(793664 -1.8096e+06 503214)
(48366.1 -1.8756e+06 301530)
(-527551 830658 560893)
(-21762.6 -1.13304e+06 -11895.2)
(97215.7 -763013 437755)
(378609 -1.73228e+06 547901)
(-639541 -1.46484e+06 -460820)
(-563205 450104 590410)
(37867 -1.03636e+06 90286.8)
(-184688 -257568 556895)
(-563557 1.25712e+06 833344)
(-613472 -961428 -626208)
(-512825 241325 549885)
(229612 -1.23992e+06 87559)
)
;
    }
    procBoundary14to22
    {
        type            processor;
        value           nonuniform List<vector> 
50
(
(2.90255e+06 -3.10444e+06 1.41791e+06)
(1.47174e+06 -1.21882e+06 1.23119e+06)
(303054 795977 244240)
(500543 120037 562652)
(-52485.7 -265238 232117)
(444600 -1.22189e+06 1.14549e+06)
(-69749.5 -1.18392e+06 -313423)
(432073 -1.92935e+06 746713)
(-63375.4 -1.63091e+06 474719)
(309300 -2.23621e+06 584376)
(531944 -1.39185e+06 1.08613e+06)
(-320098 262330 531521)
(-250866 267837 717500)
(-411562 538013 485866)
(-180982 -285610 909050)
(-519614 -465051 413530)
(-81891.1 -1.16251e+06 875138)
(-580608 -1.12623e+06 551556)
(-110966 -1.77928e+06 829164)
(-396380 -1.9012e+06 384282)
(-1.59848e+06 779106 576604)
(-924788 341611 691019)
(-1.1805e+06 741909 650606)
(-744189 158198 747973)
(-1.06375e+06 290042 641090)
(-607190 -422790 740549)
(-925980 -274121 636349)
(-357715 -1.09231e+06 738536)
(-686312 -740677 665480)
(-20448.3 -1.81685e+06 833036)
(-1.30289e+06 265718 -37519.2)
(-1.50067e+06 781080 124746)
(-1.14408e+06 42791.1 99829.1)
(-1.33084e+06 615702 209879)
(-878002 -383770 168219)
(-1.13219e+06 362396 303491)
(-458112 -978472 315749)
(-872385 101604 472116)
(150262 -1.75371e+06 541118)
(-428612 -259494 726726)
(-1.44129e+06 738503 -53186.3)
(-1.32362e+06 -7239.99 -235182)
(-1.36525e+06 604466 6356.17)
(-1.1898e+06 -336481 -193820)
(-1.21014e+06 272601 27200)
(-815464 -774413 -126542)
(-810969 -103112 50696.2)
(-94193.5 -1.39666e+06 3641.53)
(-177730 -409278 98950.8)
(785360 -1.97151e+06 162197)
)
;
    }
}


// ************************************************************************* //
