/*--------------------------------*- C++ -*----------------------------------*\
| =========                 |                                                 |
| \\      /  F ield         | OpenFOAM: The Open Source CFD Toolbox           |
|  \\    /   O peration     | Version:  2.4.0                                 |
|   \\  /    A nd           | Web:      www.OpenFOAM.org                      |
|    \\/     M anipulation  |                                                 |
\*---------------------------------------------------------------------------*/
FoamFile
{
    version     2.0;
    format      ascii;
    class       volScalarField;
    location    "0.01";
    object      alpha;
}
// * * * * * * * * * * * * * * * * * * * * * * * * * * * * * * * * * * * * * //

dimensions      [0 0 0 0 0 0 0];

internalField   nonuniform List<scalar> 
51
(
1.0749e-81
7.02439e-84
4.70553e-86
3.15662e-88
2.09534e-90
3.84677e-84
2.40113e-86
1.53249e-88
9.93898e-91
6.49288e-93
1.26848e-86
8.00295e-89
5.06731e-91
3.23284e-93
2.07788e-95
3.90514e-89
2.53003e-91
1.62655e-93
1.04294e-95
6.6913e-98
1.77887e-83
1.19121e-85
8.17438e-88
5.61436e-90
3.8133e-92
6.52683e-86
4.16973e-88
2.72308e-90
1.80652e-92
1.20671e-94
2.20473e-88
1.4227e-90
9.21024e-93
6.00567e-95
3.944e-97
6.94843e-91
4.60195e-93
3.02317e-95
1.98001e-97
1.2971e-99
1.51673e-85
1.0403e-87
7.30972e-90
5.13808e-92
3.56946e-94
5.70285e-88
3.72737e-90
2.48974e-92
1.68887e-94
1.9725e-90
1.30134e-92
)
;

boundaryField
{
    inlet
    {
        type            zeroGradient;
    }
    outlet
    {
        type            zeroGradient;
    }
    bottom
    {
        type            fixedValue;
        value           uniform 0;
    }
    top
    {
        type            symmetryPlane;
    }
    side1
    {
        type            symmetryPlane;
    }
    side2
    {
        type            symmetryPlane;
    }
    procBoundary53to37
    {
        type            processor;
        value           nonuniform List<scalar> 
15
(
1.97712e-78
1.18942e-80
7.0864e-83
4.19263e-85
2.46908e-87
3.25109e-80
2.00294e-82
1.22143e-84
7.39321e-87
4.45233e-89
2.75476e-82
1.73726e-84
1.08391e-86
6.70938e-89
4.13027e-91
)
;
    }
    procBoundary53to52
    {
        type            processor;
        value           nonuniform List<scalar> 
11
(
8.74549e-79
2.37102e-81
6.61189e-84
1.8813e-86
1.43664e-80
3.98585e-83
1.13743e-85
3.31195e-88
1.21614e-82
3.45135e-85
1.00745e-87
)
;
    }
    procBoundary53to54
    {
        type            processor;
        value           nonuniform List<scalar> 9(1.78766e-93 6.96274e-96 2.48424e-98 8.2707e-101 3.27024e-95 1.30233e-97 4.74791e-100 1.61438e-102 3.07647e-97);
    }
    procBoundary53to117
    {
        type            processor;
        value           nonuniform List<scalar> 
27
(
1.92257e-97
1.33137e-95
9.32705e-98
6.30517e-100
4.24381e-93
2.04074e-95
1.03243e-97
5.53893e-100
3.13265e-102
1.31138e-88
9.13988e-91
6.38374e-93
4.40892e-95
1.92257e-97
2.99676e-97
4.67672e-91
3.20115e-93
1.33137e-95
2.21437e-95
1.92257e-97
9.32705e-98
1.53161e-97
4.24381e-93
1.56635e-93
1.33137e-95
2.04074e-95
1.0816e-95
)
;
    }
}


// ************************************************************************* //
