/*--------------------------------*- C++ -*----------------------------------*\
| =========                 |                                                 |
| \\      /  F ield         | OpenFOAM: The Open Source CFD Toolbox           |
|  \\    /   O peration     | Version:  2.4.0                                 |
|   \\  /    A nd           | Web:      www.OpenFOAM.org                      |
|    \\/     M anipulation  |                                                 |
\*---------------------------------------------------------------------------*/
FoamFile
{
    version     2.0;
    format      ascii;
    class       volVectorField;
    location    "0.01";
    object      U;
}
// * * * * * * * * * * * * * * * * * * * * * * * * * * * * * * * * * * * * * //

dimensions      [0 1 -1 0 0 0 0];

internalField   nonuniform List<vector> 
51
(
(-1.43127e+10 6.785e+10 1.59706e+10)
(-2.14005e+10 5.34319e+10 1.77444e+10)
(-1.5605e+10 5.04796e+10 1.10297e+10)
(-7.61962e+09 3.98856e+10 8.58651e+09)
(-4.388e+09 2.55418e+10 9.16874e+09)
(-2.67103e+10 4.36456e+10 1.02009e+10)
(-1.72675e+10 2.67373e+10 2.75621e+09)
(-9.10892e+09 2.62488e+10 4.82213e+09)
(-9.17623e+09 2.66302e+10 9.63404e+09)
(-1.33862e+10 1.34345e+10 8.67763e+09)
(-2.89892e+10 2.3972e+10 7.0491e+09)
(-2.4248e+10 9.40742e+09 5.16885e+09)
(-2.10789e+10 1.30136e+10 4.76552e+09)
(-1.56205e+10 1.7455e+10 3.73875e+09)
(-1.0805e+10 9.99739e+09 1.738e+09)
(-2.28822e+10 4.71682e+09 1.56771e+09)
(-2.0479e+10 2.54566e+09 3.61379e+09)
(-2.02679e+10 2.53967e+09 7.58938e+09)
(-2.11875e+10 3.00047e+09 8.00602e+09)
(-2.10971e+10 3.71216e+09 4.99559e+09)
(-3.69459e+10 3.4548e+10 3.49709e+10)
(-3.14791e+10 5.05965e+10 4.22545e+10)
(-1.73449e+10 3.81226e+10 2.81187e+10)
(-1.05061e+10 3.58056e+10 2.3745e+10)
(-1.032e+10 3.13568e+10 2.36266e+10)
(-2.44123e+10 2.44515e+10 1.94733e+10)
(-2.04441e+10 2.61413e+10 1.99048e+10)
(-2.05025e+10 1.93024e+10 1.98404e+10)
(-1.97407e+10 2.1092e+10 1.91769e+10)
(-1.68304e+10 2.75781e+10 1.87626e+10)
(-3.18113e+10 1.03239e+10 1.38469e+10)
(-2.70224e+10 1.18022e+10 1.0195e+10)
(-2.3279e+10 1.03676e+10 1.07422e+10)
(-2.14353e+10 1.00128e+10 9.2894e+09)
(-1.76459e+10 1.73423e+10 1.03725e+10)
(-2.42988e+10 2.83459e+09 6.28317e+09)
(-2.34526e+10 2.13327e+09 9.93677e+09)
(-2.17066e+10 3.06643e+09 1.33588e+10)
(-1.5061e+10 4.47953e+09 8.37449e+09)
(-8.5531e+09 3.13662e+09 4.44487e+09)
(-4.90993e+10 1.90543e+10 3.37205e+10)
(-4.68903e+10 3.63768e+10 3.95418e+10)
(-3.7631e+10 3.9031e+10 3.60129e+10)
(-3.05292e+10 1.93143e+10 2.77443e+10)
(-2.57105e+10 1.47575e+10 1.98693e+10)
(-5.13254e+10 1.97294e+10 1.90154e+10)
(-4.89642e+10 3.07685e+10 2.88307e+10)
(-4.03307e+10 2.21638e+10 2.42374e+10)
(-3.38628e+10 1.22595e+10 2.11022e+10)
(-4.90806e+10 1.45419e+10 1.18125e+10)
(-3.56505e+10 1.49253e+10 1.20306e+10)
)
;

boundaryField
{
    inlet
    {
        type            calculated;
        value           nonuniform 0();
    }
    outlet
    {
        type            calculated;
        value           nonuniform 0();
    }
    bottom
    {
        type            calculated;
        value           uniform (0 0 0);
    }
    top
    {
        type            symmetryPlane;
    }
    side1
    {
        type            symmetryPlane;
    }
    side2
    {
        type            symmetryPlane;
    }
    procBoundary53to37
    {
        type            processor;
        value           nonuniform List<vector> 
15
(
(2.51705e+10 6.52419e+10 2.63803e+10)
(1.52871e+10 5.81662e+10 2.99987e+10)
(3.97138e+09 7.02029e+10 2.85282e+10)
(-8.65353e+09 5.46602e+10 1.85814e+10)
(-4.17895e+09 3.95634e+10 1.29128e+10)
(-1.05557e+10 2.83856e+10 2.63874e+10)
(-1.57866e+10 5.75624e+10 5.19655e+10)
(-1.98321e+10 6.36846e+10 6.55286e+10)
(-1.61379e+10 5.64344e+10 4.67775e+10)
(-7.02838e+09 3.84825e+10 2.29155e+10)
(-3.75255e+10 1.7477e+10 2.71222e+10)
(-3.9911e+10 3.28827e+10 4.93862e+10)
(-3.54891e+10 3.9978e+10 5.67608e+10)
(-2.69416e+10 2.53346e+10 5.11944e+10)
(-1.9949e+10 2.31145e+10 3.47031e+10)
)
;
    }
    procBoundary53to52
    {
        type            processor;
        value           nonuniform List<vector> 
11
(
(-1.14676e+10 5.8818e+10 1.59409e+10)
(-3.24008e+10 3.88387e+10 9.64231e+09)
(-3.45596e+10 2.62662e+10 6.69158e+09)
(-2.75166e+10 8.53341e+09 2.47639e+09)
(-3.36019e+10 3.35217e+10 3.09258e+10)
(-3.20986e+10 2.58174e+10 1.82394e+10)
(-3.49009e+10 1.07436e+10 1.27574e+10)
(-2.66135e+10 4.10624e+09 4.54009e+09)
(-4.95912e+10 1.16847e+10 3.62675e+10)
(-5.10889e+10 9.54685e+09 1.76103e+10)
(-5.65014e+10 6.45496e+09 1.014e+10)
)
;
    }
    procBoundary53to54
    {
        type            processor;
        value           nonuniform List<vector> 9((-4.30081e+09 1.97788e+10 6.1347e+09) (-1.32707e+10 1.27104e+10 4.75311e+09) (-1.00441e+10 9.41969e+09 2.46882e+09) (-1.87194e+10 5.27875e+09 6.02556e+08) (-1.13154e+10 1.45601e+10 1.70548e+10) (-1.49791e+10 9.58869e+09 8.57887e+09) (-1.39565e+10 5.77326e+09 6.97986e+09) (-6.86039e+09 -8.72493e+07 2.2651e+09) (-2.17985e+10 1.44803e+10 1.87181e+10));
    }
    procBoundary53to117
    {
        type            processor;
        value           nonuniform List<vector> 
27
(
(-2.79314e+10 9.68435e+09 1.77975e+10)
(-2.82992e+10 9.56122e+09 1.19932e+10)
(-2.28547e+10 4.68756e+09 1.06471e+10)
(-1.94004e+10 3.31292e+09 1.02027e+10)
(-2.44443e+10 2.20882e+09 7.60373e+09)
(-1.97918e+10 2.80736e+09 1.00561e+10)
(-1.43136e+10 2.40028e+09 5.93872e+09)
(-1.1555e+10 1.18502e+09 3.55205e+09)
(-1.05428e+10 8.57178e+08 3.78434e+09)
(-6.8104e+10 1.26651e+09 2.00251e+10)
(-5.30748e+10 4.5119e+09 2.09947e+10)
(-4.46528e+10 1.20552e+10 2.00501e+10)
(-4.29548e+10 1.74593e+10 1.86742e+10)
(-2.79314e+10 9.68435e+09 1.77975e+10)
(-3.90761e+10 1.02382e+10 1.11065e+10)
(-4.96215e+10 -6.82826e+09 1.21738e+10)
(-5.46588e+10 3.7659e+09 1.79564e+10)
(-2.82992e+10 9.56122e+09 1.19932e+10)
(-5.3574e+10 1.60549e+10 1.71224e+10)
(-2.79314e+10 9.68435e+09 1.77975e+10)
(-2.28547e+10 4.68756e+09 1.06471e+10)
(-4.71635e+10 1.50265e+10 1.22006e+10)
(-2.44443e+10 2.20882e+09 7.60373e+09)
(-4.1011e+10 5.64473e+09 6.61545e+09)
(-2.82992e+10 9.56122e+09 1.19932e+10)
(-1.97918e+10 2.80736e+09 1.00561e+10)
(-4.18344e+10 1.24934e+10 6.86986e+09)
)
;
    }
}


// ************************************************************************* //
