/*--------------------------------*- C++ -*----------------------------------*\
| =========                 |                                                 |
| \\      /  F ield         | OpenFOAM: The Open Source CFD Toolbox           |
|  \\    /   O peration     | Version:  2.4.0                                 |
|   \\  /    A nd           | Web:      www.OpenFOAM.org                      |
|    \\/     M anipulation  |                                                 |
\*---------------------------------------------------------------------------*/
FoamFile
{
    version     2.0;
    format      ascii;
    class       volVectorField;
    location    "0.01";
    object      A_Source;
}
// * * * * * * * * * * * * * * * * * * * * * * * * * * * * * * * * * * * * * //

dimensions      [1 -2 -2 0 0 0 0];

internalField   nonuniform List<vector> 
40
(
(-3.86861e-73 -4.91648e-73 7.54642e-73)
(-2.17383e-75 -2.76219e-75 4.24046e-75)
(-1.22888e-77 -1.5612e-77 2.39715e-77)
(-6.96338e-80 -8.84491e-80 1.35833e-79)
(-3.94421e-82 -5.00908e-82 7.69391e-82)
(-1.59653e-75 -2.02979e-75 3.11432e-75)
(-9.0307e-78 -1.14798e-77 1.7616e-77)
(-5.10739e-80 -6.4915e-80 9.96291e-80)
(-2.88994e-82 -3.67253e-82 5.63736e-82)
(-1.63563e-84 -2.07822e-84 3.1906e-84)
(-6.09245e-78 -7.74844e-78 1.18844e-77)
(-3.52373e-80 -4.48093e-80 6.87369e-80)
(-2.02584e-82 -2.57579e-82 3.95176e-82)
(-1.15979e-84 -1.47443e-84 2.26238e-84)
(-6.61974e-87 -8.41442e-87 1.2913e-86)
(-2.19052e-80 -2.76782e-80 4.273e-80)
(-1.29751e-82 -1.63902e-82 2.53104e-82)
(-7.62076e-85 -9.62391e-85 1.48657e-84)
(-4.4442e-87 -5.61086e-87 8.66922e-87)
(-2.57649e-89 -3.252e-89 5.02591e-89)
(-7.72648e-75 -9.81775e-75 1.50719e-74)
(-4.42939e-77 -5.62731e-77 8.64034e-77)
(-2.55357e-79 -3.24361e-79 4.98121e-79)
(-1.47508e-81 -1.87336e-81 2.87742e-81)
(-8.51441e-84 -1.08114e-83 1.66089e-83)
(-3.25323e-77 -4.13547e-77 6.34602e-77)
(-1.8766e-79 -2.38516e-79 3.66065e-79)
(-1.08192e-81 -1.37492e-81 2.11049e-81)
(-6.23842e-84 -7.92658e-84 1.21692e-83)
(-3.59672e-86 -4.56927e-86 7.01606e-86)
(-1.26607e-79 -1.60997e-79 2.4697e-79)
(-7.46472e-82 -9.49114e-82 1.45613e-81)
(-4.3732e-84 -5.55963e-84 8.53073e-84)
(-2.55038e-86 -3.24183e-86 4.97497e-86)
(-1.48235e-88 -1.88397e-88 2.89159e-88)
(-4.64082e-82 -5.86236e-82 9.05277e-82)
(-2.80121e-84 -3.53756e-84 5.46427e-84)
(-1.67596e-86 -2.11594e-86 3.26926e-86)
(-9.95266e-89 -1.25621e-88 1.94145e-88)
(-5.87371e-91 -7.41175e-91 1.14577e-90)
)
;

boundaryField
{
    inlet
    {
        type            zeroGradient;
    }
    outlet
    {
        type            zeroGradient;
    }
    bottom
    {
        type            zeroGradient;
    }
    top
    {
        type            symmetryPlane;
    }
    side1
    {
        type            symmetryPlane;
    }
    side2
    {
        type            symmetryPlane;
    }
    procBoundary55to39
    {
        type            processor;
        value           nonuniform List<vector> 10((-1.19527e-69 -1.51798e-69 2.33158e-69) (-6.53616e-72 -8.2995e-72 1.275e-71) (-3.55129e-74 -4.50861e-74 6.92745e-74) (-1.91865e-76 -2.43544e-76 3.74267e-76) (-1.03156e-78 -1.30919e-78 2.01225e-78) (-2.38166e-71 -3.02416e-71 4.64586e-71) (-1.32865e-73 -1.6868e-73 2.59177e-73) (-7.3616e-76 -9.34443e-76 1.43602e-75) (-4.05427e-78 -5.14541e-78 7.90859e-78) (-2.22119e-80 -2.8185e-80 4.33283e-80));
    }
    procBoundary55to54
    {
        type            processor;
        value           nonuniform List<vector> 8((-7.59141e-70 -9.64688e-70 1.48084e-69) (-2.74975e-72 -3.49582e-72 5.36389e-72) (-1.00582e-74 -1.27922e-74 1.96204e-74) (-3.6065e-77 -4.55689e-77 7.03513e-77) (-1.51192e-71 -1.92098e-71 2.94928e-71) (-5.58594e-74 -7.10046e-74 1.08964e-73) (-2.08377e-76 -2.6498e-76 4.06478e-76) (-7.61806e-79 -9.62306e-79 1.48604e-78));
    }
    procBoundary55to56
    {
        type            processor;
        value           nonuniform List<vector> 8((-8.94141e-86 -1.13558e-85 1.74419e-85) (-3.84531e-88 -4.88589e-88 7.50099e-88) (-1.5646e-90 -1.9888e-90 3.05204e-90) (-6.07429e-93 -7.66703e-93 1.1849e-92) (-1.93167e-87 -2.45287e-87 3.76808e-87) (-8.46224e-90 -1.07506e-89 1.65071e-89) (-3.50619e-92 -4.45616e-92 6.83946e-92) (-1.38577e-94 -1.74867e-94 2.70319e-94));
    }
    procBoundary55to119
    {
        type            processor;
        value           nonuniform List<vector> 
20
(
(-1.91026e-77 -2.42673e-77 3.72631e-77)
(-1.12773e-79 -1.43231e-79 2.19984e-79)
(-6.83326e-82 -8.67732e-82 1.33295e-81)
(-4.0927e-84 -5.19653e-84 7.98356e-84)
(-2.39511e-86 -3.04081e-86 4.67211e-86)
(-7.80796e-80 -9.92098e-80 1.52308e-79)
(-4.51463e-82 -5.73578e-82 8.8066e-82)
(-2.64347e-84 -3.35806e-84 5.15658e-84)
(-1.55735e-86 -1.97808e-86 3.0379e-86)
(-9.15612e-89 -1.16283e-88 1.78607e-88)
(-2.38161e-82 -3.02656e-82 4.64577e-82)
(-1.49293e-84 -1.89708e-84 2.91223e-84)
(-9.15765e-87 -1.16357e-86 1.78637e-86)
(-5.54786e-89 -7.04839e-89 1.08221e-88)
(-3.33062e-91 -4.23102e-91 6.49699e-91)
(-6.61304e-85 -8.35432e-85 1.28999e-84)
(-4.41338e-87 -5.57535e-87 8.60911e-87)
(-2.85749e-89 -3.60926e-89 5.57407e-89)
(-1.80856e-91 -2.28386e-91 3.52793e-91)
(-1.12496e-93 -1.42025e-93 2.19443e-93)
)
;
    }
}


// ************************************************************************* //
