/*--------------------------------*- C++ -*----------------------------------*\
| =========                 |                                                 |
| \\      /  F ield         | OpenFOAM: The Open Source CFD Toolbox           |
|  \\    /   O peration     | Version:  2.4.0                                 |
|   \\  /    A nd           | Web:      www.OpenFOAM.org                      |
|    \\/     M anipulation  |                                                 |
\*---------------------------------------------------------------------------*/
FoamFile
{
    version     2.0;
    format      ascii;
    class       volSymmTensorField;
    location    "0.01";
    object      B;
}
// * * * * * * * * * * * * * * * * * * * * * * * * * * * * * * * * * * * * * //

dimensions      [0 2 -2 0 0 0 0];

internalField   nonuniform List<symmTensor> 
40
(
(2.69265e+19 -3.71013e+14 4.17607e+14 2.69265e+19 -4.58724e+14 2.69258e+19)
(5.70015e+19 3.50031e+14 5.05676e+14 5.70027e+19 -4.8505e+14 5.70015e+19)
(3.45586e+19 6.53623e+14 3.41572e+14 3.45597e+19 -3.0266e+14 3.45589e+19)
(1.31234e+19 2.84374e+14 1.94264e+14 1.3124e+19 -1.69474e+14 1.31236e+19)
(7.83264e+18 3.38211e+14 2.03436e+14 7.83355e+18 -1.56157e+14 7.83302e+18)
(2.27004e+19 -5.10753e+14 7.71933e+14 2.27026e+19 -2.9326e+14 2.27001e+19)
(3.86547e+19 1.39653e+14 5.22083e+14 3.86568e+19 -2.09448e+14 3.86551e+19)
(1.47141e+19 2.35537e+14 3.74081e+14 1.47155e+19 -1.77923e+14 1.47145e+19)
(8.06591e+18 4.79409e+14 8.53209e+14 8.0699e+18 -5.54675e+14 8.06739e+18)
(2.03028e+18 2.95225e+14 3.08753e+14 2.03156e+18 -2.50963e+14 2.03064e+18)
(1.37854e+19 -3.82072e+14 3.8053e+14 1.37878e+19 -3.39671e+13 1.37859e+19)
(1.1527e+19 -5.6573e+13 6.96594e+14 1.1531e+19 -1.88673e+14 1.15271e+19)
(4.7561e+18 2.28988e+14 6.42961e+14 4.75762e+18 -2.0156e+14 4.75546e+18)
(3.71439e+18 5.14319e+13 3.63931e+14 3.71477e+18 -1.01487e+14 3.71409e+18)
(1.60981e+18 4.17232e+13 4.18995e+14 1.61021e+18 -8.70129e+13 1.60979e+18)
(5.65889e+18 -1.92959e+14 1.19887e+15 5.66354e+18 -3.72276e+14 5.65902e+18)
(3.59877e+18 2.80719e+14 1.18608e+15 3.60279e+18 -2.37578e+14 3.59885e+18)
(1.36889e+18 2.21445e+14 1.08464e+15 1.37145e+18 -7.70761e+13 1.36877e+18)
(8.43785e+17 -5.27738e+12 1.25303e+15 8.45518e+17 -6.05722e+12 8.43307e+17)
(6.79004e+17 -1.12291e+14 7.44797e+14 6.79686e+17 -7.44016e+13 6.78741e+17)
(7.87635e+18 1.42449e+15 1.45193e+15 7.88097e+18 1.04993e+15 7.87959e+18)
(6.97371e+18 1.31602e+14 7.1407e+14 6.977e+18 1.64481e+15 6.97531e+18)
(3.26565e+18 1.26137e+14 1.28755e+14 3.26645e+18 3.22397e+14 3.26559e+18)
(1.37732e+18 3.35708e+14 2.01553e+14 1.3778e+18 3.84339e+14 1.37689e+18)
(9.92113e+17 1.0141e+14 1.07366e+14 9.92421e+17 1.40918e+14 9.91658e+17)
(5.67033e+18 4.92285e+14 9.07389e+14 5.67314e+18 1.57185e+15 5.6722e+18)
(2.19828e+18 2.97177e+14 1.05327e+15 2.20119e+18 1.57451e+15 2.19964e+18)
(1.35333e+18 4.59626e+14 1.12696e+15 1.35519e+18 5.79398e+14 1.35345e+18)
(1.69397e+18 8.0648e+14 1.18573e+15 1.69474e+18 1.68939e+14 1.69355e+18)
(9.65376e+17 5.02028e+14 5.06957e+14 9.65732e+17 1.67872e+14 9.64936e+17)
(2.55537e+18 -8.5615e+12 6.62169e+13 2.55647e+18 2.178e+15 2.55474e+18)
(1.22352e+18 -4.58858e+13 2.28089e+13 1.22364e+18 4.85084e+14 1.22302e+18)
(7.74339e+17 1.72904e+14 1.84785e+14 7.74984e+17 5.63063e+14 7.73659e+17)
(9.55666e+17 1.34723e+14 2.79363e+14 9.55984e+17 5.90303e+13 9.55608e+17)
(4.61461e+17 3.60049e+13 2.29338e+14 4.61602e+17 2.94797e+13 4.61357e+17)
(5.632e+17 3.01072e+13 1.21142e+15 5.68188e+17 6.45658e+14 5.6442e+17)
(7.96186e+17 -4.42175e+14 2.11266e+15 8.00218e+17 4.31393e+14 7.95884e+17)
(1.02801e+18 -1.146e+14 7.78508e+14 1.02894e+18 2.52988e+14 1.02761e+18)
(6.62262e+17 -1.51594e+14 7.88967e+14 6.62969e+17 3.24968e+14 6.61783e+17)
(2.40294e+17 -4.02262e+14 3.87195e+14 2.40848e+17 5.06487e+13 2.39999e+17)
)
;

boundaryField
{
    inlet
    {
        type            calculated;
        value           nonuniform 0();
    }
    outlet
    {
        type            calculated;
        value           nonuniform 0();
    }
    bottom
    {
        type            calculated;
        value           nonuniform List<symmTensor> 
20
(
(8.70542e+07 -1.24425e+08 3.18744e+08 6.47299e+07 -4.39022e+08 -2.64145e+08)
(-1.06551e+08 -7.95348e+07 2.99505e+08 2.38242e+08 -2.41933e+08 -2.32827e+08)
(-1.10576e+08 -4.95859e+07 1.11671e+08 1.9629e+08 -8.54852e+07 -6.10928e+07)
(-5.36454e+07 -7.4091e+06 9.56264e+07 1.25241e+08 -3.7644e+07 -6.3406e+07)
(-1.06259e+08 1.14237e+08 3.53519e+08 2.98399e+08 -5.13548e+08 -1.63037e+08)
(-2.12626e+08 3.59237e+07 2.74783e+08 3.26472e+08 -2.27613e+08 -1.55646e+08)
(-5.6509e+07 -3.28033e+06 8.23819e+07 1.75186e+08 -7.42553e+07 -6.15925e+07)
(-4.64038e+07 1.02033e+07 8.28092e+07 9.9675e+07 -2.63117e+07 -4.85524e+07)
(-1.57998e+08 2.17484e+08 2.61816e+08 1.93187e+08 -2.99125e+08 -6.55494e+07)
(-1.9702e+08 6.52011e+07 1.95971e+08 1.91396e+08 -1.42651e+08 -7.49514e+07)
(-7.97541e+06 1.61393e+07 7.86739e+07 9.91193e+07 -4.6753e+07 -6.54732e+07)
(-2.93557e+07 7.58844e+06 6.75545e+07 5.82615e+07 -1.33554e+07 -3.84161e+07)
(-1.23172e+08 1.15633e+08 1.99588e+08 1.35523e+08 -2.14628e+08 -3.92548e+07)
(-1.31689e+08 3.30426e+07 1.13386e+08 1.43606e+08 -9.99491e+07 -1.97885e+07)
(4.71046e+06 8.67384e+06 9.89336e+07 6.83103e+07 -3.66546e+07 -5.13311e+07)
(-1.26604e+07 -152629 6.24025e+07 3.74628e+07 -7.80927e+06 -2.96481e+07)
(-1.16435e+08 8.5633e+07 1.42277e+08 1.156e+08 -1.09965e+08 -4.90867e+06)
(-4.83925e+07 2.63839e+07 5.98212e+07 6.66529e+07 -5.54925e+07 -1.27229e+07)
(-1.59632e+07 5.59403e+06 9.325e+07 3.73246e+07 -2.73736e+07 -1.60128e+07)
(-5.71865e+06 -5.26551e+06 5.89489e+07 2.62552e+07 -7.12826e+06 -1.85749e+07)
)
;
    }
    top
    {
        type            symmetryPlane;
    }
    side1
    {
        type            symmetryPlane;
    }
    side2
    {
        type            symmetryPlane;
    }
    procBoundary55to39
    {
        type            processor;
        value           nonuniform List<symmTensor> 10((1.03241e+15 -9.5416e+14 3.43766e+14 -3.98917e+14 -9.36097e+14 -4.99493e+14) (1.236e+14 1.53338e+14 1.48234e+14 2.20133e+13 -3.35796e+14 -1.32959e+14) (-1.7111e+13 5.42052e+14 1.52075e+14 1.05006e+14 -2.35493e+14 -8.66763e+13) (-1.23844e+14 3.78414e+14 1.51959e+14 5.87172e+13 -2.06629e+14 -6.15914e+13) (-5.41152e+14 5.89927e+14 2.4328e+14 6.98952e+14 -3.49561e+14 -8.72769e+13) (1.34461e+14 9.04242e+14 5.54585e+13 8.66869e+14 1.93876e+14 -4.83287e+14) (-6.72766e+14 2.71326e+14 1.13578e+14 1.12782e+15 1.21038e+15 -4.16e+14) (-8.69818e+14 6.35074e+14 4.28229e+14 1.30925e+15 7.96869e+14 -5.87401e+14) (-6.39587e+14 1.03113e+15 3.61387e+14 1.13783e+15 7.69005e+14 -5.25188e+14) (-2.66397e+14 7.62476e+13 -1.24492e+14 6.43261e+14 3.20385e+14 -2.17027e+14));
    }
    procBoundary55to54
    {
        type            processor;
        value           nonuniform List<symmTensor> 8((5.06869e+14 -1.88221e+14 1.90675e+14 1.17127e+12 -3.493e+14 -5.02518e+14) (3.67891e+14 -7.3937e+14 5.43345e+14 8.28714e+14 -3.25487e+14 -1.22562e+15) (-1.62684e+15 -8.26373e+14 9.04352e+14 2.14257e+15 -1.86072e+14 -7.14423e+14) (-1.42281e+15 -4.67776e+14 1.0103e+15 3.22889e+15 -3.34948e+14 -1.26327e+15) (-1.22733e+15 6.51291e+14 1.7609e+14 1.16909e+15 -1.24921e+13 -2.82336e+14) (-1.67172e+15 1.82777e+13 -1.86209e+14 1.46268e+15 1.49185e+15 -3.80247e+14) (-3.23353e+14 -1.34193e+14 -1.06347e+14 1.02085e+15 1.43017e+15 -2.86408e+14) (-2.227e+15 -5.88042e+13 -2.07621e+14 2.26878e+15 5.72121e+14 -6.96037e+14));
    }
    procBoundary55to56
    {
        type            processor;
        value           nonuniform List<symmTensor> 8((-8.80126e+14 2.68616e+14 2.75427e+14 8.69041e+14 -3.29129e+14 -2.9402e+14) (1.94222e+14 -4.4038e+13 3.2004e+14 4.90825e+14 -2.24083e+14 -2.57303e+14) (-3.96908e+14 -8.01753e+13 5.32457e+14 3.20107e+14 -1.5203e+14 -2.3875e+14) (-2.91772e+13 -3.27331e+13 1.37997e+14 1.03653e+14 -1.74126e+13 -7.86055e+13) (4.97482e+13 1.08889e+14 -1.15045e+14 4.77718e+14 8.84851e+13 -3.70664e+14) (1.67454e+14 1.80572e+14 -3.45918e+13 3.27621e+14 9.57131e+13 -2.57614e+14) (6.76674e+13 -3.59955e+13 6.17992e+12 1.16521e+14 -2.09936e+12 -1.19734e+14) (-3.80332e+13 -1.58256e+14 6.0886e+13 3.03106e+14 -7.41834e+12 -1.78533e+14));
    }
    procBoundary55to119
    {
        type            processor;
        value           nonuniform List<symmTensor> 
20
(
(-4.05988e+14 1.82321e+14 4.50638e+14 2.5614e+14 9.93012e+13 2.00061e+14)
(-3.44549e+14 2.01495e+14 5.9631e+14 3.61601e+14 -1.09685e+14 1.1376e+14)
(2.70458e+14 3.41833e+14 2.56147e+15 1.20552e+15 -7.47343e+14 -8.94258e+14)
(1.09083e+15 1.09535e+15 4.71321e+15 1.21517e+15 -9.68992e+14 -1.25e+15)
(9.70277e+13 1.81419e+14 7.63421e+14 2.59588e+14 -9.79924e+13 -2.49596e+14)
(-3.0406e+15 2.21305e+14 3.59509e+15 1.60393e+15 4.23044e+14 1.34684e+15)
(-1.06279e+15 -1.14522e+14 2.97754e+15 1.21839e+15 -7.41402e+14 -7.64321e+13)
(-6.71458e+14 -3.8506e+14 2.45319e+15 8.76213e+14 -1.52398e+14 -2.98139e+14)
(-9.92601e+14 -1.07996e+14 2.5927e+15 1.01691e+15 1.13993e+14 -3.39538e+14)
(-1.07691e+15 -3.05204e+14 2.51243e+15 1.47403e+15 2.60923e+14 -5.19079e+14)
(-1.2145e+15 -5.30553e+13 7.83923e+14 9.97423e+14 5.72263e+14 3.636e+14)
(-4.55509e+14 7.80575e+12 3.16922e+14 4.3156e+14 3.92494e+14 2.38639e+14)
(-6.83811e+14 -1.96569e+13 1.74419e+15 1.13498e+15 1.39628e+15 9.17245e+14)
(-4.21297e+14 2.36011e+14 9.03354e+14 6.12199e+14 3.34829e+14 3.44482e+14)
(-5.51275e+14 -5.7975e+13 2.67313e+14 4.3034e+14 1.08009e+14 2.7162e+12)
(-9.51063e+14 -6.70224e+13 2.07421e+14 4.32539e+14 2.54054e+13 2.66921e+14)
(-7.68702e+14 7.59571e+13 1.55114e+14 3.38461e+14 8.48754e+13 1.56269e+14)
(-2.50751e+15 3.34585e+14 7.77881e+14 1.28611e+15 4.89713e+14 3.32385e+14)
(-1.19401e+15 2.76775e+14 4.69362e+14 6.68735e+14 2.16721e+14 2.26851e+14)
(-2.35437e+15 2.46585e+14 -3.05695e+13 7.51159e+14 1.50102e+14 1.59222e+14)
)
;
    }
}


// ************************************************************************* //
