/*--------------------------------*- C++ -*----------------------------------*\
| =========                 |                                                 |
| \\      /  F ield         | OpenFOAM: The Open Source CFD Toolbox           |
|  \\    /   O peration     | Version:  2.4.0                                 |
|   \\  /    A nd           | Web:      www.OpenFOAM.org                      |
|    \\/     M anipulation  |                                                 |
\*---------------------------------------------------------------------------*/
FoamFile
{
    version     2.0;
    format      ascii;
    class       volScalarField;
    location    "0.01";
    object      p;
}
// * * * * * * * * * * * * * * * * * * * * * * * * * * * * * * * * * * * * * //

dimensions      [1 -1 -2 0 0 0 0];

internalField   nonuniform List<scalar> 
40
(
-1.01518e+15
-8.55485e+14
-5.44054e+14
-3.82395e+14
-2.89458e+14
-1.02701e+15
-8.0514e+14
-5.48494e+14
-4.4127e+14
-3.64863e+14
-1.01141e+15
-7.30368e+14
-6.15759e+14
-5.32369e+14
-4.05317e+14
-9.23991e+14
-6.93489e+14
-5.947e+14
-5.15528e+14
-3.8872e+14
-8.14598e+14
-6.78636e+14
-5.63753e+14
-4.3448e+14
-3.25716e+14
-9.05337e+14
-7.27359e+14
-5.76834e+14
-4.27173e+14
-3.05144e+14
-8.92862e+14
-7.35906e+14
-6.01876e+14
-4.54052e+14
-2.89229e+14
-9.00697e+14
-7.25907e+14
-5.2103e+14
-3.43066e+14
-2.0285e+14
)
;

boundaryField
{
    inlet
    {
        type            zeroGradient;
    }
    outlet
    {
        type            fixedValue;
        value           nonuniform 0();
    }
    bottom
    {
        type            zeroGradient;
    }
    top
    {
        type            symmetryPlane;
    }
    side1
    {
        type            symmetryPlane;
    }
    side2
    {
        type            symmetryPlane;
    }
    procBoundary62to46
    {
        type            processor;
        value           nonuniform List<scalar> 10(-8.52057e+14 -6.21246e+14 -3.98359e+14 -2.82424e+14 -2.09584e+14 -6.94498e+14 -5.76779e+14 -4.92111e+14 -3.92434e+14 -2.62631e+14);
    }
    procBoundary62to61
    {
        type            processor;
        value           nonuniform List<scalar> 8(-1.15991e+15 -1.22403e+15 -1.30436e+15 -1.19693e+15 -1.00575e+15 -1.13966e+15 -1.11877e+15 -1.08954e+15);
    }
    procBoundary62to63
    {
        type            processor;
        value           nonuniform List<scalar> 8(-2.14784e+14 -2.81381e+14 -2.45581e+14 -2.15135e+14 -2.21552e+14 -1.97001e+14 -1.56329e+14 -9.84085e+13);
    }
    procBoundary62to126
    {
        type            processor;
        value           nonuniform List<scalar> 
20
(
-6.73409e+14
-6.10975e+14
-5.3273e+14
-4.0337e+14
-2.61316e+14
-7.34865e+14
-6.48558e+14
-5.4736e+14
-3.92062e+14
-2.28847e+14
-7.44334e+14
-6.65753e+14
-5.65436e+14
-3.80119e+14
-1.78054e+14
-7.1047e+14
-6.25131e+14
-5.11648e+14
-3.40419e+14
-1.83811e+14
)
;
    }
}


// ************************************************************************* //
