/*--------------------------------*- C++ -*----------------------------------*\
| =========                 |                                                 |
| \\      /  F ield         | OpenFOAM: The Open Source CFD Toolbox           |
|  \\    /   O peration     | Version:  2.4.0                                 |
|   \\  /    A nd           | Web:      www.OpenFOAM.org                      |
|    \\/     M anipulation  |                                                 |
\*---------------------------------------------------------------------------*/
FoamFile
{
    version     2.0;
    format      ascii;
    class       volVectorField;
    location    "0.01";
    object      U;
}
// * * * * * * * * * * * * * * * * * * * * * * * * * * * * * * * * * * * * * //

dimensions      [0 1 -1 0 0 0 0];

internalField   nonuniform List<vector> 
40
(
(-1.29673e+09 4.1432e+08 -2.01776e+08)
(-9.03627e+08 8.86565e+07 -8.25281e+07)
(-7.79982e+08 1.5228e+08 5.97414e+06)
(-6.98625e+08 2.59303e+08 2.60491e+07)
(-6.37335e+08 3.6489e+08 2.83172e+07)
(-6.25303e+08 3.49321e+07 -4.86227e+07)
(-5.49214e+08 -4.63869e+07 -1.36268e+07)
(-5.80466e+08 5.46452e+07 5.25785e+06)
(-6.18662e+08 1.99898e+08 -2.99133e+06)
(-5.66744e+08 1.98207e+08 -3.51536e+07)
(-4.65546e+08 -2.98975e+07 -2.49632e+07)
(-4.57e+08 -4.731e+07 -2.86488e+06)
(-4.1532e+08 2.48154e+07 -8.81627e+06)
(-3.0233e+08 1.03308e+08 -1.9959e+07)
(-2.0561e+08 2.93196e+07 -1.78102e+07)
(-3.27066e+08 -2.79495e+07 -6.05728e+06)
(-3.47095e+08 -1.76566e+07 4.73951e+06)
(-3.65205e+08 -3.08393e+07 -3.01431e+07)
(-3.54666e+08 -1.70461e+06 -6.44104e+07)
(-3.16081e+08 -892750 -5.21536e+07)
(-4.74454e+08 1.52055e+08 -2.70115e+08)
(-4.15897e+08 1.6645e+08 -1.35257e+08)
(-3.2881e+08 7.45236e+07 1.55662e+06)
(-2.87995e+08 3.90572e+07 3.18737e+07)
(-2.1446e+08 3.30686e+07 1.56264e+07)
(-1.70818e+08 3.91189e+07 -6.73023e+07)
(-1.35954e+08 3.42202e+07 -3.29729e+07)
(-1.18569e+08 1.56951e+07 1.0043e+06)
(-1.20896e+08 5.47004e+06 -8.89805e+06)
(-1.27556e+08 -8.17586e+06 -4.13464e+07)
(-2.1246e+08 53101.6 -5.88931e+07)
(-2.08496e+08 158398 -1.8396e+07)
(-1.8645e+08 -1.12631e+07 -1.34642e+07)
(-1.6104e+08 -2.04619e+07 -2.44745e+07)
(-1.4035e+08 -3.49002e+07 -2.77267e+07)
(-1.59769e+08 1.31507e+06 -3.59127e+07)
(-1.54056e+08 -2.48647e+06 -7.16018e+06)
(-1.63382e+08 -1.75225e+07 -3.11188e+07)
(-2.13621e+08 -2.8748e+07 -6.501e+07)
(-2.73035e+08 -3.24245e+07 -5.55386e+07)
)
;

boundaryField
{
    inlet
    {
        type            calculated;
        value           nonuniform 0();
    }
    outlet
    {
        type            calculated;
        value           nonuniform 0();
    }
    bottom
    {
        type            calculated;
        value           uniform (0 0 0);
    }
    top
    {
        type            symmetryPlane;
    }
    side1
    {
        type            symmetryPlane;
    }
    side2
    {
        type            symmetryPlane;
    }
    procBoundary62to46
    {
        type            processor;
        value           nonuniform List<vector> 10((-8.87652e+08 5.02301e+08 -1.11736e+08) (-9.07363e+08 2.64806e+08 -4.16095e+07) (-8.40039e+08 3.69211e+08 6.43649e+07) (-8.08285e+08 3.93787e+08 8.77813e+07) (-8.03206e+08 4.70634e+08 6.60106e+07) (-7.20402e+08 2.571e+08 -2.16289e+08) (-6.31903e+08 4.14597e+08 -8.43805e+07) (-4.90793e+08 2.66932e+08 6.34681e+07) (-3.18028e+08 1.62955e+08 8.34303e+07) (-1.94769e+08 1.28147e+08 5.21139e+07));
    }
    procBoundary62to61
    {
        type            processor;
        value           nonuniform List<vector> 8((-1.45491e+09 2.7068e+08 -1.40223e+08) (-6.68421e+08 1.39172e+08 -2.93931e+07) (-5.37018e+08 1.37373e+07 -3.81827e+07) (-3.09398e+08 -3.66848e+07 -2.09083e+07) (-4.86372e+08 1.81381e+08 -1.93887e+08) (-2.12031e+08 4.16193e+07 -5.32053e+07) (-2.16843e+08 -1.02013e+07 -6.517e+07) (-1.74296e+08 -7.31925e+06 -4.34689e+07));
    }
    procBoundary62to63
    {
        type            processor;
        value           nonuniform List<vector> 8((-5.78475e+08 2.71094e+08 2.2198e+06) (-4.27995e+08 8.39012e+07 -3.50595e+07) (-1.77004e+08 -3.40151e+07 -1.63625e+07) (-3.07246e+08 -1.05045e+07 -5.31462e+07) (-1.72153e+08 8.18373e+06 -1.7592e+07) (-1.37373e+08 -2.04078e+07 -5.20677e+07) (-1.19077e+08 -4.66631e+07 -2.94515e+07) (-3.38623e+08 -3.41319e+07 -5.16885e+07));
    }
    procBoundary62to126
    {
        type            processor;
        value           nonuniform List<vector> 
20
(
(-3.01574e+08 1.6836e+08 -1.59016e+08)
(-2.04173e+08 1.21548e+08 -9.36851e+07)
(-1.42812e+08 3.09816e+07 -4.24889e+07)
(-1.13192e+08 1.22169e+07 -3.63215e+07)
(-8.78585e+07 -2.6752e+06 -2.58783e+07)
(-1.66163e+08 5.20926e+07 -7.2999e+07)
(-1.19365e+08 3.24149e+07 -5.58035e+07)
(-9.51409e+07 7.0955e+06 -2.85623e+07)
(-8.52256e+07 -2.89421e+06 -1.99581e+07)
(-8.07845e+07 -7.82131e+06 -8.46519e+06)
(-1.46578e+08 -1.09202e+07 -1.14559e+08)
(-1.12518e+08 108581 -6.48007e+07)
(-8.4772e+07 -372543 -2.4868e+07)
(-7.63831e+07 -3.57779e+06 -1.4842e+07)
(-8.612e+07 -4.32686e+06 925196)
(-6.84959e+07 -9.74994e+06 -6.10129e+07)
(-6.88288e+07 -7.73271e+06 -4.18681e+07)
(-6.03363e+07 -4.52019e+06 -1.58822e+07)
(-6.02967e+07 -1.88157e+06 -3.63299e+06)
(-6.26421e+07 2.25274e+06 776974)
)
;
    }
}


// ************************************************************************* //
