/*--------------------------------*- C++ -*----------------------------------*\
| =========                 |                                                 |
| \\      /  F ield         | OpenFOAM: The Open Source CFD Toolbox           |
|  \\    /   O peration     | Version:  2.4.0                                 |
|   \\  /    A nd           | Web:      www.OpenFOAM.org                      |
|    \\/     M anipulation  |                                                 |
\*---------------------------------------------------------------------------*/
FoamFile
{
    version     2.0;
    format      ascii;
    class       surfaceScalarField;
    location    "0.04";
    object      phia;
}
// * * * * * * * * * * * * * * * * * * * * * * * * * * * * * * * * * * * * * //

dimensions      [0 3 -1 0 0 0 0];

internalField   nonuniform List<scalar> 
490
(
3.70605e-05
-1.73414e-06
5.30998e-06
3.70624e-05
-1.73413e-06
5.89275e-06
3.70667e-05
-1.75493e-06
5.88701e-06
3.70718e-05
-1.78143e-06
5.88038e-06
3.70774e-05
-1.8136e-06
5.87312e-06
3.60473e-05
-1.8514e-06
5.86515e-06
3.19847e-05
-1.93111e-06
5.55413e-06
2.55583e-05
-2.15471e-06
4.64792e-06
1.94701e-05
-2.60455e-06
3.61448e-06
-2.47661e-06
2.75305e-06
3.70606e-05
-2.00526e-06
5.9242e-06
3.70655e-05
-2.20268e-06
5.92425e-06
3.70767e-05
-1.7617e-05
5.91782e-06
3.70907e-05
-1.78338e-05
5.9097e-06
3.71075e-05
-1.79242e-05
5.89989e-06
3.70226e-05
-1.79861e-05
5.88841e-06
3.64238e-05
-1.87029e-05
5.8569e-06
3.44217e-05
-1.96919e-05
5.75132e-06
2.96173e-05
-2.04604e-05
5.47047e-06
-2.1278e-05
4.87224e-06
3.73022e-05
-1.83072e-05
5.80964e-06
4.23979e-05
-1.85239e-05
5.72479e-06
4.74935e-05
-3.39383e-05
-3.82205e-07
4.75798e-05
-3.41357e-05
-4.67076e-07
4.75943e-05
-3.42026e-05
-4.95893e-07
1.73176e-05
-3.4238e-05
-5.12552e-07
-5.31788e-05
-3.63089e-05
-3.77736e-06
-0.000115466
-3.77578e-05
-8.24366e-06
-0.000147317
-3.83901e-05
-1.0752e-05
-3.86533e-05
-1.18773e-05
4.77188e-05
-5.67127e-07
4.77301e-05
-5.7524e-07
4.7735e-05
-5.81661e-07
4.77349e-05
-5.81662e-07
4.76679e-05
-5.81664e-07
-2.2526e-05
-5.89485e-07
-0.000121845
-8.20042e-06
-0.000159132
-1.15251e-05
-0.000169994
-1.24604e-05
-1.27806e-05
3.47129e-05
-3.5627e-06
4.00152e-06
3.69095e-05
-1.73532e-06
-7.12111e-07
3.68995e-05
-1.75757e-06
-1.13291e-06
3.68888e-05
-1.78643e-06
-1.25765e-06
3.68782e-05
-1.82112e-06
-1.31411e-06
3.596e-05
-1.86148e-06
-1.34643e-06
3.22742e-05
-1.94958e-06
-1.50709e-06
2.62187e-05
-2.18889e-06
-1.94253e-06
1.96684e-05
-2.65257e-06
-1.88398e-06
-1.92691e-06
3.03977e-06
3.70603e-05
-2.03862e-06
4.60966e-06
3.70662e-05
-2.26727e-06
5.78594e-06
3.70788e-05
-1.75546e-05
5.76625e-06
3.70942e-05
-1.78048e-05
5.74258e-06
3.71123e-05
-1.79083e-05
5.71689e-06
3.70289e-05
-1.79778e-05
5.68956e-06
3.64335e-05
-1.86591e-05
5.64285e-06
3.44479e-05
-1.96496e-05
5.52481e-06
2.96958e-05
-2.04404e-05
5.23683e-06
-2.1267e-05
3.73956e-06
3.73341e-05
-1.83359e-05
4.69149e-06
4.23978e-05
-1.85863e-05
5.6354e-06
4.74615e-05
-3.38737e-05
-3.57884e-07
4.75616e-05
-3.41025e-05
-4.54683e-07
4.75796e-05
-3.41802e-05
-4.87654e-07
1.9379e-05
-3.42213e-05
-5.06628e-07
-4.87571e-05
-3.61982e-05
-3.55635e-06
-0.0001117
-3.768e-05
-7.98462e-06
-0.000145137
-3.83491e-05
-1.05937e-05
-3.8632e-05
-1.17704e-05
4.77173e-05
-1.63337e-06
4.77295e-05
-1.29817e-06
4.77349e-05
-5.83087e-07
4.77349e-05
-5.82553e-07
4.76605e-05
-5.8239e-07
-1.97186e-05
-5.90954e-07
-0.000117867
-7.90039e-06
-0.000157508
-1.13969e-05
-0.000169323
-1.24091e-05
-1.27571e-05
1.64642e-05
-7.67958e-06
2.83258e-06
5.54846e-06
-1.91154e-06
-6.72325e-06
4.6048e-06
-1.68418e-06
-7.8607e-06
4.32547e-06
-1.6402e-06
-8.21149e-06
4.20759e-06
-1.63979e-06
-8.36545e-06
4.14926e-06
-1.65687e-06
-8.44707e-06
4.12095e-06
-1.70108e-06
-8.49447e-06
4.6115e-06
-1.81982e-06
-7.07853e-06
9.85578e-06
-1.92967e-06
-2.18264e-06
1.93849e-06
3.08393e-06
3.07473e-05
-6.02656e-06
2.74287e-06
3.63845e-05
-2.32019e-06
5.31297e-06
3.63484e-05
-1.74843e-05
5.27535e-06
3.63008e-05
-1.77679e-05
5.21582e-06
3.62529e-05
-1.78832e-05
5.15103e-06
3.61063e-05
-1.7959e-05
5.08406e-06
3.54704e-05
-1.86079e-05
4.99948e-06
3.34959e-05
-1.95927e-05
4.83484e-06
2.30973e-05
-2.03884e-05
3.71698e-06
-1.83152e-05
2.25373e-06
3.2055e-05
-9.89118e-06
2.86813e-06
4.26344e-05
-1.19103e-05
5.39127e-06
4.74427e-05
-3.37887e-05
-3.37146e-07
4.75526e-05
-3.40563e-05
-4.44397e-07
4.75727e-05
-3.41474e-05
-4.81059e-07
2.12047e-05
-3.41953e-05
-5.02123e-07
-4.46595e-05
-3.60915e-05
-3.35946e-06
-0.000108016
-3.76018e-05
-7.73493e-06
-0.00014268
-3.83069e-05
-1.00456e-05
-3.85468e-05
-5.85268e-06
0.000101091
-3.19414e-06
6.93453e-05
-2.57069e-06
4.78042e-05
-5.88432e-07
4.77832e-05
-5.85822e-07
4.76943e-05
-5.85003e-07
-1.70922e-05
-5.94065e-07
-0.000114099
-7.62164e-06
-0.00015589
-1.12701e-05
-0.000168645
-1.23576e-05
-1.27068e-05
-9.66915e-07
2.50946e-06
1.76804e-06
2.71148e-06
-1.03204e-06
-2.56689e-06
3.40059e-06
-1.34459e-06
-3.34719e-06
3.63957e-06
-1.45758e-06
-3.62614e-06
3.75216e-06
-1.5231e-06
-3.76876e-06
3.81564e-06
-1.57349e-06
-3.85764e-06
5.1058e-06
-1.63497e-06
-3.9198e-06
1.02658e-05
-1.28635e-06
-2.75841e-06
1.42061e-05
2.0525e-06
1.16237e-06
1.96882e-06
3.52088e-07
1.56795e-05
2.07081e-06
1.60912e-06
3.4253e-05
-2.2306e-06
2.94489e-06
3.4491e-05
-1.73652e-05
2.87757e-06
3.44468e-05
-1.76999e-05
2.8004e-06
3.43385e-05
-1.78333e-05
2.72591e-06
3.41169e-05
-1.79176e-05
2.65531e-06
3.32593e-05
-1.85385e-05
2.58046e-06
2.29023e-05
-1.94739e-05
1.6795e-06
1.28387e-05
-1.66309e-05
-3.11145e-07
1.40054e-06
-1.10025e-06
1.92243e-05
-1.66473e-06
1.53343e-06
4.29691e-05
-6.79341e-06
3.0219e-06
4.74401e-05
-3.36663e-05
1.8135e-07
4.75558e-05
-3.39884e-05
3.48288e-08
4.75763e-05
-3.40977e-05
-8.59953e-08
2.28631e-05
-3.41547e-05
-1.92062e-07
-4.08085e-05
-3.59837e-05
-2.4634e-06
-9.96306e-05
-3.75214e-05
-6.39179e-06
-5.53342e-05
-3.69199e-05
-6.85003e-06
-1.87915e-05
-2.25776e-06
0.000132154
-1.44546e-06
8.5836e-05
-2.99194e-06
4.79923e-05
-5.99051e-07
4.79105e-05
-5.92059e-07
4.7793e-05
-5.8977e-07
-1.4586e-05
-5.98867e-07
-0.000110488
-7.35267e-06
-0.000154273
-1.11317e-05
-0.00016753
-1.2092e-05
-8.65768e-06
-3.2366e-05
1.29198e-05
-2.84642e-05
1.13613e-05
-2.53894e-05
1.01318e-05
-2.29023e-05
9.13618e-06
-2.08478e-05
8.31261e-06
-1.91167e-05
7.61928e-06
-9.72566e-06
7.02488e-06
7.9447e-07
2.28793e-06
2.51917e-06
4.92486e-07
7.99752e-08
-2.84589e-05
1.13632e-05
-2.53643e-05
1.01306e-05
-2.2845e-05
8.16576e-06
-2.0747e-05
5.20491e-06
-1.89661e-05
1.71021e-06
-1.74276e-05
-1.66717e-06
-1.02447e-05
-5.97724e-06
-9.65189e-07
-9.27246e-06
1.7086e-06
-1.16066e-07
-3.34556e-07
-2.53697e-05
1.01153e-05
-2.12614e-05
3.51251e-06
-1.41708e-05
-1.36929e-05
-4.57515e-06
-1.62623e-05
5.64756e-06
-1.93983e-05
2.56196e-06
-2.24655e-05
-2.60622e-05
-2.77279e-05
-2.25749e-05
-2.95578e-05
1.4335e-06
-1.84931e-05
-4.89672e-07
4.36029e-05
7.94907e-05
4.83259e-05
4.81411e-05
4.79775e-05
-1.21548e-05
-0.000106987
-0.000148439
-7.71249e-05
)
;

boundaryField
{
    inlet
    {
        type            calculated;
        value           nonuniform 0();
    }
    outlet
    {
        type            calculated;
        value           nonuniform 0();
    }
    bottom
    {
        type            calculated;
        value           uniform 0;
    }
    top
    {
        type            symmetryPlane;
        value           uniform 0;
    }
    side1
    {
        type            symmetryPlane;
        value           nonuniform 0();
    }
    side2
    {
        type            symmetryPlane;
        value           nonuniform 0();
    }
    procBoundary17to9
    {
        type            processor;
        value           nonuniform List<scalar> 
50
(
2.31945e-06
1.73424e-06
1.74294e-06
1.75395e-06
1.76753e-06
2.11432e-06
2.16682e-06
2.36673e-06
2.59934e-06
3.65486e-07
7.85263e-06
1.78208e-06
1.6263e-06
1.59205e-06
1.58444e-06
1.59794e-06
2.25629e-06
2.46681e-06
2.70204e-06
-5.17458e-07
9.3192e-06
1.91086e-06
1.53637e-06
1.43673e-06
1.39655e-06
1.37658e-06
1.36568e-06
1.36079e-06
8.6961e-07
-2.24681e-06
-2.90357e-06
6.60522e-07
1.0713e-06
1.19485e-06
1.24801e-06
1.2758e-06
1.29218e-06
1.44968e-07
-2.20716e-06
-2.20973e-06
-1.49628e-05
-1.2919e-05
-1.13606e-05
-1.0132e-05
-9.1378e-06
-8.316e-06
-7.61722e-06
-1.92763e-06
-1.21089e-06
-1.04248e-06
)
;
    }
    procBoundary17to16
    {
        type            processor;
        value           nonuniform List<scalar> 
20
(
-3.70406e-05
-3.70606e-05
-3.72159e-05
-4.77047e-05
-3.23385e-05
-3.67967e-05
-3.71103e-05
-4.77022e-05
-2.89467e-05
-2.59144e-05
-2.47715e-05
-8.41086e-05
4.42941e-06
3.39915e-06
1.90474e-06
-8.24978e-05
3.74839e-05
3.23659e-05
2.84665e-05
2.50354e-05
)
;
    }
    procBoundary17to18
    {
        type            processor;
        value           nonuniform List<scalar> 
20
(
1.48247e-05
2.06388e-05
-0.000161474
-0.000173888
1.54576e-05
2.02414e-05
-0.000160183
-0.000173555
1.4496e-05
1.32186e-05
-7.78673e-05
-0.000173198
1.40868e-05
1.15791e-05
7.84164e-06
-8.63068e-05
1.98226e-06
1.4879e-06
1.39599e-06
1.09576e-06
)
;
    }
    procBoundary17to25
    {
        type            processor;
        value           nonuniform List<scalar> 
50
(
-3.21871e-05
-3.19024e-05
-3.15086e-05
-3.19223e-05
-3.22537e-05
-3.64644e-05
-3.80702e-05
-3.86547e-05
-3.88168e-05
-3.88722e-05
-2.90056e-05
-3.03359e-05
-3.19195e-05
-3.22308e-05
-3.24945e-05
-3.64535e-05
-3.80138e-05
-3.86314e-05
-3.88075e-05
-3.88679e-05
-5.3804e-06
-8.60263e-06
-1.595e-05
-1.65494e-05
-1.71281e-05
-3.06153e-05
-3.79555e-05
-3.86068e-05
-3.87977e-05
-3.88634e-05
-7.20122e-07
-3.50086e-06
-1.55071e-05
-1.57412e-05
-1.59652e-05
-2.47338e-05
-3.78893e-05
-3.85796e-05
-3.87867e-05
-3.87632e-05
6.64242e-06
5.83051e-07
-1.53147e-05
-1.54833e-05
-1.56141e-05
-2.10245e-05
-3.78078e-05
-3.85477e-05
-3.7799e-05
-1.96211e-05
)
;
    }
}


// ************************************************************************* //
