/*--------------------------------*- C++ -*----------------------------------*\
| =========                 |                                                 |
| \\      /  F ield         | OpenFOAM: The Open Source CFD Toolbox           |
|  \\    /   O peration     | Version:  2.4.0                                 |
|   \\  /    A nd           | Web:      www.OpenFOAM.org                      |
|    \\/     M anipulation  |                                                 |
\*---------------------------------------------------------------------------*/
FoamFile
{
    version     2.0;
    format      ascii;
    class       volVectorField;
    location    "0.04";
    object      Ur;
}
// * * * * * * * * * * * * * * * * * * * * * * * * * * * * * * * * * * * * * //

dimensions      [0 1 -1 0 0 0 0];

internalField   nonuniform List<vector> 
200
(
(26.3406 26.5498 -2.35756)
(23.9153 22.6342 -5.84636)
(23.2645 25.5219 -3.87909)
(24.0245 24.7956 -7.88838)
(26.5965 28.8854 0.908658)
(27.6407 31.9698 -3.66823)
(18.4959 21.0447 2.87721)
(14.1748 19.8324 -5.92638)
(15.6521 23.3474 -4.74217)
(15.7226 18.3352 -10.684)
(23.6882 24.243 -3.411)
(23.6098 25.2095 -2.94723)
(22.6648 22.8075 -6.04024)
(23.0758 25.3096 -0.928036)
(22.4917 25.4844 -4.26996)
(24.8945 26.6522 4.39173)
(14.0897 17.2569 -3.35915)
(12.2997 14.5482 3.48035)
(14.2507 14.7829 -7.64101)
(59.1656 18.6944 1.80238)
(22.3244 25.5925 -2.69861)
(21.9654 23.1304 -3.35277)
(21.6635 24.3381 -0.668385)
(20.5272 23.0438 -3.15692)
(19.679 23.8659 2.55815)
(21.0975 25.6979 -2.56567)
(11.8693 13.0709 5.2747)
(18.9289 12.033 -2.5868)
(53.7943 13.6625 9.20859)
(55.2636 16.1391 -1.22196)
(20.0848 22.3986 -3.30693)
(19.7983 23.1353 -1.55278)
(19.3967 21.0061 -1.85312)
(18.6035 22.6652 1.75216)
(17.1845 21.9864 -1.57657)
(18.5379 24.208 3.59326)
(39.0893 11.5488 3.03718)
(51.8478 10.9538 12.948)
(50.1388 12.3677 2.53832)
(53.7939 22.993 7.26325)
(22.3635 24.8035 -4.3607)
(21.1557 26.6961 -4.8705)
(21.8454 20.0914 -9.77638)
(24.0324 27.4554 -5.06682)
(20.8317 27.4832 -4.83723)
(2.24533 7.09416 0.0898344)
(3.22993 11.4642 -6.15135)
(4.09354 9.0619 0.674921)
(5.02305 12.0829 -12.4292)
(6.51788 12.1354 -10.0362)
(20.161 24.8887 -3.13421)
(19.6405 22.6736 -4.30061)
(18.3507 25.0604 -3.79075)
(17.7251 21.2515 -6.21031)
(16.5287 22.9005 -2.35893)
(1.53175 7.16692 -4.54948)
(2.29178 6.1603 2.54522)
(2.72866 8.60483 -6.64146)
(5.02322 7.96056 -1.96849)
(48.0584 8.78813 -7.18062)
(18.3756 21.8115 -3.05167)
(17.2049 22.8712 -2.93887)
(16.0713 20.1458 -3.86263)
(14.4077 21.9596 -1.63542)
(11.3425 16.5453 -5.79488)
(1.05822 5.582 -2.95417)
(0.806771 5.34733 -6.50632)
(8.9214 4.95153 1.47558)
(44.9261 3.6468 -2.98)
(46.4346 6.53645 -0.0504536)
(-5.39565 0.989684 -6.77172)
(13.6547 17.2441 -2.7596)
(14.9321 18.6374 0.283951)
(11.8753 15.0133 -1.12565)
(10.0104 15.5927 -0.00766614)
(8.78571 3.08551 -5.62055)
(26.1384 5.70726 -2.39414)
(44.4715 7.20941 -7.43956)
(48.4743 11.0922 -9.54918)
(45.8531 12.9493 -17.6004)
(-4.9674 4.37264 -2.25216)
(-0.91119 4.1013 -4.23028)
(-16.5227 -33.5635 -34.3836)
(-0.774797 6.01303 2.9956)
(-0.581731 12.0914 1.64569)
(-1.4624 10.9528 1.00411)
(-2.92517 8.9069 5.89269)
(-4.7053 11.2512 -2.5465)
(-6.94172 2.27151 5.65666)
(-7.23935 2.56429 -2.97062)
(0.481912 4.31394 -1.9245)
(-1.93691 0.995526 -6.92251)
(1.92289 5.24428 -3.87145)
(-12.4521 -20.7794 -18.0004)
(-3.26189 0.921913 4.35578)
(-2.44902 6.1423 3.68271)
(-2.38519 6.43014 1.76717)
(-2.87201 5.22021 10.1232)
(-6.45222 4.41744 0.636792)
(-8.59346 -5.16025 11.4364)
(-0.574962 1.91736 0.0792253)
(1.09333 0.768429 -0.748943)
(0.226586 -1.46778 -0.224532)
(0.637174 -0.0564467 1.35641)
(-7.06835 -5.75406 3.60885)
(-2.68493 -3.45673 0.620574)
(-1.75728 -1.20524 5.24277)
(-4.16255 -0.415162 1.93512)
(-2.62216 -6.20179 13.1036)
(-7.33331 -26.4273 15.8782)
(-5.31664 -4.10249 -4.64035)
(-2.12472 -3.77292 1.48208)
(3.06591 -2.95183 -0.756426)
(3.34636 -6.73724 12.3313)
(-0.648384 -4.34305 1.40026)
(-1.92038 -2.37169 4.67661)
(-8.93819 -2.24507 -8.89507)
(-11.1531 -2.77367 -11.322)
(-7.78227 -2.21728 -21.94)
(-17.2819 -4.53955 -23.5802)
(-9.62039 7.99796 9.68008)
(-7.61436 6.25609 7.41857)
(-5.14395 10.1655 18.0769)
(15.4755 17.3699 8.41294)
(18.3035 13.7239 -0.136604)
(40.3809 26.265 19.8324)
(17.4543 17.1958 14.2308)
(34.0645 30.1478 35.868)
(17.4082 23.821 13.6712)
(11.0534 0.523177 34.3987)
(-4.81255 6.41271 11.2945)
(-2.7561 3.82536 12.3992)
(-4.69752 -10.5742 13.1245)
(14.2005 -5.01368 0.764338)
(15.3861 5.77421 16.604)
(18.853 8.41867 5.53873)
(23.6231 12.2857 26.8346)
(21.854 13.9827 20.519)
(37.9977 0.951837 50.9136)
(34.0946 -5.05671 42.0723)
(-2.60012 2.25757 12.3926)
(1.54376 -2.23578 22.5294)
(6.36726 2.31792 7.26444)
(10.2121 -3.64964 11.016)
(12.156 -1.48186 3.76148)
(16.0437 -2.14582 19.0842)
(12.3246 0.0389532 14.525)
(23.1506 -12.616 42.9835)
(19.0079 -27.4213 44.5888)
(20.8158 -30.0816 74.771)
(-2.61569 -10.4996 5.73323)
(-2.25763 -4.65273 7.94576)
(-1.95269 -5.76907 20.3445)
(5.48048 -2.69278 -1.63236)
(4.96934 -2.13041 6.70673)
(-1.7379 2.99247 -1.74687)
(-11.1529 8.65787 7.74845)
(-17.8353 -14.7887 25.5316)
(-69.3952 -87.2131 112.936)
(-169.66 -114.727 195.01)
(-24.9007 9.90846 5.53235)
(-17.5968 27.2134 4.44332)
(-4.53372 27.3447 8.69319)
(20.7261 29.0244 -2.47049)
(38.8466 28.798 9.01179)
(36.4014 31.1103 4.49413)
(50.2972 40.1937 22.8987)
(57.4957 48.6642 16.7083)
(75.5832 39.7992 34.9506)
(91.346 55.4645 43.4993)
(-14.6819 2.37247 6.7603)
(-8.41428 7.04406 12.2593)
(-5.62961 16.8893 2.17708)
(26.8527 19.3179 7.69233)
(32.8663 22.3678 0.79422)
(44.7607 28.1978 16.7059)
(47.7458 31.1792 10.902)
(66.1797 24.3324 29.9902)
(79.1065 36.9342 36.5092)
(121.051 57.4219 66.9991)
(-12.3106 3.00748 10.9664)
(-10.0762 6.97134 2.69777)
(-3.62896 8.45692 12.987)
(23.9491 5.99146 -0.426914)
(33.3009 4.65824 10.8224)
(40.1279 5.16182 8.00382)
(60.5876 7.7764 29.669)
(119.379 35.6568 57.1243)
(155.284 15.0026 93.9678)
(127.954 -11.5947 209.329)
(0.88 -2.12765 -8.64062)
(-10.9367 0.7382 11.7866)
(-2.54354 1.84211 2.83659)
(19.6168 -2.80364 7.24776)
(23.4497 -2.2653 1.65375)
(32.3645 -12.4788 15.4457)
(89.7407 -41.8668 30.0779)
(93.0682 -85.403 116.866)
(50.0448 -3.90555 323.653)
(215.931 464.512 456.549)
)
;

boundaryField
{
    inlet
    {
        type            calculated;
        value           nonuniform 0();
    }
    outlet
    {
        type            calculated;
        value           nonuniform 0();
    }
    bottom
    {
        type            calculated;
        value           uniform (0 0 0);
    }
    top
    {
        type            symmetryPlane;
    }
    side1
    {
        type            symmetryPlane;
    }
    side2
    {
        type            symmetryPlane;
    }
    procBoundary17to9
    {
        type            processor;
        value           nonuniform List<vector> 
50
(
(26.9002 25.9713 -2.59114)
(21.9968 16.4168 0.415817)
(24.5716 21.6139 -9.71412)
(29.4633 33.3606 -1.94135)
(29.5173 35.0351 -3.70393)
(31.6089 34.7832 0.335148)
(32.8737 37.8775 -4.64134)
(34.5121 38.9171 -2.36495)
(35.4319 41.1537 -11.0616)
(43.0769 47.7139 -11.4162)
(23.3522 24.8266 -3.3623)
(24.4667 24.9893 -7.18614)
(27.2524 29.7861 -7.57086)
(26.0327 30.8957 -3.93121)
(26.3027 31.2107 -2.56313)
(27.6732 37.0459 -7.1935)
(3.05192 11.9261 0.603489)
(4.13583 16.5356 -10.1189)
(3.00018 11.8254 -7.47503)
(10.9128 15.6391 -16.6211)
(-13.9122 1.4811 9.32479)
(-19.2344 -6.83325 -0.836624)
(-8.32918 12.9352 9.16389)
(19.5095 28.9035 -0.353351)
(14.6309 27.0581 -1.34401)
(-3.80988 10.5501 1.5619)
(-1.6522 18.2648 -5.06413)
(-6.00097 9.89361 7.26155)
(4.85242 27.2635 -7.27696)
(-9.1676 4.872 -7.09652)
(-12.266 6.36244 8.37682)
(-9.26085 20.1272 8.36336)
(-2.01462 22.4836 6.62992)
(12.3906 35.7469 4.26654)
(13.4001 25.8369 10.2364)
(10.2652 17.8047 12.6744)
(8.40446 20.1815 11.0929)
(1.72711 17.4242 3.62787)
(-7.75305 4.01552 11.1211)
(-16.0241 -1.98598 25.6508)
(-32.1125 46.5954 -0.656259)
(-23.0212 22.4473 1.91213)
(1.58603 53.9697 -4.23364)
(4.49369 22.2787 6.80486)
(30.924 29.2581 -0.561285)
(55.0161 37.9114 9.64788)
(43.5383 32.5043 4.68901)
(52.7623 43.6163 20.6835)
(44.9607 34.4303 15.8374)
(38.4048 15.1579 16.2026)
)
;
    }
    procBoundary17to16
    {
        type            processor;
        value           nonuniform List<vector> 
20
(
(25.8829 25.8779 -1.26566)
(24.6056 26.5359 -2.74013)
(22.5744 25.4688 -3.22292)
(-6.56315 -5.5901 -7.57771)
(23.6283 25.9134 -3.36597)
(21.4877 24.1618 -2.53994)
(-5.26096 1.97563 -5.68941)
(-5.73643 -2.68345 -5.68603)
(-3.20295 5.85375 0.227614)
(-2.10189 5.02069 -1.68664)
(-6.96964 -1.7402 -4.28008)
(-5.10898 -2.61351 -4.45328)
(-9.31989 8.02385 9.91224)
(-6.4553 11.6362 16.6137)
(-0.106418 -3.08 8.11536)
(-1.9481 -8.91052 -6.25726)
(-33.1519 4.51055 5.23045)
(-14.4002 8.65324 9.5465)
(0.611817 -0.0054003 -5.16793)
(0.138499 -3.1165 -1.16608)
)
;
    }
    procBoundary17to18
    {
        type            processor;
        value           nonuniform List<vector> 
20
(
(63.7244 19.4517 -3.97473)
(62.3738 12.5964 -4.3793)
(58.2383 19.9808 1.20342)
(49.9883 27.9241 6.8302)
(48.0802 9.61712 -10.6676)
(49.6521 9.72068 -6.97225)
(42.0675 3.92933 -16.2661)
(37.5636 16.9519 -13.1615)
(-10.4062 -2.5124 -8.77656)
(-1.60549 -33.0098 -0.236908)
(8.01338 -12.466 19.5628)
(-27.7356 -33.694 -3.6207)
(4.83094 -32.1541 47.7493)
(30.3174 -28.523 66.3776)
(-18.8667 -87.3065 104.172)
(-164.13 -29.8729 168.51)
(109.602 68.5965 62.8931)
(116.344 48.8969 95.9484)
(169.518 182.883 253.882)
(221.89 147.738 73.2708)
)
;
    }
    procBoundary17to25
    {
        type            processor;
        value           nonuniform List<vector> 
50
(
(-3.65725 -2.25105 -8.26302)
(17.8792 18.4923 -2.64526)
(18.2837 20.3908 0.111928)
(17.1615 18.0721 -0.222953)
(16.6521 20.9874 2.94162)
(17.9589 23.0255 -1.05979)
(36.9045 14.1955 10.0671)
(36.8926 15.1656 2.3517)
(47.337 25.4548 7.01985)
(30.7106 26.6502 14.7112)
(-5.17781 -3.11924 -7.96023)
(-4.87443 -0.399904 -7.84888)
(6.35994 8.76034 -4.49241)
(12.8348 15.005 -0.49833)
(11.0784 10.4843 -2.72305)
(17.8822 9.11465 -0.814664)
(23.2228 10.428 -10.5774)
(30.5362 18.2144 -11.3896)
(38.9146 14.2393 -14.6226)
(48.2485 25.5142 21.8387)
(-5.63936 -5.83833 -5.331)
(-4.85293 -5.50043 -7.36453)
(-4.30275 -5.38483 -1.02939)
(1.64459 1.23421 -8.40791)
(2.06862 1.39837 -2.05016)
(-7.82624 -0.430596 -12.2087)
(7.31212 16.8013 1.76623)
(-22.1648 10.2549 -15.1352)
(-35.0107 -1.6118 -117.425)
(-65.4117 -25.0885 62.2327)
(-5.78013 -7.83606 -10.1481)
(-7.13425 -8.19883 -1.26389)
(-8.63828 -4.12192 -7.6273)
(-1.46314 -0.604945 -10.2987)
(-3.00623 1.54695 -23.5505)
(9.38848 0.0766447 -21.7811)
(5.97815 -21.0184 -3.06326)
(-48.7073 -55.0619 82.1203)
(-120.61 -35.4465 250.623)
(-86.4943 24.7953 190.34)
(-3.744 -4.94051 -1.04603)
(-3.50702 -5.0958 -9.84822)
(-0.651769 -7.23146 4.24749)
(10.7535 -10.9719 -5.60801)
(15.3113 -26.4135 2.95177)
(41.7105 -83.7626 19.8477)
(33.6095 -190.267 270.412)
(52.1501 119.143 570.223)
(191.795 343.797 359.599)
(274.169 150.982 -47.9436)
)
;
    }
}


// ************************************************************************* //
