/*--------------------------------*- C++ -*----------------------------------*\
| =========                 |                                                 |
| \\      /  F ield         | OpenFOAM: The Open Source CFD Toolbox           |
|  \\    /   O peration     | Version:  2.4.0                                 |
|   \\  /    A nd           | Web:      www.OpenFOAM.org                      |
|    \\/     M anipulation  |                                                 |
\*---------------------------------------------------------------------------*/
FoamFile
{
    version     2.0;
    format      ascii;
    class       volVectorField;
    location    "0.12";
    object      Ub;
}
// * * * * * * * * * * * * * * * * * * * * * * * * * * * * * * * * * * * * * //

dimensions      [0 1 -1 0 0 0 0];

internalField   nonuniform List<vector> 
200
(
(-8.00483e+09 6.57127e+09 4.75028e+08)
(-8.44536e+09 7.20031e+09 1.72999e+08)
(-9.37643e+09 9.11856e+09 -8.78254e+08)
(-1.0174e+10 1.03207e+10 3.76558e+08)
(-1.1561e+10 1.01275e+10 -7.05783e+08)
(-1.28547e+10 8.6035e+09 -1.06356e+08)
(-1.44152e+10 8.84263e+09 -7.57126e+08)
(-1.44213e+10 1.94284e+10 2.42645e+09)
(-1.70523e+10 3.39014e+10 8.29011e+08)
(-1.21449e+10 2.23937e+10 -2.50856e+09)
(-6.21034e+09 7.12956e+09 3.61193e+08)
(-6.87761e+09 7.86271e+09 -3.94512e+07)
(-6.98216e+09 1.05494e+10 7.42554e+08)
(-9.7648e+09 1.17862e+10 -1.50044e+09)
(-8.49389e+09 1.2936e+10 9.62554e+08)
(-9.95388e+09 1.21676e+10 -8.59776e+08)
(-1.21325e+10 1.33647e+10 6.48298e+08)
(-1.23607e+10 1.70356e+10 -1.38214e+08)
(-1.13742e+10 2.35642e+10 3.06509e+09)
(-1.82078e+10 3.32746e+10 -1.18353e+09)
(-4.12118e+09 7.47329e+09 -7.61503e+08)
(-3.81109e+09 8.79023e+09 3.13344e+08)
(-4.07367e+09 1.11577e+10 2.90222e+08)
(-4.79693e+09 1.47865e+10 8.69989e+08)
(-6.38546e+09 1.22933e+10 -8.5405e+08)
(-7.27576e+09 1.66748e+10 1.19014e+09)
(-1.05844e+10 1.75982e+10 -6.44564e+08)
(-1.50265e+10 2.32328e+10 1.17988e+09)
(-1.86479e+10 2.73117e+10 1.4335e+09)
(-2.26159e+10 3.91301e+10 6.07959e+09)
(-2.94197e+09 9.03281e+09 5.63823e+08)
(-6.59518e+09 8.81947e+09 -1.15443e+09)
(-4.82471e+09 1.31226e+10 9.29063e+08)
(-9.14575e+09 1.87896e+10 1.94521e+09)
(-1.41423e+10 1.91309e+10 3.60007e+09)
(-1.99824e+10 1.81104e+10 9.93967e+08)
(-2.22344e+10 2.58901e+10 5.39691e+09)
(-2.56242e+10 2.97933e+10 -5.36391e+07)
(-2.49409e+10 3.26102e+10 5.01449e+09)
(-2.16166e+10 3.9853e+10 3.93665e+09)
(-7.74618e+09 7.59751e+09 9.18286e+08)
(-8.66561e+09 8.6052e+09 1.15134e+08)
(-8.91712e+09 9.14696e+09 6.82771e+08)
(-1.07732e+10 1.04636e+10 -4.26898e+08)
(-1.19233e+10 9.30276e+09 1.77862e+09)
(-1.1734e+10 1.16005e+10 -1.70183e+09)
(-1.30641e+10 1.26204e+10 7.72786e+08)
(-1.39973e+10 1.30023e+10 9.67509e+08)
(-1.40218e+10 1.31607e+10 -2.05568e+08)
(-1.91948e+10 1.72491e+10 -2.96848e+09)
(-7.16092e+09 7.6298e+09 -8.0913e+08)
(-6.29005e+09 8.54359e+09 9.17373e+08)
(-6.62657e+09 1.00478e+10 5.85781e+08)
(-6.82094e+09 1.11875e+10 9.75973e+08)
(-7.96969e+09 1.12024e+10 -6.90059e+08)
(-9.48142e+09 1.10137e+10 2.02111e+09)
(-8.83243e+09 1.39896e+10 -2.36166e+09)
(-1.02511e+10 1.4195e+10 1.12501e+09)
(-1.07377e+10 1.73667e+10 1.54755e+09)
(-1.25483e+10 2.14866e+10 -2.1703e+09)
(-3.66781e+09 8.388e+09 5.05041e+08)
(-4.41623e+09 8.08274e+09 -8.91761e+08)
(-3.55437e+09 9.51059e+09 6.30104e+08)
(-3.72358e+09 1.30109e+10 1.00266e+09)
(-4.70293e+09 1.22342e+10 1.10333e+09)
(-6.47707e+09 1.3332e+10 -1.91145e+08)
(-7.78045e+09 1.42524e+10 1.98858e+09)
(-8.75514e+09 1.6411e+10 -1.86094e+09)
(-1.13658e+10 2.19551e+10 2.07276e+09)
(-1.461e+10 2.78608e+10 3.21861e+09)
(-3.23213e+09 9.17692e+09 -7.65317e+08)
(-1.51213e+09 8.15817e+09 6.6041e+08)
(-2.35347e+09 1.0355e+10 -3.46086e+08)
(-2.01916e+09 1.54879e+10 6.33901e+08)
(-8.15037e+09 1.79597e+10 4.17447e+09)
(-1.04221e+10 1.47287e+10 4.6269e+09)
(-1.50293e+10 2.11849e+10 4.44732e+09)
(-1.66331e+10 1.73271e+10 6.33276e+09)
(-2.24161e+10 2.98462e+10 4.7296e+09)
(-2.5315e+10 3.38455e+10 8.91988e+09)
(-7.83515e+09 7.66602e+09 8.54127e+07)
(-7.54845e+09 8.24134e+09 1.10204e+09)
(-8.15137e+09 9.89948e+09 1.3627e+09)
(-9.79554e+09 1.07809e+10 3.91292e+09)
(-1.09388e+10 1.40101e+10 -1.67419e+09)
(-1.2168e+10 1.22376e+10 1.75725e+09)
(-1.38383e+10 1.3607e+10 3.56177e+09)
(-1.65056e+10 1.08313e+10 2.08783e+09)
(-1.82338e+10 1.39686e+10 2.82225e+09)
(-1.98447e+10 1.21312e+10 -2.33313e+09)
(-5.10435e+09 8.59993e+09 8.57167e+08)
(-6.2528e+09 8.5009e+09 9.28835e+07)
(-5.82073e+09 9.87016e+09 1.71055e+09)
(-6.38257e+09 1.26375e+10 2.85822e+09)
(-1.21415e+10 1.51512e+10 7.26751e+09)
(-9.43699e+09 1.48019e+10 -2.35039e+09)
(-1.14167e+10 1.46375e+10 1.78177e+09)
(-1.18327e+10 1.54918e+10 3.34895e+09)
(-1.35644e+10 1.29165e+10 -8.70502e+08)
(-1.38696e+10 1.69077e+10 1.88434e+09)
(-2.93869e+09 9.06298e+09 -6.48965e+08)
(-2.63336e+09 9.02325e+09 1.26073e+09)
(-3.55164e+09 1.00267e+10 -9.89009e+07)
(-2.93124e+09 1.18223e+10 9.22825e+08)
(-2.97078e+09 1.79716e+10 2.21804e+09)
(-5.48215e+09 1.47928e+10 3.71032e+09)
(-6.482e+09 1.63956e+10 -4.64538e+09)
(-8.32424e+09 1.52962e+10 1.06348e+09)
(-9.4269e+09 2.10363e+10 2.0821e+09)
(-1.22148e+10 1.59394e+10 -9.74936e+08)
(-3.04324e+08 1.07818e+10 -4.92525e+07)
(-1.18335e+09 9.58528e+09 -9.95488e+08)
(-9.79124e+08 9.58549e+09 2.23415e+08)
(-1.2493e+09 1.27436e+10 -7.1284e+08)
(-1.47876e+09 1.91252e+10 -2.24826e+08)
(-7.45517e+09 2.52261e+10 3.37617e+09)
(-1.19312e+10 1.94185e+10 8.02684e+09)
(-9.34787e+09 1.77604e+10 6.74489e+08)
(-1.76484e+10 2.50218e+10 6.32799e+09)
(-1.09928e+10 2.15438e+10 4.6467e+09)
(-5.73396e+09 9.27488e+09 -3.66464e+08)
(-6.47951e+09 1.00517e+10 -2.16435e+07)
(-8.67479e+09 1.0629e+10 3.22005e+09)
(-1.03888e+10 1.20528e+10 1.2496e+09)
(-1.13348e+10 1.05798e+10 2.97652e+09)
(-1.2826e+10 1.37076e+10 1.68083e+09)
(-1.38368e+10 1.27554e+10 1.59081e+09)
(-1.38401e+10 1.22422e+10 5.56188e+09)
(-1.68815e+10 8.48214e+09 -3.25816e+08)
(-1.88909e+10 1.30044e+10 3.41568e+09)
(-4.82871e+09 1.16464e+10 -7.53478e+08)
(-6.50353e+09 1.49831e+10 -7.15335e+08)
(-9.52613e+09 1.86664e+10 2.91118e+09)
(-1.32613e+10 1.47496e+10 8.44649e+09)
(-9.52305e+09 1.32706e+10 1.58161e+09)
(-1.06301e+10 1.34402e+10 2.31113e+09)
(-1.14599e+10 1.6585e+10 1.39403e+09)
(-1.32434e+10 1.32427e+10 -2.87751e+08)
(-1.47099e+10 1.64665e+10 3.01434e+09)
(-1.61054e+10 1.32249e+10 -8.78036e+08)
(3.13542e+08 1.11094e+10 6.51203e+08)
(-1.03873e+10 1.86134e+10 -1.29205e+09)
(-5.88178e+09 1.76277e+10 1.63099e+09)
(-5.6841e+09 1.77472e+10 3.12643e+09)
(-7.66593e+09 1.2984e+10 5.19905e+09)
(-5.30451e+09 1.5217e+10 2.07972e+09)
(-9.36063e+09 2.02343e+10 1.45156e+09)
(-1.03346e+10 1.79173e+10 1.00282e+09)
(-1.17256e+10 1.67799e+10 -1.91115e+09)
(-1.26118e+10 2.08575e+10 4.34283e+08)
(2.84246e+09 1.16477e+10 1.35377e+09)
(-3.50324e+09 3.50601e+10 7.09034e+09)
(7.96242e+07 1.44758e+10 1.08842e+09)
(-6.13164e+08 1.45224e+10 8.19144e+08)
(-5.98857e+08 1.55438e+10 2.21989e+09)
(-2.33694e+09 1.7042e+10 3.92637e+09)
(-6.08698e+09 2.51078e+10 4.17285e+09)
(-5.36954e+09 1.92631e+10 1.46126e+09)
(-6.28585e+09 2.17757e+10 1.83581e+09)
(-8.98808e+09 2.5963e+10 -8.75752e+08)
(-6.32001e+09 8.48589e+09 -1.0023e+09)
(-5.94934e+09 1.01604e+10 -5.80248e+08)
(-6.12314e+09 1.24723e+10 5.2521e+08)
(-9.19354e+09 1.03682e+10 3.4213e+09)
(-1.22701e+10 8.96702e+09 1.54278e+09)
(-9.31626e+09 1.11238e+10 1.34897e+09)
(-1.32646e+10 1.33972e+10 -3.57691e+08)
(-1.48967e+10 6.84462e+09 -2.95106e+09)
(-1.65977e+10 1.5373e+10 2.80199e+09)
(-2.10098e+10 8.73943e+09 -2.197e+09)
(-2.72751e+09 8.5715e+09 2.60233e+08)
(-4.28532e+09 1.17613e+10 -3.37046e+08)
(-4.88705e+09 1.44701e+10 -2.31239e+08)
(-5.25489e+09 1.52499e+10 1.19595e+08)
(-6.84601e+09 1.27787e+10 1.30233e+09)
(-6.81241e+09 1.45994e+10 1.55448e+09)
(-8.94864e+09 1.82131e+10 2.59025e+09)
(-1.14905e+10 1.73722e+10 1.94285e+09)
(-1.66547e+10 2.32972e+10 -1.24868e+09)
(-2.00804e+10 1.70999e+10 1.14718e+09)
(-1.66407e+09 1.05272e+10 8.3115e+08)
(-3.04645e+09 1.32815e+10 2.23331e+09)
(-6.26419e+09 1.87017e+10 2.94238e+08)
(-5.62648e+09 1.47435e+10 4.22355e+08)
(-5.25486e+09 1.49998e+10 8.26998e+08)
(-7.56581e+09 1.54691e+10 1.11831e+09)
(-8.16879e+09 2.23956e+10 8.25955e+08)
(-1.12425e+10 2.23828e+10 1.68645e+08)
(-1.15272e+10 2.8833e+10 3.69337e+08)
(-1.22674e+10 1.90125e+10 -1.28783e+09)
(-4.04991e+09 1.14839e+10 2.13031e+09)
(-6.71052e+09 2.1109e+10 5.56157e+09)
(-3.06569e+09 2.26955e+10 3.63809e+08)
(-1.44056e+09 1.63138e+10 7.67867e+08)
(-5.57384e+08 1.66729e+10 1.0055e+09)
(-8.73033e+09 2.55732e+10 3.74608e+09)
(-7.2264e+09 1.9835e+10 1.32648e+09)
(-5.52788e+09 2.7141e+10 5.01518e+08)
(-4.72612e+09 2.6191e+10 -4.29988e+08)
(-4.33887e+09 2.19001e+10 1.04549e+09)
)
;

boundaryField
{
    inlet
    {
        type            fixedValue;
        value           nonuniform 0();
    }
    outlet
    {
        type            zeroGradient;
    }
    bottom
    {
        type            fixedValue;
        value           uniform (0 0 0);
    }
    top
    {
        type            symmetryPlane;
    }
    side1
    {
        type            symmetryPlane;
    }
    side2
    {
        type            symmetryPlane;
    }
    procBoundary10to2
    {
        type            processor;
        value           nonuniform List<vector> 
50
(
(-9.92886e+09 6.1717e+09 -2.69473e+08)
(-1.01349e+10 6.28798e+09 -8.61719e+08)
(-1.0849e+10 6.76997e+09 -5.5333e+07)
(-1.18279e+10 7.28571e+09 -6.87661e+08)
(-1.32377e+10 7.26097e+09 1.38709e+08)
(-1.50677e+10 5.79474e+09 -9.43787e+08)
(-1.33456e+10 1.08097e+10 6.58599e+08)
(-1.64547e+10 1.29717e+10 -4.43239e+06)
(-1.96351e+10 2.11634e+10 1.01552e+09)
(-2.72506e+10 2.66606e+10 1.60515e+08)
(-9.15656e+09 6.79198e+09 4.24697e+07)
(-9.39731e+09 7.69618e+09 1.31344e+08)
(-1.0943e+10 8.13938e+09 -3.69807e+08)
(-1.32803e+10 7.16441e+09 1.18599e+09)
(-1.42614e+10 8.6784e+09 -8.94565e+08)
(-1.52184e+10 9.17719e+09 -2.97432e+08)
(-1.89937e+10 1.05223e+10 7.53176e+08)
(-1.80806e+10 1.46143e+10 1.78394e+09)
(-1.83636e+10 1.29083e+10 -2.04769e+08)
(-1.66925e+10 1.34447e+10 -3.24012e+09)
(-8.7227e+09 6.86112e+09 8.36558e+08)
(-9.80453e+09 7.9348e+09 1.16898e+09)
(-1.15366e+10 7.93052e+09 3.014e+09)
(-1.2403e+10 1.12957e+10 -4.33235e+08)
(-1.34966e+10 1.18936e+10 1.25573e+09)
(-1.37567e+10 1.36063e+10 2.17548e+09)
(-1.34785e+10 1.30903e+10 2.80234e+09)
(-1.48364e+10 9.62449e+09 2.0132e+09)
(-1.67595e+10 7.27684e+09 -2.32681e+09)
(-2.074e+10 1.18903e+10 -1.57199e+09)
(-9.10182e+09 7.20369e+09 -5.69501e+08)
(-1.00036e+10 6.35381e+09 2.90804e+09)
(-1.0173e+10 8.07065e+09 8.93543e+08)
(-1.13792e+10 8.34283e+09 2.98111e+09)
(-1.18249e+10 1.16486e+10 1.57612e+09)
(-1.17437e+10 1.20736e+10 2.60663e+09)
(-1.23577e+10 1.04825e+10 4.56454e+09)
(-1.27625e+10 -2.77028e+09 -3.62537e+09)
(-1.78146e+10 9.98308e+09 3.75448e+09)
(-1.99597e+10 1.85276e+09 -3.51695e+09)
(-1.32614e+10 9.56371e+09 3.16284e+08)
(-1.12459e+10 1.1332e+10 2.62769e+09)
(-1.19247e+10 8.1052e+09 5.23954e+09)
(-1.57116e+10 3.14313e+09 3.27482e+08)
(-1.2656e+10 6.93038e+09 -1.22659e+09)
(-1.64599e+10 8.47243e+09 -2.62867e+09)
(-2.19951e+10 7.87607e+09 -2.31101e+09)
(-1.48434e+10 1.09228e+10 4.80061e+09)
(-1.89714e+10 3.43128e+09 -2.76063e+09)
(-2.11458e+10 8.94614e+09 3.03548e+09)
)
;
    }
    procBoundary10to9
    {
        type            processor;
        value           nonuniform List<vector> 
20
(
(-7.65725e+09 7.19365e+09 3.35653e+08)
(-7.40293e+09 7.87013e+09 -4.2769e+08)
(-2.88581e+09 9.95979e+09 6.61358e+08)
(-3.25718e+09 1.00539e+10 -1.50049e+07)
(-8.04073e+09 5.95344e+09 -7.60675e+07)
(-5.77634e+09 7.98741e+09 7.50302e+08)
(-3.53484e+09 8.61856e+09 -8.7727e+08)
(6.88106e+08 1.27803e+10 9.17441e+08)
(-7.36981e+09 6.91309e+09 4.05022e+08)
(-6.04659e+09 8.12142e+09 8.72508e+07)
(-1.7967e+09 9.48576e+09 -1.76818e+08)
(1.09927e+09 8.91956e+09 -7.43119e+08)
(-6.19005e+09 7.24116e+09 -6.43041e+08)
(-3.58435e+09 7.20444e+09 -3.80803e+08)
(-1.65525e+09 1.4028e+10 -1.9741e+09)
(7.74568e+08 1.00794e+10 -8.09506e+07)
(-5.36053e+09 8.06359e+09 -1.10564e+08)
(-3.05453e+09 8.9084e+09 -3.16363e+08)
(-2.24984e+09 7.40582e+09 6.00102e+08)
(-1.2366e+09 1.26186e+10 -1.94925e+09)
)
;
    }
    procBoundary10to11
    {
        type            processor;
        value           nonuniform List<vector> 
20
(
(-1.57209e+10 2.08938e+10 -5.138e+08)
(-1.40087e+10 1.96846e+10 -4.98413e+09)
(-3.69348e+10 4.52354e+10 -3.43747e+09)
(-1.67179e+10 4.34497e+10 4.196e+09)
(-1.71076e+10 2.10922e+10 -5.4601e+09)
(-1.66225e+10 2.45297e+10 -4.51478e+09)
(-1.88841e+10 2.94818e+10 -1.49794e+09)
(-2.39675e+10 3.57268e+10 6.49007e+09)
(-2.21942e+10 1.79138e+10 -1.95001e+09)
(-1.52448e+10 1.54229e+10 -2.92056e+09)
(-1.25949e+10 2.01956e+10 1.71107e+09)
(-1.4604e+10 2.11103e+10 9.18518e+08)
(-2.16358e+10 1.14495e+10 -2.11545e+09)
(-1.89271e+10 2.18973e+10 8.837e+08)
(-1.6276e+10 2.88935e+10 -1.76726e+09)
(-1.37368e+10 3.62048e+10 -3.94207e+08)
(-2.35109e+10 1.41234e+10 1.97682e+09)
(-2.22616e+10 1.61368e+10 -1.76315e+09)
(-1.3739e+10 1.88733e+10 -2.15601e+08)
(-5.14151e+09 2.01328e+10 1.28034e+08)
)
;
    }
    procBoundary10to18
    {
        type            processor;
        value           nonuniform List<vector> 
50
(
(-3.02481e+09 1.28758e+10 -2.28167e+09)
(-6.95834e+08 1.05645e+10 4.16989e+08)
(-3.55351e+09 1.00708e+10 -1.78939e+09)
(-1.22349e+10 2.59572e+10 5.76568e+09)
(-9.53927e+09 2.10245e+10 3.96486e+09)
(-1.0324e+10 2.14899e+10 3.98409e+09)
(-7.99162e+09 2.06516e+10 1.91759e+09)
(-5.66562e+09 2.43798e+10 2.13626e+09)
(-1.87797e+09 2.27365e+10 1.49024e+09)
(3.30332e+08 2.66706e+10 5.02953e+08)
(4.86158e+08 5.50319e+09 3.34558e+08)
(1.03575e+09 9.59925e+09 -2.50248e+08)
(4.57828e+09 1.06889e+10 -7.66183e+08)
(-1.30524e+10 2.77225e+10 -1.17798e+09)
(-1.09758e+10 2.8709e+10 1.10789e+10)
(-7.49186e+09 2.01641e+10 6.71457e+09)
(-7.11098e+09 1.89666e+10 5.20806e+09)
(-6.09636e+09 2.17563e+10 4.7454e+09)
(-6.03046e+09 2.74268e+10 5.21193e+09)
(-2.76135e+09 2.95067e+10 5.64801e+09)
(1.16124e+09 1.22797e+10 1.99656e+09)
(1.60981e+09 1.10714e+10 3.7624e+08)
(5.98789e+08 1.03948e+10 -5.94575e+08)
(2.85365e+09 1.12827e+10 1.37352e+09)
(-6.38891e+09 2.76715e+10 2.14056e+08)
(-7.10613e+09 3.41954e+10 9.8242e+09)
(-3.33516e+09 2.70644e+10 6.32757e+09)
(-3.48645e+09 2.25339e+10 5.80062e+09)
(-8.80932e+08 3.02511e+10 6.07111e+09)
(-2.61598e+09 2.5923e+10 5.82896e+09)
(1.52633e+09 1.44815e+10 1.30947e+09)
(3.2133e+09 2.29352e+10 3.21645e+09)
(5.24954e+09 1.6905e+10 -4.63073e+08)
(8.4974e+08 1.54895e+10 -6.52873e+08)
(1.11718e+09 1.47926e+10 3.46966e+09)
(-1.26612e+09 2.06698e+10 7.05726e+09)
(7.21777e+08 2.56642e+10 5.01387e+09)
(2.52149e+09 2.07517e+10 3.16749e+09)
(-1.29193e+09 2.45024e+10 2.4413e+09)
(-5.27272e+09 3.04835e+10 3.69337e+09)
(-1.17996e+09 2.06358e+10 1.92939e+09)
(-1.94608e+08 1.87489e+10 9.9203e+08)
(-5.09617e+08 1.97872e+10 5.11235e+09)
(2.91476e+09 1.3698e+10 1.28042e+09)
(7.0501e+09 1.84862e+10 9.97737e+08)
(-1.05562e+10 4.0848e+10 5.88572e+09)
(5.05473e+09 1.77456e+10 1.7963e+09)
(1.61594e+09 2.34941e+10 7.96204e+08)
(3.16612e+09 2.50747e+10 2.11032e+09)
(3.041e+09 2.49894e+10 1.88953e+09)
)
;
    }
}


// ************************************************************************* //
