/*--------------------------------*- C++ -*----------------------------------*\
| =========                 |                                                 |
| \\      /  F ield         | OpenFOAM: The Open Source CFD Toolbox           |
|  \\    /   O peration     | Version:  2.4.0                                 |
|   \\  /    A nd           | Web:      www.OpenFOAM.org                      |
|    \\/     M anipulation  |                                                 |
\*---------------------------------------------------------------------------*/
FoamFile
{
    version     2.0;
    format      ascii;
    class       volScalarField;
    location    "0.14";
    object      p;
}
// * * * * * * * * * * * * * * * * * * * * * * * * * * * * * * * * * * * * * //

dimensions      [1 -1 -2 0 0 0 0];

internalField   nonuniform List<scalar> 
200
(
2.34459e+28
2.29938e+28
2.25186e+28
2.16598e+28
2.07003e+28
2.00505e+28
1.93806e+28
1.8585e+28
1.80381e+28
1.74042e+28
2.35107e+28
2.312e+28
2.24811e+28
2.1811e+28
2.09987e+28
2.03048e+28
1.94473e+28
1.86127e+28
1.78252e+28
1.70425e+28
2.38725e+28
2.34638e+28
2.28937e+28
2.20667e+28
2.12393e+28
2.05131e+28
1.97394e+28
1.8728e+28
1.77057e+28
1.6785e+28
2.45537e+28
2.4125e+28
2.38099e+28
2.27595e+28
2.14262e+28
2.04204e+28
1.96382e+28
1.86903e+28
1.75137e+28
1.6343e+28
2.31895e+28
2.27364e+28
2.21815e+28
2.15712e+28
2.07397e+28
2.00421e+28
1.93343e+28
1.86807e+28
1.75625e+28
1.7132e+28
2.31851e+28
2.26557e+28
2.20685e+28
2.14489e+28
2.07817e+28
2.00005e+28
1.93696e+28
1.85231e+28
1.75575e+28
1.65574e+28
2.34991e+28
2.31041e+28
2.23069e+28
2.14895e+28
2.07625e+28
2.01172e+28
1.94765e+28
1.85853e+28
1.7524e+28
1.65858e+28
2.40104e+28
2.34372e+28
2.27845e+28
2.18998e+28
2.10166e+28
2.01868e+28
1.92853e+28
1.82878e+28
1.7231e+28
1.61415e+28
2.28775e+28
2.2411e+28
2.19667e+28
2.14406e+28
2.09696e+28
2.03822e+28
1.98044e+28
1.89243e+28
1.82386e+28
1.673e+28
2.2837e+28
2.24353e+28
2.19503e+28
2.13804e+28
2.07042e+28
1.9955e+28
1.91051e+28
1.81512e+28
1.66497e+28
1.56186e+28
2.30691e+28
2.25625e+28
2.19958e+28
2.13407e+28
2.05493e+28
1.96837e+28
1.86171e+28
1.75526e+28
1.66426e+28
1.60173e+28
2.34392e+28
2.28509e+28
2.21846e+28
2.14524e+28
2.05908e+28
1.94829e+28
1.84968e+28
1.75374e+28
1.68521e+28
1.62438e+28
2.25993e+28
2.21792e+28
2.17544e+28
2.13063e+28
2.08365e+28
2.05187e+28
1.99537e+28
1.97064e+28
1.87596e+28
1.82744e+28
2.25895e+28
2.21031e+28
2.15937e+28
2.10376e+28
2.05909e+28
2.01206e+28
1.97185e+28
1.84368e+28
1.76285e+28
1.54442e+28
2.26445e+28
2.21603e+28
2.15853e+28
2.09853e+28
2.03023e+28
1.95675e+28
1.86831e+28
1.77052e+28
1.65962e+28
1.55423e+28
2.27646e+28
2.22965e+28
2.16793e+28
2.09153e+28
2.00524e+28
1.91808e+28
1.81141e+28
1.72511e+28
1.61477e+28
1.5516e+28
2.25148e+28
2.21376e+28
2.17498e+28
2.13338e+28
2.08601e+28
2.04774e+28
1.98657e+28
1.93891e+28
1.87331e+28
1.84294e+28
2.24642e+28
2.19762e+28
2.15375e+28
2.11708e+28
2.07902e+28
2.01489e+28
1.95056e+28
1.87797e+28
1.76933e+28
1.70792e+28
2.24676e+28
2.19772e+28
2.1488e+28
2.10798e+28
2.05808e+28
1.98829e+28
1.924e+28
1.80787e+28
1.72955e+28
1.57709e+28
2.25534e+28
2.23016e+28
2.16873e+28
2.11359e+28
2.02989e+28
1.94695e+28
1.85199e+28
1.75677e+28
1.65102e+28
1.5402e+28
)
;

boundaryField
{
    inlet
    {
        type            zeroGradient;
    }
    outlet
    {
        type            fixedValue;
        value           nonuniform 0();
    }
    bottom
    {
        type            zeroGradient;
    }
    top
    {
        type            symmetryPlane;
    }
    side1
    {
        type            symmetryPlane;
    }
    side2
    {
        type            symmetryPlane;
    }
    procBoundary1to0
    {
        type            processor;
        value           nonuniform List<scalar> 
20
(
2.38753e+28
2.3939e+28
2.41966e+28
2.48127e+28
2.36401e+28
2.35994e+28
2.38147e+28
2.43244e+28
2.33231e+28
2.3234e+28
2.34705e+28
2.38609e+28
2.30267e+28
2.3012e+28
2.30649e+28
2.32027e+28
2.28995e+28
2.28839e+28
2.29242e+28
2.29556e+28
)
;
    }
    procBoundary1to2
    {
        type            processor;
        value           nonuniform List<scalar> 
20
(
1.69461e+28
1.64214e+28
1.58377e+28
1.52665e+28
1.65501e+28
1.61844e+28
1.57822e+28
1.5232e+28
1.71422e+28
1.50496e+28
1.5639e+28
1.55417e+28
1.71812e+28
1.54594e+28
1.51276e+28
1.49338e+28
1.72997e+28
1.60495e+28
1.45805e+28
1.44354e+28
)
;
    }
    procBoundary1to9
    {
        type            processor;
        value           nonuniform List<scalar> 
50
(
2.55438e+28
2.44152e+28
2.37714e+28
2.33704e+28
2.18505e+28
2.04769e+28
1.92635e+28
1.83544e+28
1.71957e+28
1.5852e+28
2.43318e+28
2.36596e+28
2.30026e+28
2.23451e+28
2.14916e+28
2.07197e+28
1.92924e+28
1.79607e+28
1.68247e+28
1.57699e+28
2.40597e+28
2.34349e+28
2.25826e+28
2.17802e+28
2.07448e+28
1.95139e+28
1.82661e+28
1.73322e+28
1.6461e+28
1.56403e+28
2.27401e+28
2.22371e+28
2.17216e+28
2.10439e+28
2.003e+28
1.88321e+28
1.7814e+28
1.67586e+28
1.59309e+28
1.51241e+28
2.20143e+28
2.16373e+28
2.1323e+28
2.08153e+28
1.98987e+28
1.89594e+28
1.78877e+28
1.68763e+28
1.57508e+28
1.47084e+28
)
;
    }
}


// ************************************************************************* //
