/*--------------------------------*- C++ -*----------------------------------*\
| =========                 |                                                 |
| \\      /  F ield         | OpenFOAM: The Open Source CFD Toolbox           |
|  \\    /   O peration     | Version:  2.4.0                                 |
|   \\  /    A nd           | Web:      www.OpenFOAM.org                      |
|    \\/     M anipulation  |                                                 |
\*---------------------------------------------------------------------------*/
FoamFile
{
    version     2.0;
    format      ascii;
    class       volVectorField;
    location    "0.14";
    object      U;
}
// * * * * * * * * * * * * * * * * * * * * * * * * * * * * * * * * * * * * * //

dimensions      [0 1 -1 0 0 0 0];

internalField   nonuniform List<vector> 
200
(
(4.87099e+13 -5.29141e+12 -6.022e+11)
(4.68739e+13 4.38251e+12 4.06036e+12)
(5.31584e+13 -8.23332e+12 2.17017e+12)
(4.39727e+13 2.75098e+12 1.02385e+13)
(5.20545e+13 -4.82972e+13 -1.18775e+13)
(8.70803e+13 -2.05747e+13 -3.8333e+13)
(7.68743e+13 1.37562e+13 -3.16774e+13)
(8.87941e+13 2.71154e+11 8.34358e+11)
(8.81496e+13 -6.23255e+12 1.99023e+12)
(7.4967e+13 7.68351e+12 5.34408e+12)
(5.47321e+13 -3.7693e+10 -1.48191e+11)
(5.3462e+13 -7.68919e+12 -1.91147e+12)
(5.79088e+13 -7.83799e+12 5.88103e+12)
(6.06314e+13 -7.89097e+12 4.56348e+12)
(5.96417e+13 -1.90872e+13 -3.97646e+12)
(5.683e+13 -3.85754e+12 -6.169e+12)
(6.99542e+13 2.03489e+12 7.15281e+12)
(6.88403e+13 -2.8999e+12 4.25796e+12)
(6.87034e+13 7.62754e+12 3.91633e+12)
(6.21205e+13 1.60091e+13 1.34177e+13)
(5.32301e+13 -1.14354e+13 -1.32247e+12)
(6.17633e+13 -1.63786e+13 6.95611e+12)
(6.23298e+13 -2.03421e+13 6.02043e+12)
(6.39242e+13 -2.55577e+13 5.22314e+12)
(6.51471e+13 -2.85139e+13 2.37161e+12)
(5.87686e+13 -4.65802e+13 2.04578e+12)
(7.55625e+13 -2.5577e+12 6.79863e+12)
(7.61675e+13 1.2598e+12 5.11481e+12)
(6.8305e+13 -4.3627e+12 5.42215e+12)
(7.27387e+13 1.40841e+13 3.66827e+12)
(4.55996e+13 -6.40649e+13 6.80345e+12)
(5.28527e+13 -3.30975e+13 6.81634e+12)
(6.19451e+13 -2.11189e+13 8.16386e+12)
(7.68553e+13 -2.62649e+13 6.67236e+12)
(7.97014e+13 -2.72627e+13 4.65212e+12)
(7.43866e+13 -2.90108e+13 5.15225e+12)
(6.58408e+13 -4.55122e+13 -8.49432e+11)
(8.26589e+13 -2.67858e+12 4.51304e+12)
(7.90375e+13 6.99508e+12 6.51473e+12)
(7.19789e+13 -3.62494e+12 3.56651e+12)
(5.54765e+13 5.22253e+12 3.73571e+12)
(5.13255e+13 -2.32404e+12 2.97786e+12)
(5.46591e+13 9.31059e+12 6.56894e+12)
(5.93061e+13 -9.26671e+12 -2.43506e+12)
(4.97315e+13 2.74417e+12 8.55828e+12)
(5.96515e+13 -4.18735e+13 -1.5478e+13)
(7.38451e+13 -9.04843e+12 -1.51424e+13)
(6.94723e+13 1.78939e+12 -4.87574e+12)
(6.58761e+13 3.75945e+12 -1.54993e+12)
(7.87285e+13 -5.98002e+13 5.79773e+13)
(5.01619e+13 -8.69007e+12 1.4474e+13)
(5.54295e+13 -7.88996e+12 1.08789e+13)
(5.08652e+13 -1.5827e+13 1.15774e+13)
(7.12316e+13 7.35542e+12 7.35307e+12)
(7.36112e+13 -3.74334e+12 1.10348e+12)
(6.96991e+13 -2.06693e+13 -2.37821e+12)
(6.57568e+13 -1.16014e+13 -9.15503e+12)
(7.36621e+13 -5.15067e+12 4.44065e+12)
(7.30656e+13 -8.23406e+12 1.6949e+13)
(6.67266e+13 8.12765e+12 8.51577e+12)
(5.9657e+13 -8.48495e+12 3.55402e+13)
(6.83939e+13 -1.38105e+13 2.12608e+13)
(7.07235e+13 -1.98405e+13 1.35717e+13)
(6.89505e+13 -2.82524e+13 2.1685e+13)
(8.41454e+13 -1.79415e+13 6.42292e+12)
(8.83925e+13 -1.49691e+13 5.47932e+12)
(8.30693e+13 -9.30972e+12 9.57736e+12)
(7.92591e+13 -6.01926e+12 1.58058e+13)
(7.49427e+13 1.44247e+12 1.58527e+13)
(6.88435e+13 -6.86514e+12 1.56236e+13)
(3.44513e+13 -5.60438e+13 1.58501e+13)
(6.47646e+13 -3.02122e+13 2.63987e+13)
(6.67946e+13 -2.26435e+13 1.8614e+13)
(7.00306e+13 -2.29666e+13 1.59083e+13)
(7.0884e+13 -3.07479e+13 2.27073e+13)
(7.88238e+13 -2.16297e+13 6.26792e+12)
(7.53862e+13 -1.04968e+13 1.14429e+13)
(7.56338e+13 1.31605e+12 1.55321e+13)
(7.38573e+13 -3.36376e+12 1.51566e+13)
(7.4663e+13 1.35988e+13 1.632e+13)
(4.50829e+13 -8.31119e+12 1.59276e+13)
(5.5224e+13 2.57296e+12 6.9519e+12)
(5.22185e+13 3.37932e+12 1.25496e+12)
(5.05469e+13 -1.20626e+12 3.11735e+12)
(5.41332e+13 1.09886e+13 -5.17275e+12)
(4.08015e+13 -2.52605e+13 -1.21986e+13)
(6.04508e+13 -1.76573e+12 -1.20856e+12)
(4.65089e+13 -9.42434e+12 -1.21522e+13)
(6.50242e+13 -4.57479e+13 3.67155e+13)
(5.84729e+13 4.48945e+13 -1.19323e+13)
(4.82985e+13 -1.69501e+13 1.56502e+13)
(4.76347e+13 -1.50073e+13 2.02629e+13)
(5.88014e+13 -4.95042e+12 6.19841e+12)
(5.67116e+13 5.6308e+12 2.00662e+12)
(5.70638e+13 -7.15417e+12 1.85202e+12)
(6.27608e+13 7.35358e+12 -4.10279e+12)
(4.75193e+13 -3.42206e+13 -4.09083e+12)
(6.54359e+13 -9.89297e+11 6.48034e+12)
(5.54688e+13 -2.27543e+13 -7.81994e+12)
(6.96116e+13 -7.89052e+13 6.54221e+13)
(4.55708e+13 -1.17581e+13 1.95054e+13)
(5.14758e+13 -1.71247e+13 1.69258e+13)
(5.10189e+13 -8.65799e+12 1.521e+13)
(5.95129e+13 -8.16034e+12 8.30077e+12)
(6.36391e+13 3.31509e+12 5.92418e+12)
(6.275e+13 -1.57531e+13 8.00594e+12)
(6.85544e+13 2.23672e+12 6.8843e+12)
(5.74198e+13 -3.80459e+13 1.14506e+13)
(7.09446e+13 -3.0307e+13 1.99189e+13)
(6.4817e+13 6.79651e+12 -2.66483e+12)
(4.56684e+13 -2.52142e+13 2.18722e+13)
(5.26615e+13 -1.7647e+13 2.06979e+13)
(5.91467e+13 -1.9712e+13 1.94225e+13)
(6.12925e+13 -1.32574e+13 1.87512e+13)
(7.00425e+13 -1.08884e+13 1.24622e+13)
(7.10356e+13 -1.84352e+11 1.14327e+13)
(7.04964e+13 -1.60615e+13 1.7842e+13)
(6.86775e+13 2.32087e+12 1.24839e+13)
(5.44376e+13 -2.05927e+13 1.6577e+13)
(3.89001e+13 3.80893e+13 1.05929e+13)
(4.93604e+13 -3.8505e+12 1.3118e+13)
(5.06265e+13 4.87396e+12 4.14771e+12)
(4.88862e+13 -5.38196e+11 9.01151e+12)
(4.82064e+13 3.36053e+12 -1.13519e+12)
(4.12759e+13 -2.36339e+12 1.04428e+13)
(4.47747e+13 -4.58919e+12 -9.86741e+11)
(4.14606e+13 1.14448e+13 9.08108e+11)
(4.72354e+13 -3.49297e+13 2.35747e+13)
(5.67348e+13 3.36845e+13 -7.06794e+12)
(5.89781e+13 -1.80979e+14 1.1145e+14)
(4.29361e+13 -4.71662e+12 1.12108e+13)
(5.17637e+13 -4.97545e+12 9.23598e+12)
(5.47732e+13 6.93031e+12 5.17673e+12)
(5.4742e+13 -5.00136e+11 1.02056e+13)
(6.38194e+13 2.01055e+13 -4.87327e+12)
(4.78384e+13 -3.49483e+13 2.04572e+13)
(6.05187e+13 3.69032e+12 4.17615e+11)
(5.0543e+13 -3.06653e+13 5.25999e+12)
(5.72241e+13 -2.55723e+13 2.1908e+13)
(5.60272e+13 -2.15958e+13 -1.08571e+12)
(4.75241e+13 -1.14943e+13 8.80388e+12)
(4.89013e+13 -1.58394e+12 8.76737e+12)
(5.29626e+13 -5.29582e+12 8.57446e+12)
(5.86135e+13 8.15764e+12 3.88211e+12)
(5.63692e+13 -6.46014e+12 7.47979e+12)
(6.62392e+13 2.13485e+13 -4.29007e+12)
(5.37913e+13 -3.99147e+13 1.60389e+13)
(6.47631e+13 1.13471e+13 2.00185e+12)
(5.59945e+13 -4.70818e+13 2.1282e+13)
(4.78696e+13 1.26056e+13 3.73725e+12)
(4.52931e+13 -5.57321e+12 1.23415e+13)
(5.08335e+13 -8.67514e+12 1.0949e+13)
(5.43902e+13 -1.67449e+12 1.00941e+13)
(6.10791e+13 -5.15635e+12 7.65468e+12)
(6.5929e+13 1.168e+13 3.62095e+12)
(6.67627e+13 -1.45747e+13 1.15907e+13)
(6.87083e+13 1.42605e+13 2.3234e+12)
(6.10067e+13 -2.81646e+13 2.55145e+13)
(6.36324e+13 1.14458e+13 1.7128e+13)
(5.24292e+13 -1.07426e+13 2.04928e+13)
(4.98281e+13 1.15027e+13 1.30337e+12)
(4.52965e+13 -5.41695e+12 6.28862e+12)
(4.76851e+13 1.30684e+13 -8.02748e+11)
(4.35369e+13 -9.72563e+12 8.83453e+12)
(4.18595e+13 1.10513e+13 -2.39767e+11)
(4.25651e+13 -1.63069e+13 1.18186e+13)
(4.65026e+13 -2.79945e+13 1.22708e+13)
(5.66308e+13 3.98247e+13 -2.28662e+12)
(3.38296e+13 -3.99329e+13 2.58621e+13)
(7.91165e+13 5.40496e+12 -2.64422e+12)
(4.58224e+13 -3.82273e+12 6.32775e+12)
(5.24741e+13 1.25485e+13 1.88605e+12)
(4.75e+13 -7.7975e+12 5.21366e+12)
(5.82526e+13 2.03325e+13 -2.59927e+12)
(5.44816e+13 8.27227e+12 5.69076e+12)
(5.42213e+13 -5.79829e+12 5.24675e+12)
(5.75714e+13 2.31098e+13 9.26261e+11)
(4.30795e+13 -1.65099e+13 1.05403e+13)
(7.69134e+13 2.38138e+13 -6.25417e+11)
(4.27054e+13 2.54886e+13 -3.80975e+12)
(4.74967e+13 4.88813e+12 3.29855e+12)
(5.1946e+13 -3.46102e+12 4.36358e+12)
(5.07831e+13 8.13889e+12 3.21183e+12)
(6.05233e+13 -1.22359e+13 4.80551e+12)
(6.71626e+13 6.50874e+12 8.55544e+11)
(6.17912e+13 4.84015e+12 9.88668e+11)
(5.7208e+13 3.9845e+12 1.65004e+11)
(6.32839e+13 -4.81486e+12 3.83716e+12)
(5.68696e+13 8.97177e+12 -3.68228e+12)
(7.40566e+13 -2.96922e+13 8.54257e+12)
(4.31723e+13 -4.79402e+12 -2.52272e+12)
(5.12698e+13 4.3131e+13 2.43602e+12)
(8.30069e+13 -5.87247e+12 6.9201e+12)
(7.67348e+13 -3.58417e+11 9.24869e+11)
(7.00633e+13 7.80882e+12 6.91719e+11)
(7.17129e+13 1.94376e+13 -8.21246e+11)
(6.32237e+13 2.30126e+12 3.77473e+12)
(6.83751e+13 1.69748e+13 -4.19082e+11)
(6.42861e+13 -2.03419e+13 1.15821e+13)
(7.20758e+13 1.54449e+13 1.00093e+12)
)
;

boundaryField
{
    inlet
    {
        type            calculated;
        value           nonuniform 0();
    }
    outlet
    {
        type            calculated;
        value           nonuniform 0();
    }
    bottom
    {
        type            calculated;
        value           uniform (0 0 0);
    }
    top
    {
        type            symmetryPlane;
    }
    side1
    {
        type            symmetryPlane;
    }
    side2
    {
        type            symmetryPlane;
    }
    procBoundary1to0
    {
        type            processor;
        value           nonuniform List<vector> 
20
(
(4.90257e+13 4.34425e+12 -1.19533e+12)
(5.08026e+13 -9.10204e+12 1.89852e+12)
(4.0142e+13 -3.03431e+13 1.07987e+11)
(2.50969e+13 -4.24572e+13 1.34732e+13)
(5.627e+13 -3.89237e+12 7.94916e+12)
(4.85252e+13 -3.9372e+12 1.47512e+13)
(4.65387e+13 -1.74391e+13 1.08868e+13)
(1.69972e+13 -8.24708e+13 -2.26804e+13)
(4.69555e+13 -1.60358e+13 1.17542e+13)
(4.48449e+13 -5.09595e+12 1.53097e+13)
(4.07796e+13 -1.65013e+13 1.75164e+13)
(3.92934e+13 -2.52175e+13 1.89198e+13)
(4.1537e+13 -2.51941e+12 1.41321e+13)
(4.46744e+13 -1.21629e+13 7.30946e+12)
(4.29249e+13 -3.7913e+12 7.96576e+12)
(4.0337e+13 -1.48917e+13 8.16067e+12)
(4.49978e+13 -6.92996e+12 1.05522e+13)
(4.38068e+13 6.60203e+12 4.26229e+12)
(4.25228e+13 -6.66073e+12 -2.51421e+11)
(4.59332e+13 2.32998e+11 6.90822e+12)
)
;
    }
    procBoundary1to2
    {
        type            processor;
        value           nonuniform List<vector> 
20
(
(6.36173e+13 2.00617e+13 1.29815e+13)
(6.24658e+13 1.55927e+13 1.89887e+11)
(6.66738e+13 8.6804e+12 3.67392e+11)
(7.16797e+13 3.73957e+13 1.28125e+13)
(6.95523e+13 1.56209e+13 -8.40992e+12)
(5.36097e+13 5.72653e+12 1.94636e+13)
(6.79212e+13 2.20293e+13 1.42099e+13)
(7.11552e+13 5.44098e+12 1.1976e+13)
(1.0457e+14 -2.34611e+14 1.55529e+14)
(7.55416e+13 3.65966e+13 -1.17616e+13)
(1.79211e+13 7.69966e+13 7.00416e+12)
(4.7785e+13 9.6604e+12 1.52398e+13)
(1.12836e+14 7.28867e+13 -1.84504e+13)
(3.64815e+13 2.93027e+13 -1.22064e+13)
(5.51534e+13 -5.01028e+13 1.51266e+13)
(5.81614e+13 2.88527e+13 2.14467e+13)
(3.59531e+13 3.37244e+13 4.99304e+12)
(9.05473e+13 -5.47492e+13 6.51315e+12)
(7.29184e+13 2.45916e+13 -4.91221e+12)
(6.09997e+13 -2.93175e+13 1.31883e+13)
)
;
    }
    procBoundary1to9
    {
        type            processor;
        value           nonuniform List<vector> 
50
(
(3.69311e+13 -6.72062e+13 3.02686e+13)
(9.63267e+13 -3.94605e+13 1.09886e+13)
(3.37183e+13 -1.34077e+14 4.274e+12)
(9.50876e+13 -3.74717e+13 2.09168e+13)
(1.23734e+14 -2.28015e+13 9.28086e+12)
(1.08672e+14 -1.39205e+13 5.07585e+12)
(9.86902e+13 -2.6455e+13 1.2214e+12)
(8.41658e+13 -2.65594e+13 6.18559e+12)
(8.79688e+13 5.80139e+12 6.20378e+12)
(8.22459e+13 2.04398e+13 3.64609e+12)
(-4.3683e+12 -1.39384e+14 1.57725e+13)
(4.54063e+13 -6.3839e+13 2.09322e+13)
(6.98111e+13 -3.38562e+13 2.99413e+13)
(8.50894e+13 -5.02224e+13 2.64576e+13)
(7.88434e+13 -3.2896e+13 2.9213e+13)
(7.86925e+13 -9.3523e+12 1.64891e+13)
(8.64699e+13 -9.25667e+12 9.92947e+12)
(8.67463e+13 -1.27129e+13 1.10451e+13)
(8.41534e+13 2.20827e+12 1.66249e+13)
(7.86978e+13 2.64464e+12 1.1531e+13)
(4.77038e+13 -3.29091e+13 2.67092e+13)
(5.97598e+13 -2.86104e+13 3.07858e+13)
(6.33481e+13 -2.4085e+13 2.80947e+13)
(6.59517e+13 -2.05571e+13 2.49843e+13)
(7.19801e+13 -8.56588e+12 2.08716e+13)
(8.08022e+13 -9.69928e+12 1.96091e+13)
(7.86582e+13 -2.13954e+12 1.67826e+13)
(7.73092e+13 -5.72486e+12 2.43292e+13)
(6.61693e+13 2.31389e+13 1.47126e+13)
(5.7329e+13 4.54543e+12 2.52236e+13)
(5.11688e+13 -1.51586e+13 2.32679e+13)
(5.67345e+13 -1.02327e+13 4.40304e+13)
(6.56444e+13 -1.23181e+13 2.84688e+13)
(7.20875e+13 3.25149e+12 1.41177e+13)
(7.53365e+13 1.47142e+12 1.0829e+13)
(7.46536e+13 1.39959e+13 7.48687e+12)
(7.53777e+13 -1.0168e+11 1.55092e+13)
(7.12804e+13 1.79599e+13 1.31618e+13)
(6.48078e+13 -1.21619e+13 3.14685e+13)
(5.84812e+13 2.59512e+13 2.75252e+13)
(7.42014e+13 1.30436e+13 1.15213e+13)
(3.52046e+13 -1.96725e+14 -5.03758e+13)
(9.68782e+13 -1.60591e+13 2.67716e+13)
(7.62781e+13 1.16915e+13 4.25883e+12)
(7.31647e+13 1.91551e+13 2.03752e+12)
(7.36145e+13 2.09926e+13 1.8515e+11)
(7.12893e+13 2.10556e+13 -1.80464e+12)
(6.96786e+13 3.70739e+12 9.67746e+12)
(7.15725e+13 1.93976e+13 6.50339e+12)
(6.86277e+13 -1.37645e+13 1.5782e+13)
)
;
    }
}


// ************************************************************************* //
