/*--------------------------------*- C++ -*----------------------------------*\
| =========                 |                                                 |
| \\      /  F ield         | OpenFOAM: The Open Source CFD Toolbox           |
|  \\    /   O peration     | Version:  2.4.0                                 |
|   \\  /    A nd           | Web:      www.OpenFOAM.org                      |
|    \\/     M anipulation  |                                                 |
\*---------------------------------------------------------------------------*/
FoamFile
{
    version     2.0;
    format      ascii;
    class       volScalarField;
    location    "0.08";
    object      nut;
}
// * * * * * * * * * * * * * * * * * * * * * * * * * * * * * * * * * * * * * //

dimensions      [0 2 -1 0 0 0 0];

internalField   nonuniform List<scalar> 
200
(
101.943
190.127
62.2174
58.7649
56.4436
49.4159
39.4551
51.0894
43.4014
41.0271
167.051
90.6096
107.53
84.163
87.5514
89.5161
37.514
44.8572
56.7022
53.3615
109.172
126.414
133.906
84.2292
55.3882
108.098
102.438
44.5906
52.008
64.3877
145.506
178.992
129.832
99.4875
50.3332
76.6377
99.7835
78.697
46.6324
60.9181
75.9396
89.7357
17.3577
18.9269
46.6895
40.6128
30.5967
40.1643
41.1128
42.3499
116.297
46.9527
40.2857
62.5769
35.0421
57.216
49.4673
36.0234
49.3487
49.3918
100.617
66.9774
84.5566
55.064
101.221
56.6701
52.8833
53.7055
40.4666
51.3796
205.554
161.634
111.746
117.29
75.6793
102.149
69.1247
66.1076
40.6118
33.6325
43.044
21.2772
15.8363
25.9717
29.9659
24.693
33.0605
26.8874
37.6034
33.8178
22.0419
36.1638
31.7122
35.5695
31.9133
42.2186
52.7926
39.6526
45.5023
49.4022
65.6184
59.535
50.3586
50.0511
64.755
74.2651
48.0929
42.9092
55.037
53.3966
139.869
106.309
102.382
83.9625
96.4874
66.4214
51.256
69.2656
58.3427
40.4924
17.4072
23.4417
16.8675
27.6014
16.5187
29.8394
16.8579
37.1429
27.9694
40.529
26.9042
22.6119
30.2375
27.1099
31.4884
28.9258
33.6725
39.5546
36.2246
47.7623
74.4674
46.012
44.5199
53.617
36.7609
46.6456
47.2484
51.6916
47.6049
50.9748
76.8598
75.3813
63.3517
64.8614
67.1673
56.8072
78.3645
54.4923
77.8602
45.5925
3.37125
18.0299
7.45849
25.9735
21.5437
32.4429
36.0182
45.0038
39.6271
47.8872
102.991
14.6824
16.7398
17.1506
35.6758
32.261
43.4713
43.3418
57.478
28.9319
99.2233
144.92
62.432
51.651
36.4111
24.5203
52.8569
21.1905
68.844
63.022
265.188
53.7189
92.508
104.288
70.8052
57.7526
40.6685
68.4437
45.7968
75.3815
)
;

boundaryField
{
    inlet
    {
        type            calculated;
        value           nonuniform 0();
    }
    outlet
    {
        type            calculated;
        value           nonuniform 0();
    }
    bottom
    {
        type            calculated;
        value           nonuniform List<scalar> 
40
(
1.30057e-22
1.22334e-22
1.06697e-22
1.6849e-22
1.31378e-22
7.87584e-23
1.3003e-22
1.54215e-22
4.81531e-23
8.83237e-23
9.1151e-23
1.61246e-22
4.09737e-23
6.0254e-23
1.5227e-22
6.90203e-23
4.47757e-23
9.96428e-23
6.49587e-23
2.10206e-22
4.26427e-23
8.71414e-23
1.64498e-22
8.03586e-23
5.71646e-23
4.23333e-23
1.03923e-22
1.0147e-22
6.35269e-23
7.29788e-23
5.32033e-23
8.8861e-23
4.81698e-23
7.44637e-23
7.85208e-23
6.03629e-23
5.28962e-23
6.27851e-23
8.48477e-23
8.25426e-23
)
;
    }
    top
    {
        type            symmetryPlane;
    }
    side1
    {
        type            symmetryPlane;
    }
    side2
    {
        type            symmetryPlane;
    }
    procBoundary22to14
    {
        type            processor;
        value           nonuniform List<scalar> 
50
(
102.71
44.6701
63.8157
29.2397
36.3307
39.7361
47.2395
35.0137
31.5003
37.6171
127.042
138.787
54.8724
45.4465
37.0073
42.6625
34.4619
35.996
34.9366
35.8719
124.911
53.3872
45.913
23.5277
30.5114
26.5749
24.3422
28.7199
23.6895
37.8879
32.3711
20.9441
23.1666
15.6559
23.9629
11.809
27.2182
9.5615
40.3911
16.8851
17.7175
10.6445
16.8521
14.2066
16.7396
18.784
20.0949
32.9088
28.801
49.4896
)
;
    }
    procBoundary22to21
    {
        type            processor;
        value           nonuniform List<scalar> 
20
(
66.3431
146.509
165.219
142.366
53.9059
372.345
121.782
202.753
31.8378
61.7687
126.126
98.7073
26.7204
27.7368
78.1784
173.052
31.9386
36.9301
135.908
227.693
)
;
    }
    procBoundary22to23
    {
        type            processor;
        value           nonuniform List<scalar> 
20
(
50.426
53.9802
64.2068
74.2438
42.352
51.9637
55.7385
48.3898
54.6423
50.1959
57.4448
49.4979
35.4334
41.4181
53.4592
70.0767
49.4186
56.7721
37.8966
69.5626
)
;
    }
    procBoundary22to30
    {
        type            processor;
        value           nonuniform List<scalar> 
50
(
220.482
139.818
133.31
87.2917
116.617
66.3666
185.054
68.2092
69.2951
58.4273
323.366
265.907
216.59
193.091
89.2261
86.8523
41.7864
117.23
75.5502
39.1329
187.535
213.723
178.778
117.019
126.257
78.4589
34.5201
51.3683
81.6178
37.3721
95.3546
156.064
142.598
100.395
96.3742
66.5738
55.5718
81.1126
55.9458
85.9931
83.1406
37.0056
115.294
157.112
89.2392
67.2736
56.406
52.3777
48.1267
55.8716
)
;
    }
}


// ************************************************************************* //
