/*--------------------------------*- C++ -*----------------------------------*\
| =========                 |                                                 |
| \\      /  F ield         | OpenFOAM: The Open Source CFD Toolbox           |
|  \\    /   O peration     | Version:  2.4.0                                 |
|   \\  /    A nd           | Web:      www.OpenFOAM.org                      |
|    \\/     M anipulation  |                                                 |
\*---------------------------------------------------------------------------*/
FoamFile
{
    version     2.0;
    format      ascii;
    class       volVectorField;
    location    "0.12";
    object      U;
}
// * * * * * * * * * * * * * * * * * * * * * * * * * * * * * * * * * * * * * //

dimensions      [0 1 -1 0 0 0 0];

internalField   nonuniform List<vector> 
200
(
(-2.02085e+09 3.02058e+09 2.76305e+08)
(-2.24156e+09 3.20503e+09 3.40581e+08)
(-3.10245e+09 5.30355e+09 2.87787e+08)
(-3.27239e+09 4.54022e+09 6.03947e+08)
(-3.83592e+09 4.77503e+09 3.43195e+08)
(-4.26055e+09 5.14306e+09 6.41585e+08)
(-5.30986e+09 9.02359e+09 1.23505e+09)
(-6.88267e+09 8.30332e+09 6.3005e+08)
(-6.9444e+09 6.73904e+09 3.68776e+08)
(-7.65725e+09 7.19365e+09 3.35653e+08)
(-7.76053e+08 2.02758e+09 7.37261e+06)
(-1.74722e+09 5.0541e+09 -2.31916e+06)
(-1.63062e+09 4.72488e+09 2.83083e+08)
(-2.39615e+09 5.80204e+09 5.95134e+06)
(-2.64234e+09 4.76949e+09 4.73371e+08)
(-3.09966e+09 5.74611e+09 1.34493e+08)
(-3.72418e+09 8.81805e+09 5.39446e+08)
(-4.22061e+09 8.81915e+09 8.79372e+08)
(-4.72032e+09 8.3483e+09 1.24314e+09)
(-7.40293e+09 7.87013e+09 -4.2769e+08)
(-1.0674e+09 4.41262e+09 -5.03806e+08)
(-5.43282e+08 4.50656e+09 -6.75836e+07)
(-1.25153e+09 5.65191e+09 -3.22508e+08)
(-1.16408e+09 5.48918e+09 2.68089e+08)
(-1.35807e+09 5.15015e+09 -4.02606e+06)
(-1.36807e+09 5.62794e+09 3.84756e+08)
(-1.74526e+09 1.02791e+10 1.62995e+08)
(-2.94681e+09 8.3772e+09 2.15797e+08)
(-3.10497e+09 8.54227e+09 3.10041e+08)
(-2.88581e+09 9.95979e+09 6.61358e+08)
(-1.17286e+08 3.41153e+09 3.42761e+08)
(-6.6386e+08 4.87387e+09 -9.50003e+07)
(-8.01306e+08 6.501e+09 -3.26797e+08)
(-3.04868e+08 4.62916e+09 -1.32788e+08)
(-4.41167e+08 5.16195e+09 -1.9011e+08)
(-3.68493e+08 5.76867e+09 -2.5255e+08)
(-4.13464e+08 1.02882e+10 1.59808e+09)
(-1.63605e+09 1.32654e+10 9.26898e+07)
(-2.34178e+09 7.51347e+09 1.65808e+09)
(-3.25718e+09 1.00539e+10 -1.50049e+07)
(-1.87785e+09 2.006e+09 3.19693e+08)
(-2.79547e+09 6.01719e+09 9.56431e+08)
(-3.44966e+09 4.18887e+09 1.20216e+09)
(-4.14668e+09 4.88268e+09 1.19212e+09)
(-4.47033e+09 5.39221e+09 1.52877e+09)
(-5.23628e+09 7.10773e+09 1.47283e+09)
(-5.56811e+09 1.24415e+10 2.17535e+09)
(-6.01792e+09 7.39293e+09 1.89188e+08)
(-6.24605e+09 7.27018e+09 8.80207e+08)
(-8.04073e+09 5.95344e+09 -7.60675e+07)
(-8.21014e+08 5.086e+09 6.35794e+08)
(-1.1564e+09 5.35164e+09 1.53377e+08)
(-2.05007e+09 6.32365e+09 7.34924e+08)
(-2.44687e+09 4.99625e+09 1.18874e+09)
(-4.01031e+09 6.59434e+09 1.55141e+09)
(-3.9106e+09 7.51781e+09 1.68486e+09)
(-6.03088e+09 1.11417e+10 1.21936e+09)
(-5.48586e+09 1.09707e+10 2.83244e+09)
(-6.17816e+09 7.77473e+09 -4.15579e+08)
(-5.77634e+09 7.98741e+09 7.50302e+08)
(2.8273e+08 3.4086e+09 -7.23701e+07)
(-8.05558e+07 7.34493e+09 4.21613e+08)
(-2.79772e+07 5.39637e+09 -1.49187e+08)
(-1.8814e+07 7.10351e+09 3.47676e+08)
(-2.00403e+09 8.09642e+09 1.83659e+09)
(-7.19695e+08 8.07188e+09 8.21471e+08)
(-1.76929e+09 1.26746e+10 -2.28414e+09)
(-3.84942e+09 1.1261e+10 1.13392e+08)
(-2.49627e+09 1.14936e+10 2.84779e+08)
(-3.53484e+09 8.61856e+09 -8.7727e+08)
(1.49819e+08 5.78227e+09 -2.34185e+08)
(6.4031e+08 6.02576e+09 -4.06302e+08)
(4.42334e+08 6.40828e+09 -1.0989e+08)
(7.14757e+08 6.20757e+09 -6.35554e+08)
(3.30416e+08 1.05778e+10 -1.0976e+08)
(1.80844e+09 6.64903e+09 3.26208e+08)
(-2.21293e+09 1.89245e+10 2.63884e+09)
(1.47462e+09 1.23395e+10 1.05989e+08)
(-8.0865e+09 7.32094e+09 -3.53033e+09)
(6.88106e+08 1.27803e+10 9.17441e+08)
(-2.78152e+09 3.43631e+09 5.31157e+08)
(-3.4955e+09 4.56371e+09 2.77527e+08)
(-3.68825e+09 6.71242e+09 1.20132e+09)
(-4.20289e+09 6.12436e+09 3.32662e+08)
(-4.89716e+09 8.09719e+09 -6.96033e+07)
(-5.99327e+09 9.02814e+09 5.4741e+08)
(-6.85926e+09 1.489e+10 -8.5694e+08)
(-5.70794e+09 9.12184e+09 1.63438e+08)
(-7.04384e+09 6.24783e+09 8.69105e+08)
(-7.36981e+09 6.91309e+09 4.05022e+08)
(-1.31469e+09 4.0939e+09 4.5381e+08)
(-1.76206e+09 5.86277e+09 7.01403e+08)
(-2.38157e+09 7.65505e+09 1.26944e+09)
(-2.33231e+09 7.60752e+09 8.92702e+08)
(-5.82179e+09 7.01158e+09 5.40386e+08)
(-7.35203e+09 1.1433e+10 -4.97817e+08)
(-5.04148e+09 1.07767e+10 -1.74594e+08)
(-3.81238e+09 1.1247e+10 -9.38647e+08)
(-4.10226e+09 7.0056e+09 1.79928e+08)
(-6.04659e+09 8.12142e+09 8.72508e+07)
(-1.34634e+09 4.98236e+09 8.6923e+08)
(-1.60336e+09 5.87332e+09 6.96647e+08)
(-1.4357e+09 7.51087e+09 1.22098e+09)
(-6.96313e+08 1.04583e+10 2.64892e+09)
(-6.51602e+09 2.04104e+10 5.75914e+09)
(-3.78869e+09 1.34369e+10 1.24274e+09)
(-1.2365e+09 7.74787e+09 3.24965e+08)
(-2.01826e+09 1.02556e+10 -7.19882e+08)
(-1.89557e+09 1.01346e+10 -1.00532e+09)
(-1.7967e+09 9.48576e+09 -1.76818e+08)
(-5.34958e+08 4.19078e+09 4.83323e+08)
(-1.5106e+09 6.63048e+09 9.11125e+08)
(-8.05271e+08 6.47409e+09 6.19316e+08)
(-2.01375e+09 1.12213e+10 2.24776e+09)
(-5.42855e+08 1.36658e+10 1.72244e+09)
(3.4388e+08 1.12291e+10 1.58284e+09)
(1.82178e+09 5.99128e+09 -6.46548e+08)
(-5.17963e+06 9.59548e+09 7.07067e+08)
(4.20566e+08 8.97866e+09 -1.48887e+09)
(1.09927e+09 8.91956e+09 -7.43119e+08)
(-2.04713e+09 4.70644e+09 -2.99609e+08)
(-2.32183e+09 4.00525e+09 2.55678e+08)
(-2.3885e+09 5.86143e+09 -7.25502e+08)
(-2.80153e+09 4.93001e+09 -9.71164e+07)
(-3.61415e+09 6.89597e+09 -6.71731e+07)
(-4.27653e+09 7.05129e+09 -1.00541e+09)
(-6.20088e+09 1.2076e+10 -2.20753e+09)
(-5.8217e+09 9.47879e+09 -7.59126e+08)
(-4.66691e+09 6.24528e+09 -9.37147e+08)
(-6.19005e+09 7.24116e+09 -6.43041e+08)
(-1.60262e+09 4.54384e+09 6.12795e+08)
(-1.59411e+09 5.58867e+09 -1.42177e+08)
(-1.56846e+09 5.2656e+09 5.09261e+08)
(-1.55049e+09 6.93775e+09 -1.80084e+08)
(-2.82888e+09 8.2377e+09 -1.05648e+09)
(-3.59555e+09 7.52467e+09 -1.75671e+08)
(-2.90169e+09 1.16735e+10 -1.07903e+09)
(-1.88311e+09 7.56809e+09 -8.73569e+08)
(-2.74453e+09 9.60085e+09 -1.39283e+09)
(-3.58435e+09 7.20444e+09 -3.80803e+08)
(-9.98736e+08 5.78494e+09 4.5478e+08)
(-1.19039e+09 5.40322e+09 9.40742e+08)
(-1.52054e+09 6.41926e+09 2.54391e+08)
(-7.38632e+08 6.42372e+09 1.32359e+09)
(-2.04469e+09 1.21541e+10 1.36644e+09)
(-1.1375e+09 6.71405e+09 6.94872e+08)
(-7.62696e+08 7.69508e+09 -3.33473e+07)
(1.41414e+08 1.06684e+10 -1.21579e+09)
(-7.13659e+08 6.73955e+09 -7.85758e+08)
(-1.65525e+09 1.4028e+10 -1.9741e+09)
(-4.18099e+08 5.9011e+09 8.46909e+08)
(-3.75352e+08 7.12053e+09 9.48403e+08)
(-5.17133e+08 6.13453e+09 1.38939e+09)
(-5.57483e+07 8.0376e+09 2.31427e+09)
(-1.68103e+09 1.43954e+10 5.16849e+09)
(1.05723e+09 6.21605e+09 1.13979e+09)
(8.23004e+08 6.39458e+09 1.45761e+09)
(1.18097e+09 8.36525e+09 7.59297e+08)
(9.4569e+08 1.56802e+10 -3.09731e+09)
(7.74568e+08 1.00794e+10 -8.09506e+07)
(-2.23379e+09 4.67642e+09 1.96421e+08)
(-2.17095e+09 5.69277e+09 -1.80705e+08)
(-2.82224e+09 4.95077e+09 1.31864e+07)
(-3.18181e+09 6.62148e+09 -7.87526e+07)
(-3.4526e+09 5.34703e+09 -6.59218e+07)
(-3.7608e+09 6.97093e+09 1.30298e+07)
(-4.35605e+09 6.73424e+09 -1.09116e+09)
(-4.59704e+09 7.74212e+09 -9.95803e+08)
(-6.00729e+09 7.64092e+09 -7.70106e+08)
(-5.36053e+09 8.06359e+09 -1.10564e+08)
(-5.65788e+08 5.93498e+09 -4.1837e+07)
(-1.02926e+09 4.66696e+09 2.49919e+08)
(-7.53882e+08 6.69704e+09 -1.73884e+08)
(-8.98297e+08 5.44021e+09 2.78495e+08)
(-7.13996e+08 6.97465e+09 -3.48885e+08)
(-9.12911e+08 5.89149e+09 1.16126e+08)
(-9.54019e+08 8.12161e+09 -6.4807e+07)
(-1.09236e+09 7.16833e+09 -4.65835e+08)
(-2.09674e+09 6.49351e+09 -2.60752e+08)
(-3.05453e+09 8.9084e+09 -3.16363e+08)
(1.22488e+08 5.41499e+09 3.42293e+08)
(3.18735e+08 6.06262e+09 1.29092e+08)
(2.5475e+08 5.24414e+09 4.67095e+08)
(5.57578e+08 6.32331e+09 9.91275e+07)
(6.20268e+08 5.36484e+09 6.9514e+08)
(1.12127e+09 6.97314e+09 3.13766e+08)
(1.88216e+09 8.25451e+09 -3.20659e+08)
(7.30681e+08 5.62975e+09 -1.61157e+08)
(-3.01187e+08 1.21402e+10 -3.4298e+09)
(-2.24984e+09 7.40582e+09 6.00102e+08)
(1.16909e+09 6.55676e+09 2.47031e+08)
(1.32698e+09 5.39413e+09 5.44894e+08)
(1.26545e+09 6.47005e+09 1.30933e+08)
(8.20108e+08 5.83567e+09 7.02351e+08)
(1.87128e+09 6.887e+09 9.44104e+08)
(2.37833e+09 5.38792e+09 8.23398e+08)
(2.9758e+09 7.09904e+09 -1.86623e+08)
(3.90558e+09 1.64778e+10 -5.47495e+09)
(-4.48114e+08 3.0644e+09 8.04498e+08)
(-1.2366e+09 1.26186e+10 -1.94925e+09)
)
;

boundaryField
{
    inlet
    {
        type            calculated;
        value           nonuniform 0();
    }
    outlet
    {
        type            calculated;
        value           nonuniform 0();
    }
    bottom
    {
        type            calculated;
        value           uniform (0 0 0);
    }
    top
    {
        type            symmetryPlane;
    }
    side1
    {
        type            symmetryPlane;
    }
    side2
    {
        type            symmetryPlane;
    }
    procBoundary9to1
    {
        type            processor;
        value           nonuniform List<vector> 
50
(
(-2.09707e+09 -6.09977e+08 1.42261e+08)
(-3.36592e+09 3.78758e+09 5.15587e+08)
(-4.00484e+09 3.91621e+09 7.0203e+08)
(-4.26961e+09 5.35773e+09 4.74162e+08)
(-4.47614e+09 4.09308e+09 7.02047e+08)
(-5.04747e+09 4.15913e+09 5.56279e+08)
(-6.61648e+09 6.19212e+09 -4.50328e+08)
(-7.89415e+09 5.79309e+09 8.39024e+08)
(-8.95014e+09 6.73341e+09 5.76814e+08)
(-1.00248e+10 7.13638e+09 6.7369e+08)
(-3.30513e+09 3.38411e+09 1.07863e+09)
(-3.48411e+09 2.59384e+09 1.24e+09)
(-4.16358e+09 3.97922e+09 1.2076e+09)
(-4.28306e+09 3.72222e+09 1.43845e+09)
(-4.65395e+09 4.44393e+09 1.2621e+09)
(-4.99808e+09 4.95849e+09 8.69955e+08)
(-8.65591e+09 9.59395e+09 1.75231e+09)
(-9.24985e+09 7.21963e+09 -6.7779e+08)
(-8.90261e+09 4.25269e+09 5.68497e+08)
(-8.37659e+09 5.97126e+09 5.58889e+08)
(-3.80609e+09 2.59491e+09 1.33179e+08)
(-3.64601e+09 3.97115e+09 6.61496e+08)
(-4.09499e+09 4.93599e+09 4.79067e+07)
(-4.86454e+09 3.71782e+09 1.71202e+08)
(-5.17755e+09 4.07816e+09 1.57707e+09)
(-4.7017e+09 6.72537e+09 5.90133e+08)
(-5.90698e+09 9.00114e+09 -2.65848e+08)
(-1.00605e+10 6.51936e+09 2.06943e+09)
(-7.97988e+09 5.71227e+09 -5.32077e+08)
(-8.74319e+09 5.76755e+09 2.60623e+08)
(-2.96553e+09 3.08558e+09 1.03843e+08)
(-3.06425e+09 4.4948e+09 -6.73779e+08)
(-3.3873e+09 3.9082e+09 -1.10812e+08)
(-3.81397e+09 4.84174e+09 -3.48001e+08)
(-4.33805e+09 4.3243e+09 -4.77861e+08)
(-4.73414e+09 5.35479e+09 -3.72545e+08)
(-7.44146e+09 7.73646e+09 5.752e+08)
(-7.9658e+09 7.39025e+09 -1.77907e+09)
(-8.32485e+09 6.5482e+09 -8.58444e+08)
(-8.48943e+09 6.02494e+09 -7.5765e+08)
(-3.53564e+09 4.83025e+09 -1.61664e+08)
(-4.08831e+09 4.13156e+09 -8.30754e+07)
(-4.63014e+09 4.59256e+09 3.66936e+08)
(-5.34877e+09 4.60558e+09 -4.02109e+08)
(-5.86366e+09 5.50347e+09 4.20875e+08)
(-5.88312e+09 5.3687e+09 -4.7082e+08)
(-7.21764e+09 5.7494e+09 -1.36069e+09)
(-1.43948e+10 3.77025e+09 -1.59962e+09)
(-1.29602e+10 5.57442e+09 -5.94133e+08)
(-1.5401e+10 8.22579e+09 -1.20269e+09)
)
;
    }
    procBoundary9to8
    {
        type            processor;
        value           nonuniform List<vector> 
20
(
(-3.10575e+08 -1.54317e+09 8.49141e+07)
(-9.55328e+08 2.43534e+09 2.96691e+08)
(-1.51227e+08 2.56597e+08 9.81864e+07)
(-6.54108e+08 2.86237e+09 -2.19807e+08)
(-2.14587e+09 3.21456e+09 7.33092e+08)
(-1.29826e+08 7.00613e+08 1.72589e+08)
(1.4904e+08 3.57334e+09 6.7281e+08)
(9.23956e+08 7.4903e+08 1.17187e+07)
(-1.88007e+09 3.53413e+09 3.0645e+08)
(-1.20584e+09 4.3507e+09 7.19815e+08)
(-8.89378e+08 3.80208e+09 6.74643e+08)
(-8.76113e+08 4.79228e+09 7.45978e+08)
(-1.53634e+09 3.75155e+09 4.69227e+08)
(-1.20463e+09 5.38166e+09 1.75492e+08)
(-1.46364e+09 6.18693e+09 8.52404e+08)
(1.9314e+07 6.30281e+09 7.9678e+08)
(-1.69637e+09 4.94858e+09 -8.72865e+07)
(-6.36914e+08 5.14213e+09 2.28699e+08)
(4.43175e+08 6.69752e+09 2.37203e+07)
(4.61006e+08 7.67641e+09 6.53219e+08)
)
;
    }
    procBoundary9to10
    {
        type            processor;
        value           nonuniform List<vector> 
20
(
(-8.00483e+09 6.57127e+09 4.75028e+08)
(-6.21034e+09 7.12956e+09 3.61193e+08)
(-4.12118e+09 7.47329e+09 -7.61503e+08)
(-2.94197e+09 9.03281e+09 5.63823e+08)
(-7.74618e+09 7.59751e+09 9.18286e+08)
(-7.16092e+09 7.6298e+09 -8.0913e+08)
(-3.66781e+09 8.388e+09 5.05041e+08)
(-3.23213e+09 9.17692e+09 -7.65317e+08)
(-7.83515e+09 7.66602e+09 8.54127e+07)
(-5.10435e+09 8.59993e+09 8.57167e+08)
(-2.93869e+09 9.06298e+09 -6.48965e+08)
(-3.04324e+08 1.07818e+10 -4.92525e+07)
(-5.73396e+09 9.27488e+09 -3.66464e+08)
(-4.82871e+09 1.16464e+10 -7.53478e+08)
(3.13542e+08 1.11094e+10 6.51203e+08)
(2.84246e+09 1.16477e+10 1.35377e+09)
(-6.32001e+09 8.48589e+09 -1.0023e+09)
(-2.72751e+09 8.5715e+09 2.60233e+08)
(-1.66407e+09 1.05272e+10 8.3115e+08)
(-4.04991e+09 1.14839e+10 2.13031e+09)
)
;
    }
    procBoundary9to17
    {
        type            processor;
        value           nonuniform List<vector> 
50
(
(-1.27949e+08 3.35111e+09 1.08668e+09)
(-1.23136e+09 8.16792e+09 -6.11394e+08)
(4.09225e+08 3.68741e+09 4.31873e+08)
(-3.70665e+08 6.29789e+09 -6.52159e+08)
(2.95516e+08 4.26196e+09 -3.10244e+08)
(-7.24144e+07 6.12664e+09 -7.65524e+08)
(2.30576e+08 8.33077e+09 -5.42298e+08)
(1.24575e+09 1.0199e+10 2.3352e+08)
(9.11138e+08 1.07024e+10 -1.23805e+08)
(9.64504e+08 9.67777e+09 3.33031e+08)
(6.56598e+08 4.51548e+09 2.52025e+08)
(9.57398e+08 5.82651e+09 -4.28565e+08)
(1.03958e+09 6.59631e+09 -3.15824e+08)
(1.04796e+09 7.20098e+09 -4.4343e+08)
(1.70582e+09 8.67009e+09 -1.00308e+09)
(3.34138e+08 9.39749e+09 -1.17442e+08)
(-8.56411e+08 1.83536e+10 4.17726e+09)
(3.53717e+09 1.75592e+10 1.53067e+09)
(-5.04905e+09 1.9628e+10 4.47651e+09)
(7.91057e+08 2.21472e+10 3.43042e+09)
(6.09938e+08 4.61402e+09 3.04621e+08)
(5.48385e+08 5.12957e+09 3.63588e+08)
(8.56478e+08 6.26225e+09 2.73606e+08)
(8.31719e+08 7.51935e+09 1.87121e+07)
(1.81426e+09 7.5153e+09 -1.83107e+08)
(2.36379e+09 7.82876e+09 -5.42468e+08)
(3.48475e+09 6.42778e+09 2.5839e+08)
(2.49905e+09 7.99908e+09 -1.12854e+09)
(3.11719e+09 7.96295e+09 -1.42896e+08)
(3.24721e+09 1.09247e+10 9.17012e+08)
(1.29095e+09 6.06578e+09 7.17974e+08)
(1.60348e+09 7.69948e+09 7.93197e+08)
(4.91303e+08 7.72365e+09 1.10977e+09)
(-1.27387e+08 8.94491e+09 1.85777e+09)
(8.16214e+08 1.08985e+10 1.5465e+09)
(2.09263e+09 7.05137e+09 9.15761e+08)
(2.75162e+09 5.70195e+09 -4.09382e+07)
(-3.75962e+07 8.78652e+09 6.78832e+09)
(2.62012e+09 1.00036e+10 1.29906e+09)
(4.02871e+09 1.2248e+10 1.30653e+09)
(4.81546e+09 8.59142e+09 -1.12717e+09)
(1.64434e+09 7.74193e+09 4.39752e+07)
(6.69569e+08 7.40847e+09 4.81151e+08)
(7.11467e+08 6.82447e+09 1.28593e+09)
(2.06106e+09 4.02773e+09 8.66948e+08)
(1.7207e+09 6.99702e+09 -2.01983e+08)
(1.89651e+09 4.66869e+09 4.96402e+07)
(2.31536e+09 1.15636e+10 -5.01005e+06)
(7.26893e+09 2.71111e+10 -1.00742e+10)
(-4.92053e+09 9.0874e+09 1.16327e+09)
)
;
    }
}


// ************************************************************************* //
