/*--------------------------------*- C++ -*----------------------------------*\
| =========                 |                                                 |
| \\      /  F ield         | OpenFOAM: The Open Source CFD Toolbox           |
|  \\    /   O peration     | Version:  2.4.0                                 |
|   \\  /    A nd           | Web:      www.OpenFOAM.org                      |
|    \\/     M anipulation  |                                                 |
\*---------------------------------------------------------------------------*/
FoamFile
{
    version     2.0;
    format      ascii;
    class       volVectorField;
    location    "0.05";
    object      U;
}
// * * * * * * * * * * * * * * * * * * * * * * * * * * * * * * * * * * * * * //

dimensions      [0 1 -1 0 0 0 0];

internalField   nonuniform List<vector> 
200
(
(-75.5685 -214.67 -51.2272)
(-118.253 -29.1398 59.7088)
(-57.6561 -207.119 61.6118)
(-114.139 -43.4316 -44.6231)
(-31.0063 -189.119 19.6176)
(-71.2016 -26.1052 -73.3707)
(5.14284 -212.742 31.9235)
(-48.6332 33.7839 -89.9522)
(31.1728 -193.693 74.3793)
(-62.5288 47.2017 -22.4955)
(-117.544 -40.6466 60.7341)
(-64.2183 -226.645 51.4886)
(-118.348 -53.2398 -47.5979)
(-40.8597 -206.172 1.34138)
(-71.5664 -38.4859 -87.3527)
(-3.20435 -237.579 15.7547)
(-47.459 21.4252 -112.404)
(22.593 -238.239 66.33)
(-69.0582 27.667 -43.3537)
(9.74933 -142.469 44.0344)
(-65.5727 -234.072 34.0062)
(-115.853 -50.4844 -42.8555)
(-50.2942 -213.399 -15.1239)
(-70.3954 -41.4745 -95.8315)
(-13.3816 -248.5 0.540485)
(-44.6515 20.1526 -128.451)
(14.4655 -264.966 59.3093)
(-66.3489 28.4477 -63.7084)
(4.54382 -172.766 35.1947)
(-102.826 1.418 19.8684)
(-107.932 -34.6728 -33.5016)
(-57.1448 -210.411 -28.5379)
(-67.4949 -36.0303 -99.5922)
(-22.8108 -248.015 -14.8003)
(-40.2941 26.1308 -140.068)
(6.80302 -279.974 51.1932)
(-59.6501 40.9693 -81.9544)
(3.40453 -196.877 29.0315)
(-99.9179 7.05901 7.49263)
(-25.622 -123.001 24.1593)
(-95.1854 -61.3875 65.6203)
(-45.6712 -214.632 -40.1798)
(-42.5725 -74.712 -1.8339)
(-13.055 -204.61 -42.0957)
(-16.083 -50.3297 -66.7486)
(11.0989 -254.662 7.98016)
(-9.87503 15.4758 -91.0661)
(20.0385 -272.658 95.2435)
(-56.3721 46.9468 18.8492)
(12.2706 -187.788 115.683)
(-39.1564 -225.344 -42.7384)
(-40.9129 -78.6785 -4.52395)
(-14.8343 -208.737 -63.4258)
(-15.8851 -55.2761 -85.5562)
(2.64283 -259.805 -11.5867)
(-12.5103 17.118 -120.561)
(11.6568 -296.666 83.3192)
(-59.8844 48.7404 -14.2219)
(3.03233 -194.295 95.9614)
(-95.34 22.743 45.0959)
(-35.5894 -73.2481 2.92152)
(-12.808 -207.426 -72.3337)
(-14.0059 -58.1448 -95.5874)
(-5.31264 -260.198 -24.9804)
(-14.6953 18.6571 -140.018)
(-0.67138 -312.065 72.1571)
(-63.2785 52.3392 -43.5499)
(-10.4933 -216.776 79.4421)
(-108.505 20.5109 41.8012)
(-39.5715 -108.722 77.7924)
(-4.93258 -200.116 -66.7106)
(-10.8598 -56.3795 -93.8647)
(-9.68876 -249.733 -37.2183)
(-15.2091 21.5919 -153.103)
(-12.1751 -319.191 60.7602)
(-64.0966 62.4225 -70.1505)
(-21.5287 -237.207 63.8102)
(-118.144 26.6413 40.4924)
(-49.5113 -120.599 68.579)
(-150.135 13.7307 53.2716)
(14.649 -215.478 -77.9179)
(-17.2116 -97.4662 -17.0498)
(15.1654 -208.458 -93.7627)
(13.6225 -82.1494 -78.0133)
(17.3541 -257.765 -35.4125)
(14.4176 -18.0245 -111.726)
(22.9453 -309.464 52.1007)
(-30.845 36.2328 -16.2393)
(12.9799 -265.901 101.152)
(-71.1744 18.3691 67.7494)
(-27.0452 -96.0676 -6.97892)
(10.4346 -210.555 -92.7024)
(0.903213 -83.4658 -90.2925)
(3.13681 -262.919 -34.8839)
(0.756156 -4.54093 -139.808)
(5.73771 -321.614 58.2793)
(-45.7829 55.1479 -44.2277)
(2.03291 -257.869 86.8268)
(-82.3033 40.8283 55.014)
(-12.2157 -154.823 100.201)
(13.1091 -210.165 -86.5561)
(-4.81085 -84.5925 -91.76)
(-5.51478 -259.935 -36.187)
(-7.28193 1.22099 -158.048)
(-11.5587 -333.02 61.1908)
(-54.687 64.9566 -69.8365)
(-16.5354 -268.674 72.1055)
(-98.5516 43.7862 46.8186)
(-31.4021 -160.068 85.4825)
(-120.1 12.0195 71.1775)
(-7.26796 -81.3119 -78.7896)
(-8.37772 -242.469 -43.5861)
(-11.1741 2.81998 -164.463)
(-24.6333 -333.774 54.5324)
(-59.5837 75.9098 -94.6687)
(-32.2039 -282.682 58.4743)
(-113.884 50.3399 42.4106)
(-48.8347 -165.709 69.1135)
(-139.427 19.8668 68.8943)
(-76.1807 -77.0659 78.1811)
(-12.8443 -65.9314 25.6385)
(57.9822 -201.674 -92.0152)
(17.433 -81.4856 -36.9341)
(38.6739 -230.166 -62.0858)
(26.1234 -51.5917 -95.1535)
(30.9042 -284.72 3.15307)
(-7.86472 23.663 -66.2523)
(28.784 -300.503 45.4298)
(-45.0396 38.6146 32.8916)
(14.5647 -230.31 76.35)
(46.4531 -210.853 -93.2998)
(-0.368141 -84.7407 -44.8099)
(16.9787 -245.543 -49.244)
(5.51503 -28.5386 -131.029)
(7.05307 -307.426 30.6637)
(-34.0312 58.6711 -80.4287)
(4.40518 -299.759 53.4313)
(-69.6714 60.33 34.8603)
(-5.47512 -214.224 63.3979)
(-85.3438 31.0997 78.165)
(-8.33554 -85.6316 -46.1903)
(2.46365 -243.888 -41.3298)
(-6.00939 -17.2815 -152.874)
(-15.5095 -328.402 54.877)
(-47.8604 76.0761 -101.854)
(-17.6829 -306.068 52.7876)
(-89.5352 74.6955 38.8201)
(-29.4911 -206.303 52.6553)
(-106.107 41.4632 76.6308)
(-42.7651 -121.213 72.6507)
(-2.43002 -220.664 -45.3415)
(-13.8965 -15.4395 -154.869)
(-31.1731 -325.666 53.4251)
(-57.4845 87.5415 -121.368)
(-38.3636 -318.04 49.7521)
(-108.194 88.1782 41.0874)
(-51.5828 -204.745 40.2699)
(-126.368 50.0276 77.9539)
(-66.3088 -111.835 64.7912)
(-135.576 24.3658 63.6335)
(94.2543 -167.604 -50.2158)
(43.1869 -48.9048 25.6489)
(77.3058 -176.412 -54.6055)
(49.8966 -48.3322 -25.0127)
(58.2912 -215.018 -15.6518)
(19.8451 -8.22579 -63.8385)
(42.4292 -253.749 7.49242)
(-32.215 49.0266 4.67536)
(23.4385 -247.478 14.2141)
(-41.7647 34.2642 56.5251)
(2.04705 -39.7771 51.0071)
(59.5867 -205.778 -50.3899)
(10.8925 -40.1642 -57.1772)
(24.1246 -263.238 14.6031)
(-29.3237 39.8169 -95.5562)
(3.41277 -284.374 33.599)
(-68.9962 79.1977 14.5726)
(-6.51536 -232.267 13.1402)
(-68.6613 56.0091 64.4426)
(-3.14305 -176.17 24.1485)
(44.894 -207.096 -47.3127)
(-4.80787 -33.4263 -85.7969)
(-5.14101 -290.596 42.8159)
(-55.8293 65.9961 -120.823)
(-28.5472 -305.699 43.6435)
(-94.5633 97.0437 18.6315)
(-35.9499 -226.684 9.73334)
(-93.6064 73.9061 71.6806)
(-30.3982 -157.133 20.8577)
(-82.2204 46.1206 80.6335)
(-15.7074 -27.4384 -85.3451)
(-29.0042 -296.242 55.1528)
(-71.328 77.7861 -135.75)
(-55.8004 -323.652 49.0727)
(-117.962 111.197 18.6315)
(-63.6722 -228.682 1.58903)
(-118.533 88.2006 78.6305)
(-60.5877 -140.631 14.9752)
(-105.328 60.2188 82.4069)
(-50.176 -79.3205 37.3842)
)
;

boundaryField
{
    inlet
    {
        type            calculated;
        value           nonuniform 0();
    }
    outlet
    {
        type            calculated;
        value           nonuniform 0();
    }
    bottom
    {
        type            calculated;
        value           uniform (0 0 0);
    }
    top
    {
        type            symmetryPlane;
    }
    side1
    {
        type            symmetryPlane;
    }
    side2
    {
        type            symmetryPlane;
    }
    procBoundary19to11
    {
        type            processor;
        value           nonuniform List<vector> 
50
(
(-105.908 -9.97426 103.801)
(-70.2347 -189.111 -65.602)
(-105.039 -8.44129 63.0101)
(-49.1213 -178.141 65.7133)
(-106.678 -24.4361 -32.1692)
(-27.006 -159.962 40.6942)
(-76.3383 0.169272 -48.8442)
(1.16346 -158.881 52.9037)
(-53.4752 75.1278 -48.1475)
(40.6486 -106.541 80.6583)
(-67.6163 -200.884 -69.4485)
(-91.2905 -55.9699 54.6352)
(-46.4818 -200.584 -28.5399)
(-40.0732 -67.1448 12.8874)
(-11.1411 -199.266 -8.38621)
(-17.7659 -45.8548 -34.4129)
(15.0416 -247.093 44.0147)
(-13.546 3.17477 -32.9665)
(4.37653 -230.809 96.3268)
(-50.5504 54.0086 70.5922)
(-49.0273 -59.2702 41.3367)
(22.8538 -203.223 -79.8429)
(-1.41423 -93.401 -16.0442)
(26.0134 -207.101 -87.1159)
(32.1311 -84.4578 -56.7604)
(35.7566 -258.848 -29.2026)
(34.7709 -41.0887 -73.3229)
(43.9789 -307.319 54.6544)
(0.256759 -9.48469 21.2476)
(6.72913 -220.261 80.8565)
(79.0773 -187.879 -64.027)
(22.2039 -55.8497 17.2893)
(75.7172 -189.819 -82.6842)
(44.3127 -79.6661 -25.4421)
(59.3064 -217.496 -70.1354)
(53.6622 -72.2677 -64.3674)
(52.9783 -279.039 -15.0934)
(24.9415 -21.83 -54.0736)
(50.6688 -308.518 39.5105)
(-19.8478 -13.2484 37.4913)
(93.155 -37.1786 6.73325)
(96.9116 -133.925 -34.9544)
(100.73 -43.3492 3.71081)
(96.5427 -141.38 -30.3911)
(100.688 -57.7442 -13.163)
(87.8666 -178.276 -24.1074)
(71.945 -50.4755 -32.8968)
(70.0661 -248.573 -9.75543)
(11.3352 3.29405 -6.63717)
(48.7309 -266.714 8.07335)
)
;
    }
    procBoundary19to18
    {
        type            processor;
        value           nonuniform List<vector> 
20
(
(-117.358 -36.6385 104.754)
(-69.5946 -232.46 -45.1694)
(-103.764 -34.0884 66.8172)
(-61.3277 -229.454 15.2692)
(-57.2811 -220.158 -58.8249)
(-83.7307 -61.1672 82.5453)
(-24.668 -227.164 -40.7218)
(-27.3593 -54.2858 21.4028)
(-64.3548 -63.4654 69.6567)
(13.1092 -223.197 -66.8188)
(-33.4109 -82.3861 18.9116)
(21.5196 -204.625 -74.9187)
(66.4399 -200.656 -66.017)
(-29.366 -70.8173 36.8422)
(42.3589 -211.059 -87.3751)
(-14.648 -78.0914 -35.7753)
(25.9799 -34.8742 63.4185)
(94.6055 -191.022 -62.0098)
(-11.087 -28.573 58.4859)
(31.681 -188.12 -44.3271)
)
;
    }
    procBoundary19to20
    {
        type            processor;
        value           nonuniform List<vector> 
20
(
(26.8278 -113.578 58.6576)
(-97.3811 7.9476 29.6249)
(-26.2524 -109.221 35.7362)
(-150.026 32.0052 48.5823)
(-81.0529 34.3014 54.598)
(-23.3297 -97.11 84.7077)
(-132.943 4.7969 51.3925)
(-74.8352 -77.1125 58.6367)
(-3.84026 -162.364 120.823)
(-100.013 13.3322 77.6242)
(-58.5821 -81.8899 83.9679)
(-155.193 16.9306 39.0073)
(-63.5953 16.7763 80.5243)
(-16.1211 -135.251 82.6481)
(-111.106 9.57878 66.9587)
(-92.0379 -61.3909 47.5006)
(22.076 -196.299 26.5625)
(-59.9087 28.021 78.6604)
(-21.3537 -99.7887 40.71)
(-90.3148 45.7039 50.1167)
)
;
    }
    procBoundary19to27
    {
        type            processor;
        value           nonuniform List<vector> 
50
(
(-60.3107 -198.093 -37.3937)
(-65.055 -22.4136 -97.9024)
(-31.319 -235.762 -30.0112)
(-36.8535 37.8034 -147.637)
(-1.37286 -283.751 40.4771)
(-52.959 61.1526 -97.0503)
(1.73559 -215.616 24.0075)
(-93.5461 21.4732 -4.13874)
(-20.6299 -135.352 9.89495)
(-146.357 37.0773 46.6253)
(-9.07536 -45.6694 -74.6197)
(-10.1446 -225.297 -49.0698)
(-15.1815 26.7994 -158.542)
(-22.1149 -314.701 46.1737)
(-63.9723 79.2894 -93.6079)
(-32.2513 -255.222 48.5299)
(-124.468 37.8553 32.5392)
(-54.1907 -141.14 47.9523)
(-163.244 26.4875 59.6734)
(-82.0883 -77.9334 59.9393)
(-5.67809 -210.147 -52.6811)
(-13.885 5.1518 -160.563)
(-34.238 -320.935 41.3037)
(-62.6755 91.2064 -116.572)
(-46.6531 -296.901 46.119)
(-125.872 63.7307 33.8384)
(-63.6062 -176.316 45.9185)
(-158.343 29.5435 68.663)
(-89.9598 -79.4236 69.4538)
(-180.36 30.2256 45.9976)
(-22.4907 -11.2227 -144.162)
(-44.1391 -307.591 44.4938)
(-66.0312 99.1536 -136.912)
(-57.9552 -328.407 46.3919)
(-124.595 102.686 32.9072)
(-71.6164 -212.739 22.6243)
(-147.642 59.1191 81.6493)
(-88.5583 -108.335 54.0375)
(-160.473 36.4806 65.4653)
(-109.91 -40.9907 58.0823)
(-47.0705 -276.765 50.5587)
(-86.8932 89.138 -144.707)
(-81.8523 -334.592 52.4742)
(-141.665 126.575 12.6036)
(-92.5271 -240.528 -11.2826)
(-146.429 98.5117 83.5462)
(-94.5864 -128.279 2.12357)
(-133.244 70.2847 85.1064)
(-81.6661 -65.3669 33.1584)
(-117.722 64.871 53.293)
)
;
    }
}


// ************************************************************************* //
