/*--------------------------------*- C++ -*----------------------------------*\
| =========                 |                                                 |
| \\      /  F ield         | OpenFOAM: The Open Source CFD Toolbox           |
|  \\    /   O peration     | Version:  2.4.0                                 |
|   \\  /    A nd           | Web:      www.OpenFOAM.org                      |
|    \\/     M anipulation  |                                                 |
\*---------------------------------------------------------------------------*/
FoamFile
{
    version     2.0;
    format      ascii;
    class       volVectorField;
    location    "0.05";
    object      Uc;
}
// * * * * * * * * * * * * * * * * * * * * * * * * * * * * * * * * * * * * * //

dimensions      [0 1 -1 0 0 0 0];

internalField   nonuniform List<vector> 
200
(
(2.06092e-13 5.52308e-14 3.09524e-14)
(4.54561e-12 1.28451e-12 5.80666e-13)
(2.07282e-13 5.85769e-14 2.64744e-14)
(5.10641e-15 1.44306e-15 6.5222e-16)
(9.04131e-17 2.54306e-17 1.1593e-17)
(1.29046e-18 3.58103e-19 1.67606e-19)
(1.57869e-20 4.26699e-21 2.10355e-21)
(1.75836e-22 4.35434e-23 2.02101e-24)
(6.8682e-23 -1.54519e-23 -3.70341e-22)
(3.96508e-24 -9.32092e-25 -2.18482e-23)
(8.74668e-11 2.47192e-11 1.1169e-11)
(2.15824e-09 6.09944e-10 2.75596e-10)
(8.74668e-11 2.47192e-11 1.11691e-11)
(1.93889e-12 5.47953e-13 2.47598e-13)
(3.12062e-14 8.77178e-15 4.00855e-15)
(4.08378e-16 1.13012e-16 5.33799e-17)
(4.61462e-18 1.23832e-18 6.23367e-19)
(4.83138e-20 1.15257e-20 -2.23263e-21)
(2.97277e-20 -6.83726e-21 -1.62027e-19)
(1.60814e-21 -3.79276e-22 -8.87619e-21)
(3.11419e-08 8.80109e-09 3.97663e-09)
(8.78364e-07 2.48236e-07 1.12163e-07)
(3.11419e-08 8.80109e-09 3.97668e-09)
(6.13501e-10 1.73382e-10 7.83417e-11)
(8.88658e-12 2.49509e-12 1.14406e-12)
(1.05754e-13 2.91289e-14 1.39346e-14)
(1.09628e-15 2.90621e-16 1.50757e-16)
(1.08422e-17 2.40948e-18 -1.72965e-18)
(1.16562e-17 -2.72037e-18 -6.39931e-17)
(5.85649e-19 -1.38427e-19 -3.23626e-18)
(8.4481e-06 2.38754e-06 1.07877e-06)
(0.000278052 7.85809e-05 3.55058e-05)
(8.4481e-06 2.38754e-06 1.07878e-06)
(1.45595e-07 4.11466e-08 1.85919e-08)
(1.87484e-09 5.252e-10 2.42048e-10)
(2.00951e-11 5.48304e-12 2.67732e-12)
(1.89692e-13 4.90583e-14 2.67749e-14)
(1.8164e-15 3.40571e-16 -7.70971e-16)
(3.99964e-15 -9.41745e-16 -2.20569e-14)
(1.84924e-16 -4.3768e-17 -1.02263e-15)
(-8.65071e-13 -2.43576e-12 3.26067e-12)
(-1.62865e-14 -9.69705e-14 1.40028e-13)
(1.48527e-16 -2.10055e-15 3.31253e-15)
(1.32253e-17 -3.48615e-17 5.85567e-17)
(2.21566e-17 -4.27602e-17 3.11224e-17)
(1.11011e-18 -2.14561e-18 1.5428e-18)
(3.03951e-20 -5.87377e-20 4.17465e-20)
(1.96315e-21 -1.4788e-21 -6.74297e-21)
(2.49621e-20 -5.92937e-21 -1.3806e-19)
(1.36657e-21 -3.23946e-22 -7.56023e-21)
(3.7491e-13 9.82487e-14 5.97274e-14)
(8.53216e-12 2.41093e-12 1.09007e-12)
(3.77964e-13 1.06784e-13 4.82937e-14)
(9.55146e-15 1.73e-15 1.7689e-15)
(9.57322e-15 -1.82022e-14 1.30856e-14)
(4.38649e-16 -8.45223e-16 6.05932e-16)
(1.10853e-17 -2.13975e-17 1.52021e-17)
(7.99978e-19 -5.32657e-19 -3.03051e-18)
(1.18286e-17 -2.80717e-18 -6.54314e-17)
(5.97936e-19 -1.41711e-19 -3.30811e-18)
(1.19611e-10 3.38036e-11 1.52736e-11)
(3.03795e-09 8.58561e-10 3.87932e-10)
(1.19615e-10 3.37969e-11 1.52787e-11)
(2.74628e-12 4.42e-13 5.40278e-13)
(3.61073e-12 -6.90702e-12 4.95918e-12)
(1.50987e-13 -2.91463e-13 2.08869e-13)
(3.50162e-15 -6.7635e-15 4.80681e-15)
(2.95119e-16 -1.70044e-16 -1.22548e-15)
(5.09589e-15 -1.20855e-15 -2.81919e-14)
(2.36195e-16 -5.59691e-17 -1.30681e-15)
(2.83907e-08 8.02354e-09 3.62531e-09)
(8.24169e-07 2.3292e-07 1.05242e-07)
(2.83916e-08 8.02179e-09 3.62661e-09)
(5.90396e-10 7.18155e-11 1.29316e-10)
(1.13574e-09 -2.18396e-09 1.56635e-09)
(4.28858e-11 -8.29174e-11 5.94011e-11)
(9.05222e-13 -1.7492e-12 1.24204e-12)
(9.53909e-14 -4.6336e-14 -4.31205e-13)
(1.93205e-12 -4.57989e-13 -1.06895e-11)
(8.14282e-14 -1.92931e-14 -4.50542e-13)
(-4.67054e-10 -1.31371e-09 1.75838e-09)
(-1.77213e-11 -4.9846e-11 6.67187e-11)
(-3.73688e-13 -1.05113e-12 1.40694e-12)
(-5.5559e-15 -1.66892e-14 2.2069e-14)
(4.74714e-15 -9.54826e-15 6.96488e-15)
(2.22645e-16 -4.35336e-16 3.13115e-16)
(5.65261e-18 -1.09814e-17 7.82206e-18)
(3.58352e-19 -2.60879e-19 -1.26893e-18)
(5.04716e-18 -1.19823e-18 -2.79173e-17)
(2.55125e-19 -6.04702e-20 -1.41148e-18)
(-1.47719e-12 -4.15723e-12 5.56471e-12)
(-4.38031e-14 -1.70103e-13 2.36975e-13)
(1.67812e-15 -8.1422e-15 8.65384e-15)
(9.62916e-14 -1.86695e-13 1.33729e-13)
(2.28458e-12 -4.42794e-12 3.17053e-12)
(9.62929e-14 -1.86633e-13 1.33634e-13)
(2.23651e-15 -4.32955e-15 3.08013e-15)
(1.58608e-16 -1.01678e-16 -6.17033e-16)
(2.60922e-15 -6.18984e-16 -1.44342e-14)
(1.20934e-16 -2.86587e-17 -6.69095e-16)
(2.49658e-13 6.03587e-14 4.72432e-14)
(5.854e-12 1.62751e-12 7.63238e-13)
(1.02345e-12 -1.42089e-12 1.10104e-12)
(3.65238e-11 -7.07764e-11 5.06799e-11)
(9.62512e-10 -1.86552e-09 1.33577e-09)
(3.65179e-11 -7.07782e-11 5.0679e-11)
(7.71256e-13 -1.49278e-12 1.062e-12)
(6.40221e-14 -3.54271e-14 -2.71844e-13)
(1.23655e-12 -2.93187e-13 -6.84127e-12)
(5.21147e-14 -1.23484e-14 -2.88347e-13)
(5.3493e-11 1.50384e-11 6.87571e-12)
(1.38961e-09 3.85882e-10 1.81328e-10)
(2.72495e-10 -4.09427e-10 3.10805e-10)
(1.15421e-08 -2.23682e-08 1.60166e-08)
(3.42164e-07 -6.63176e-07 4.74852e-07)
(1.1541e-08 -2.23685e-08 1.60165e-08)
(2.19454e-10 -4.24633e-10 3.01673e-10)
(2.28428e-11 -1.06506e-11 -1.05083e-10)
(5.20941e-10 -1.23468e-10 -2.88231e-09)
(1.97636e-11 -4.68247e-12 -1.09354e-10)
(-1.41684e-07 -3.98525e-07 5.33423e-07)
(-4.77923e-09 -1.34428e-08 1.79933e-08)
(-9.07074e-11 -2.55139e-10 3.41506e-10)
(-1.27534e-12 -3.58723e-12 4.80155e-12)
(-1.47718e-14 -4.16534e-14 5.57274e-14)
(-1.4866e-16 -4.23395e-16 5.65386e-16)
(-1.33845e-18 -3.90873e-18 5.19484e-18)
(-9.58546e-21 -3.39589e-20 3.67301e-20)
(2.48708e-20 -6.18627e-21 -1.37712e-19)
(1.36587e-21 -3.25869e-22 -7.52058e-21)
(-3.98552e-10 -1.12103e-09 1.50048e-09)
(-1.51222e-11 -4.25352e-11 5.69333e-11)
(-3.18875e-13 -8.96978e-13 1.2006e-12)
(-4.49532e-15 -1.47178e-14 1.91734e-14)
(9.35213e-15 -1.84226e-14 1.33003e-14)
(4.35732e-16 -8.47778e-16 6.0774e-16)
(1.10516e-17 -2.14241e-17 1.52042e-17)
(7.99632e-19 -5.32916e-19 -3.03029e-18)
(1.18286e-17 -2.80718e-18 -6.54301e-17)
(5.97933e-19 -1.4171e-19 -3.29888e-18)
(-9.4558e-13 -2.66069e-12 3.56145e-12)
(-3.15603e-14 -1.0994e-13 1.51259e-13)
(2.95639e-15 -9.25462e-15 8.37513e-15)
(1.50451e-13 -2.91654e-13 2.08862e-13)
(3.56965e-12 -6.91863e-12 4.95392e-12)
(1.50457e-13 -2.91613e-13 2.08807e-13)
(3.49572e-15 -6.76517e-15 4.80706e-15)
(2.95061e-16 -1.70061e-16 -1.22533e-15)
(5.0959e-15 -1.20855e-15 -2.81916e-14)
(2.36194e-16 -5.59689e-17 -1.30576e-15)
(7.25091e-14 1.50491e-14 1.7241e-14)
(1.75514e-12 4.64797e-13 2.4207e-13)
(9.76726e-13 -1.72801e-12 1.26184e-12)
(4.27961e-11 -8.29427e-11 5.93898e-11)
(1.12794e-09 -2.18616e-09 1.56535e-09)
(4.27944e-11 -8.29432e-11 5.93894e-11)
(9.04288e-13 -1.74946e-12 1.24189e-12)
(9.53824e-14 -4.63385e-14 -4.31192e-13)
(1.93205e-12 -4.57989e-13 -1.06895e-11)
(8.14282e-14 -1.9293e-14 -4.50552e-13)
(-4.6792e-10 -1.31615e-09 1.75512e-09)
(-1.77579e-11 -4.99487e-11 6.65816e-11)
(-3.74544e-13 -1.0535e-12 1.40375e-12)
(-5.79372e-15 -1.62964e-14 2.17053e-14)
(-7.32754e-17 -2.06364e-16 2.7468e-16)
(-8.01416e-19 -2.26828e-18 3.01509e-18)
(-7.83107e-21 -2.24429e-20 2.97481e-20)
(-6.5799e-23 -2.05879e-22 2.48662e-22)
(6.64007e-23 -1.7625e-23 -3.65042e-22)
(3.94365e-24 -9.49651e-25 -2.14157e-23)
(-1.48112e-12 -4.16605e-12 5.55318e-12)
(-6.24456e-14 -1.75645e-13 2.34036e-13)
(-1.44869e-15 -4.07496e-15 5.4274e-15)
(-2.33656e-17 -7.08569e-17 9.30381e-17)
(2.10388e-17 -4.23695e-17 3.07956e-17)
(1.07686e-18 -2.10595e-18 1.5041e-18)
(2.96309e-20 -5.75474e-20 4.05283e-20)
(2.18703e-21 -1.51124e-21 -7.99924e-21)
(2.93029e-20 -6.95733e-21 -1.61047e-19)
(1.60436e-21 -3.8027e-22 -8.76046e-21)
(-3.90652e-15 -1.09894e-14 1.46425e-14)
(-1.71427e-16 -5.07175e-16 6.80131e-16)
(4.55066e-18 -2.95061e-17 2.91521e-17)
(3.41444e-16 -6.62147e-16 4.72322e-16)
(7.36625e-15 -1.42771e-14 1.01921e-14)
(3.41514e-16 -6.61915e-16 4.72102e-16)
(8.65798e-18 -1.67534e-17 1.18401e-17)
(7.42894e-19 -4.44727e-19 -2.99844e-18)
(1.15698e-17 -2.74478e-18 -6.37406e-17)
(5.84956e-19 -1.38622e-19 -3.21334e-18)
(7.65559e-17 -2.36884e-18 4.54268e-17)
(1.85218e-15 4.45539e-16 2.8113e-16)
(2.1333e-15 -3.94568e-15 2.84164e-15)
(8.82945e-14 -1.71126e-13 1.22165e-13)
(2.09448e-12 -4.05948e-12 2.89872e-12)
(8.82924e-14 -1.71127e-13 1.22161e-13)
(2.05284e-15 -3.97082e-15 2.80733e-15)
(2.19384e-16 -1.10765e-16 -9.70705e-16)
(3.98704e-15 -9.45308e-16 -2.19923e-14)
(1.8483e-16 -4.37943e-17 -1.01866e-15)
)
;

boundaryField
{
    inlet
    {
        type            calculated;
        value           nonuniform 0();
    }
    outlet
    {
        type            calculated;
        value           nonuniform 0();
    }
    bottom
    {
        type            calculated;
        value           uniform (0 0 0);
    }
    top
    {
        type            symmetryPlane;
    }
    side1
    {
        type            symmetryPlane;
    }
    side2
    {
        type            symmetryPlane;
    }
    procBoundary19to11
    {
        type            processor;
        value           nonuniform List<vector> 
50
(
(-2.25338e-13 -6.34928e-13 8.50074e-13)
(-9.00833e-16 -2.43364e-14 3.69345e-14)
(2.15872e-16 -4.97627e-16 8.87031e-16)
(8.11004e-18 -7.13379e-18 1.55279e-17)
(1.77441e-19 -7.93539e-20 2.21142e-19)
(2.92651e-21 -7.15548e-22 2.71787e-21)
(4.00673e-23 -5.28691e-24 2.99083e-23)
(4.8808e-25 -3.34159e-26 2.52875e-25)
(1.46513e-25 -3.36212e-26 -7.79246e-25)
(8.9792e-27 -2.11529e-27 -4.89162e-26)
(-1.82445e-10 -5.13176e-10 6.86889e-10)
(-6.92245e-12 -1.94714e-11 2.60627e-11)
(-1.45974e-13 -4.10601e-13 5.49595e-13)
(-2.25753e-15 -6.35017e-15 8.49983e-15)
(-2.85202e-17 -8.0445e-17 1.07622e-16)
(-3.10755e-19 -8.86161e-19 1.1831e-18)
(-3.00874e-21 -8.8181e-21 1.17115e-20)
(-2.34186e-23 -8.21221e-23 9.11035e-23)
(4.86839e-23 -1.22948e-23 -2.69614e-22)
(2.88116e-24 -6.88875e-25 -1.58151e-23)
(-1.10692e-07 -3.1135e-07 4.16744e-07)
(-3.7338e-09 -1.05023e-08 1.40574e-08)
(-7.08655e-11 -1.99329e-10 2.66804e-10)
(-9.96362e-13 -2.80255e-12 3.75125e-12)
(-1.15482e-14 -3.25271e-14 4.35267e-14)
(-1.16532e-16 -3.30022e-16 4.4117e-16)
(-1.05642e-18 -3.0329e-18 4.04375e-18)
(-8.26785e-21 -2.59862e-20 3.15456e-20)
(9.05833e-21 -2.37027e-21 -5.02208e-20)
(4.99247e-22 -1.19991e-22 -2.74459e-21)
(-3.83774e-05 -0.000107947 0.000144488)
(-1.13285e-06 -3.18643e-06 4.26506e-06)
(-1.91126e-08 -5.37594e-08 7.19573e-08)
(-2.41855e-10 -6.80282e-10 9.10563e-10)
(-2.55047e-12 -7.17386e-12 9.60226e-12)
(-2.36685e-14 -6.6574e-14 8.91098e-14)
(-1.99679e-16 -5.61651e-16 7.51774e-16)
(-1.56427e-18 -4.39994e-18 5.88933e-18)
(-1.14986e-20 -3.2492e-20 4.32065e-20)
(-7.83047e-23 -2.29036e-22 2.90026e-22)
(-1.10874e-07 -3.11863e-07 4.16057e-07)
(-3.74073e-09 -1.05218e-08 1.40314e-08)
(-7.10119e-11 -1.9974e-10 2.66254e-10)
(-9.98629e-13 -2.80891e-12 3.74275e-12)
(-1.15863e-14 -3.25895e-14 4.34062e-14)
(-1.17319e-16 -3.29992e-16 4.39338e-16)
(-1.07246e-18 -3.01658e-18 4.01449e-18)
(-9.04964e-21 -2.54546e-20 3.38612e-20)
(-7.14494e-23 -2.01402e-22 2.66999e-22)
(-5.28084e-25 -1.51251e-24 1.96034e-24)
)
;
    }
    procBoundary19to18
    {
        type            processor;
        value           nonuniform List<vector> 
20
(
(5.05628e-15 1.3021e-15 8.39645e-16)
(1.93889e-12 5.47953e-13 2.47579e-13)
(6.135e-10 1.73382e-10 7.83385e-11)
(1.45594e-07 4.11467e-08 1.85912e-08)
(-3.27879e-14 -9.22914e-14 1.23241e-13)
(8.98684e-15 2.21541e-15 1.63586e-15)
(2.59582e-12 7.33606e-13 3.30556e-13)
(5.476e-10 1.54758e-10 6.99333e-11)
(-1.57298e-11 -4.42443e-11 5.92275e-11)
(-5.59794e-14 -1.57515e-13 2.10059e-13)
(5.85135e-15 1.23477e-15 1.37621e-15)
(1.14202e-12 3.21945e-13 1.45922e-13)
(-4.175e-09 -1.17433e-08 1.5718e-08)
(-1.34228e-11 -3.77551e-11 5.05332e-11)
(-3.58319e-14 -1.00813e-13 1.34927e-13)
(1.64603e-15 1.56678e-16 -6.33046e-16)
(-1.57626e-11 -4.43366e-11 5.90949e-11)
(-5.6131e-14 -1.57883e-13 2.10348e-13)
(-1.64498e-16 -4.6273e-16 6.16195e-16)
(1.68451e-18 -1.09473e-18 -4.45402e-18)
)
;
    }
    procBoundary19to20
    {
        type            processor;
        value           nonuniform List<vector> 
20
(
(1.25027e-25 -2.95589e-26 -6.72386e-25)
(4.73882e-23 -1.1213e-23 -2.55738e-22)
(1.60392e-20 -3.79735e-21 -8.69724e-20)
(4.67763e-18 -1.10784e-18 -2.55399e-17)
(4.03302e-23 -9.55632e-24 -2.18168e-22)
(1.63874e-20 -3.8827e-21 -8.89388e-20)
(5.97584e-18 -1.41578e-18 -3.25772e-17)
(1.88863e-15 -4.47432e-16 -1.03582e-14)
(6.99208e-21 -1.65672e-21 -3.8016e-20)
(3.05967e-18 -7.24915e-19 -1.66931e-17)
(1.20873e-15 -2.86365e-16 -6.62318e-15)
(4.16746e-13 -9.87294e-14 -2.29535e-12)
(4.02642e-23 -9.5555e-24 -2.13924e-22)
(1.63737e-20 -3.8794e-21 -8.75569e-20)
(5.97426e-18 -1.4154e-18 -3.22292e-17)
(1.88865e-15 -4.47435e-16 -1.03241e-14)
(1.2418e-25 -2.95366e-26 -6.41297e-25)
(4.71986e-23 -1.1183e-23 -2.46237e-22)
(1.6011e-20 -3.79331e-21 -8.46581e-20)
(4.67555e-18 -1.10768e-18 -2.52501e-17)
)
;
    }
    procBoundary19to27
    {
        type            processor;
        value           nonuniform List<vector> 
50
(
(0.00133692 0.000377829 0.000170717)
(0.0528144 0.014926 0.00674413)
(0.00133692 0.000377829 0.000170717)
(1.97447e-05 5.58006e-06 2.52132e-06)
(2.22628e-07 6.19377e-08 2.89844e-08)
(2.12638e-09 5.63766e-10 2.92622e-10)
(1.81595e-11 4.3475e-12 2.75747e-12)
(1.90999e-13 1.70281e-14 -2.39232e-13)
(1.13459e-12 -2.68375e-13 -6.27192e-12)
(4.77908e-14 -1.1319e-14 -2.64398e-13)
(3.85085e-06 1.0883e-06 4.91734e-07)
(0.000130435 3.68625e-05 1.66559e-05)
(3.85102e-06 1.08797e-06 4.91972e-07)
(7.39983e-08 8.89059e-10 2.08108e-08)
(2.6814e-07 -5.17878e-07 3.71084e-07)
(9.02517e-09 -1.74731e-08 1.2514e-08)
(1.71694e-10 -3.31764e-10 2.34793e-10)
(2.55667e-11 -1.01495e-11 -1.24813e-10)
(6.10464e-10 -1.44662e-10 -3.37771e-09)
(2.31603e-11 -5.487e-12 -1.28152e-10)
(6.3498e-09 1.78085e-09 8.18597e-10)
(1.88631e-07 5.20124e-08 2.48231e-08)
(5.24961e-08 -8.7659e-08 6.48596e-08)
(2.73572e-06 -5.30205e-06 3.79643e-06)
(9.26789e-05 -0.000179629 0.000128618)
(2.7356e-06 -5.30209e-06 3.79641e-06)
(4.6271e-08 -8.94798e-08 6.33937e-08)
(6.82993e-09 -2.61154e-09 -3.37502e-08)
(1.85183e-07 -4.38791e-08 -1.02464e-06)
(6.24597e-09 -1.47972e-09 -3.45607e-08)
(7.86724e-12 2.16133e-12 1.03906e-12)
(2.09006e-10 5.37244e-11 2.97208e-11)
(1.78964e-10 -3.29456e-10 2.38486e-10)
(9.01665e-09 -1.74755e-08 1.2513e-08)
(2.67318e-07 -5.1811e-07 3.70979e-07)
(9.01649e-09 -1.74756e-08 1.25129e-08)
(1.71613e-10 -3.31787e-10 2.34783e-10)
(2.5566e-11 -1.01497e-11 -1.24813e-10)
(6.10464e-10 -1.44662e-10 -3.37771e-09)
(2.31603e-11 -5.487e-12 -1.28152e-10)
(8.15027e-15 2.14953e-15 1.12179e-15)
(1.97156e-13 4.35918e-14 3.19915e-14)
(3.61121e-13 -6.81971e-13 4.89495e-13)
(1.674e-11 -3.24447e-11 2.31675e-11)
(4.41154e-10 -8.55036e-10 6.10715e-10)
(1.67398e-11 -3.24448e-11 2.31674e-11)
(3.54148e-13 -6.84517e-13 4.82352e-13)
(5.32439e-14 -2.19032e-14 -2.5605e-13)
(1.13359e-12 -2.68657e-13 -6.25485e-12)
(4.7784e-14 -1.1321e-14 -2.636e-13)
)
;
    }
}


// ************************************************************************* //
