/*--------------------------------*- C++ -*----------------------------------*\
| =========                 |                                                 |
| \\      /  F ield         | OpenFOAM: The Open Source CFD Toolbox           |
|  \\    /   O peration     | Version:  2.4.0                                 |
|   \\  /    A nd           | Web:      www.OpenFOAM.org                      |
|    \\/     M anipulation  |                                                 |
\*---------------------------------------------------------------------------*/
FoamFile
{
    version     2.0;
    format      ascii;
    class       volVectorField;
    location    "0.01";
    object      Ub;
}
// * * * * * * * * * * * * * * * * * * * * * * * * * * * * * * * * * * * * * //

dimensions      [0 1 -1 0 0 0 0];

internalField   nonuniform List<vector> 
58
(
(3.86327e+10 3.4332e+10 1.50287e+10)
(2.20458e+10 1.86881e+10 7.11996e+09)
(1.64429e+10 1.72203e+10 6.49101e+09)
(1.10513e+10 1.54686e+10 6.24336e+09)
(1.12707e+10 1.62221e+10 4.09818e+09)
(3.43792e+10 4.77986e+10 1.40643e+10)
(2.47144e+10 3.06642e+10 1.09956e+10)
(2.17725e+10 2.02356e+10 7.45554e+09)
(1.19111e+10 1.09399e+10 1.49562e+09)
(1.29802e+10 1.12607e+10 1.18807e+09)
(7.85791e+09 4.5124e+10 8.27066e+09)
(9.37836e+09 2.8079e+10 6.05013e+09)
(9.41215e+09 2.06083e+10 4.97216e+09)
(7.28197e+09 1.37795e+10 2.2572e+09)
(5.42144e+09 1.2327e+10 2.18051e+09)
(-4.26097e+09 3.16098e+10 1.0148e+10)
(4.10905e+08 1.92333e+10 5.57656e+09)
(3.02497e+09 1.54329e+10 4.29573e+09)
(-2.67634e+08 1.5188e+10 3.58253e+09)
(-3.42771e+09 1.55644e+10 4.1332e+09)
(2.5796e+10 5.81049e+10 3.63875e+10)
(2.60862e+10 4.04786e+10 2.97228e+10)
(2.6678e+10 2.8651e+10 2.17071e+10)
(2.72099e+10 3.09354e+10 2.907e+10)
(2.07349e+10 3.21592e+10 1.97341e+10)
(8.56544e+09 4.81927e+10 4.40612e+10)
(9.39036e+09 3.23023e+10 2.64496e+10)
(7.49382e+09 2.53851e+10 2.06135e+10)
(8.79786e+09 2.19676e+10 1.57703e+10)
(7.17973e+09 2.67286e+10 1.09198e+10)
(-4.50056e+09 2.84346e+10 2.28448e+10)
(-2.75375e+08 2.22494e+10 1.80014e+10)
(1.5128e+08 2.2011e+10 1.61949e+10)
(1.1539e+09 1.45341e+10 9.8666e+09)
(-1.10063e+09 1.8908e+10 9.56001e+09)
(-4.02154e+09 1.78306e+10 1.78968e+10)
(-5.00092e+09 1.58438e+10 1.39243e+10)
(-5.1546e+09 1.4928e+10 1.09362e+10)
(-4.81355e+09 1.12438e+10 8.49896e+09)
(-6.10712e+09 1.59294e+10 9.23131e+09)
(-8.49448e+09 1.29658e+10 3.18016e+10)
(-4.68634e+09 1.3534e+10 2.39825e+10)
(-2.42304e+09 1.57889e+10 1.84104e+10)
(-3.82081e+09 2.92034e+10 2.84822e+10)
(-1.9371e+08 1.65121e+10 2.74318e+10)
(-1.09926e+10 1.41807e+10 3.75007e+10)
(-8.98111e+09 1.83073e+10 2.83396e+10)
(-9.05857e+09 2.03123e+10 2.41526e+10)
(-7.87674e+09 2.60568e+10 2.07822e+10)
(-5.32269e+09 1.86893e+10 1.86787e+10)
(-1.06608e+10 1.67925e+10 2.57092e+10)
(-1.0478e+10 2.09013e+10 2.58397e+10)
(-1.13873e+10 1.97596e+10 2.66246e+10)
(-1.06173e+10 1.5089e+10 1.98387e+10)
(-1.05762e+10 1.44775e+10 1.83753e+10)
(-1.65164e+10 1.55324e+10 2.14848e+10)
(-1.54778e+10 1.60274e+10 1.90013e+10)
(-1.21414e+10 1.31446e+10 1.63643e+10)
)
;

boundaryField
{
    inlet
    {
        type            fixedValue;
        value           nonuniform 0();
    }
    outlet
    {
        type            zeroGradient;
    }
    bottom
    {
        type            fixedValue;
        value           uniform (0 0 0);
    }
    top
    {
        type            symmetryPlane;
    }
    side1
    {
        type            symmetryPlane;
    }
    side2
    {
        type            symmetryPlane;
    }
    procBoundary38to22
    {
        type            processor;
        value           nonuniform List<vector> 
15
(
(2.53156e+10 2.63578e+10 8.81695e+09)
(2.30776e+10 1.98588e+10 6.83831e+09)
(2.27078e+10 1.75456e+10 7.47919e+09)
(2.05926e+10 2.15583e+10 1.14098e+10)
(1.91343e+10 2.0102e+10 7.76516e+09)
(6.02759e+10 5.75242e+10 4.29032e+10)
(4.97028e+10 3.93748e+10 2.98303e+10)
(4.37482e+10 2.94261e+10 2.72207e+10)
(3.35691e+10 3.01617e+10 3.38038e+10)
(2.44818e+10 2.71623e+10 2.1738e+10)
(-2.62592e+09 1.31226e+10 3.14322e+10)
(1.70492e+09 8.88998e+09 3.2459e+10)
(4.93502e+09 1.28763e+10 3.02683e+10)
(8.36156e+08 2.22923e+10 4.34289e+10)
(1.75358e+09 9.64082e+09 2.31836e+10)
)
;
    }
    procBoundary38to37
    {
        type            processor;
        value           nonuniform List<vector> 
12
(
(5.55237e+10 3.39179e+10 1.68028e+10)
(5.47597e+10 4.99837e+10 2.38563e+10)
(1.41721e+10 5.35691e+10 1.76633e+10)
(-4.17895e+09 3.95634e+10 1.29128e+10)
(3.66608e+10 6.17805e+10 4.53157e+10)
(9.5196e+09 7.26852e+10 6.67476e+10)
(-8.70564e+09 7.44856e+10 5.82974e+10)
(-7.02838e+09 3.84825e+10 2.29155e+10)
(-1.37668e+10 2.25677e+10 4.31233e+10)
(-1.75054e+10 2.10798e+10 5.4507e+10)
(-1.61926e+10 2.23826e+10 4.87077e+10)
(-1.9949e+10 2.31145e+10 3.47031e+10)
)
;
    }
    procBoundary38to39
    {
        type            processor;
        value           nonuniform List<vector> 10((1.19804e+10 2.18896e+10 1.99307e+09) (1.07769e+10 2.19001e+10 2.49435e+08) (2.92134e+09 2.15077e+10 1.4368e+09) (-8.34428e+09 2.42304e+10 4.1193e+09) (1.72369e+10 2.49479e+10 1.19689e+10) (5.47251e+09 2.19392e+10 7.10858e+09) (-2.09884e+09 1.47974e+10 5.98514e+09) (-7.19708e+09 1.13163e+10 8.5096e+09) (-1.28448e+09 1.18734e+10 2.02609e+10) (-4.63268e+09 1.37223e+10 1.57783e+10));
    }
    procBoundary38to54
    {
        type            processor;
        value           nonuniform List<vector> 
11
(
(-4.30081e+09 1.97788e+10 6.1347e+09)
(-5.05418e+09 1.2768e+10 5.34419e+09)
(-8.40296e+09 1.1098e+10 5.45497e+09)
(-1.03922e+10 1.41694e+10 6.64434e+09)
(-1.46448e+10 1.8237e+10 8.77023e+09)
(-1.13154e+10 1.45601e+10 1.70548e+10)
(-1.2396e+10 1.2202e+10 1.48842e+10)
(-1.24277e+10 1.08045e+10 1.33811e+10)
(-1.26168e+10 1.02368e+10 1.44324e+10)
(-1.19839e+10 1.28601e+10 1.72092e+10)
(-2.17985e+10 1.44803e+10 1.87181e+10)
)
;
    }
    procBoundary38to102
    {
        type            processor;
        value           nonuniform List<vector> 
23
(
(-1.00377e+10 9.47928e+09 1.13105e+10)
(-8.23833e+09 9.79537e+09 1.18702e+10)
(-1.34952e+10 1.54417e+10 1.58514e+10)
(-1.04757e+10 1.66317e+10 1.44563e+10)
(-7.53979e+09 1.89249e+10 1.51338e+10)
(-5.31098e+09 9.83125e+09 1.68205e+10)
(-3.84556e+09 8.33997e+09 1.36113e+10)
(-1.95381e+10 1.05174e+10 1.56914e+10)
(-1.75111e+10 1.57243e+10 1.39599e+10)
(-1.39267e+10 1.91335e+10 1.65636e+10)
(-1.31707e+10 1.64068e+10 1.75874e+10)
(-1.28622e+10 1.59201e+10 1.36657e+10)
(-4.07086e+10 6.94361e+09 1.49857e+10)
(-4.2144e+10 1.60326e+10 1.94132e+10)
(-3.61865e+10 2.06254e+10 2.49338e+10)
(-1.00377e+10 9.47928e+09 1.13105e+10)
(-3.17073e+10 1.79311e+10 1.91324e+10)
(-8.23833e+09 9.79537e+09 1.18702e+10)
(-2.22783e+10 1.63219e+10 1.45819e+10)
(-4.7291e+10 1.24225e+10 1.98451e+10)
(-3.56188e+10 1.76692e+10 1.64904e+10)
(-1.00377e+10 9.47928e+09 1.13105e+10)
(-2.85196e+10 1.32191e+10 1.33715e+10)
)
;
    }
    procBoundary38to103
    {
        type            processor;
        value           uniform (-8.53217e+09 1.10365e+10 1.1911e+10);
    }
    procBoundary38to118
    {
        type            processor;
        value           nonuniform List<vector> 2((-1.90411e+10 1.18541e+10 1.68943e+10) (-1.67027e+10 7.21891e+09 1.50332e+10));
    }
}


// ************************************************************************* //
