/*--------------------------------*- C++ -*----------------------------------*\
| =========                 |                                                 |
| \\      /  F ield         | OpenFOAM: The Open Source CFD Toolbox           |
|  \\    /   O peration     | Version:  2.4.0                                 |
|   \\  /    A nd           | Web:      www.OpenFOAM.org                      |
|    \\/     M anipulation  |                                                 |
\*---------------------------------------------------------------------------*/
FoamFile
{
    version     2.0;
    format      ascii;
    class       volVectorField;
    location    "0.07";
    object      U;
}
// * * * * * * * * * * * * * * * * * * * * * * * * * * * * * * * * * * * * * //

dimensions      [0 1 -1 0 0 0 0];

internalField   nonuniform List<vector> 
200
(
(-106730 180243 421269)
(-300261 488729 -630898)
(-51062.4 69812.5 210266)
(-212363 402202 -469659)
(-34663.1 31977.4 64363.7)
(-168254 240386 -174947)
(-56227.7 13525.6 -48353.8)
(-95055.4 123182 -58912.6)
(-70801.5 15218.7 -88188.1)
(-19135.9 74765.9 -40583.7)
(-69823.3 266406 160154)
(-89741.7 149167 355618)
(-223130 452673 -510022)
(-29419.2 36105.4 118212)
(-158954 357760 -330318)
(-33753.9 962.876 6378.99)
(-136401 215919 -106290)
(-62310.4 -122.546 -53023)
(-86410.9 115534 -24205)
(-67245.7 24916.1 -76782.8)
(-120029 -41269.6 245433)
(-14011.7 263561 160281)
(-62455.7 125064 309824)
(-161201 422470 -451038)
(-4622.72 12600 49229.5)
(-116150 325487 -262875)
(-18594.2 -35897.9 -41037.8)
(-96115.5 181910 -62010.7)
(-50282.2 -36468 -53015.2)
(-69908.2 75837.1 -11512.9)
(68298.5 211643 133143)
(-68565.5 -4101.18 157782)
(23530.9 246983 143248)
(-16234 89305.4 225548)
(-53728.6 336747 -233298)
(40474.6 12515.2 68735.9)
(-41394.3 293080 -200996)
(42140.5 -44422.6 10556)
(-26545.2 191092 -54947.3)
(32685.7 -81917.1 4136.06)
(7519.68 179881 166864)
(32655.5 87727.1 381921)
(-105669 336474 -492863)
(41489.5 55439.8 236936)
(-97227.1 194929 -214044)
(-52524 22341.6 -2923.32)
(-86347.5 112502 -120192)
(-105335 -41667.5 -112485)
(-49018 86800.6 -66451.5)
(-39498.4 195972 -114328)
(-75802.8 -63134.9 289877)
(57824.3 197669 168900)
(34472.2 40566.5 291179)
(-21229.4 274738 -231546)
(48264.8 27656.1 225261)
(-60756.5 206394 -122382)
(-10575 -7708.75 71199.6)
(-90120.6 121479 -70530.6)
(-69471.8 -42920.5 -88763.9)
(-35648.6 91223.5 -22350.9)
(68028.7 174060 124593)
(-29622.5 -39946.4 207528)
(96919.3 180846 149673)
(59181.8 6379.29 206858)
(64132.7 203817 -43422)
(78151.2 -30443.1 164565)
(13650.9 211826 8999.32)
(40163.9 -57743.6 71558.1)
(-37945.6 165960 18569.5)
(5858.12 -73899.1 -23863.9)
(4604.42 61469.5 -17580.6)
(74995.1 139310 77663.5)
(37259.8 -12131.4 121823)
(125580 143219 116793)
(94284.8 -23943.9 131695)
(103148 161750 60353.1)
(94659.3 -66559.2 111694)
(54183 192661 65238.6)
(79357.1 -96348.7 54545.3)
(49678.1 149245 110443)
(-36993.8 -43235.4 205087)
(82863.9 128230 119111)
(54505.1 12225.9 222933)
(50242.3 154847 -98710)
(61297.4 16602.3 115765)
(34304 114535 -107311)
(15269.9 -33690.6 1787.87)
(-1220.3 82472 -59655.6)
(-61359.4 -5279.66 -108891)
(-28511.2 32746.7 -91287.7)
(67959.5 128383 112942)
(-2166.39 -36291.4 174087)
(106355 105891 91663.6)
(62559.6 -16216.4 142342)
(88478.3 119954 5440.41)
(83829.4 -34753.1 103574)
(48596.1 148399 3022.38)
(54716.1 -61118.9 21845.7)
(12949 151923 4691.71)
(20481.7 -14047 -81923.9)
(-18372.8 39834 27349.2)
(57090.8 59267 26567.7)
(53967.8 -14864.4 74411.9)
(107366 76709.7 56072)
(82699.6 -40196.9 104629)
(95745.5 146712 102045)
(88162.3 -63690.6 100670)
(57672.9 186458 102757)
(74616.4 -67627.4 8801.77)
(56179.9 159756 84242.4)
(26395.9 42430.3 -34876.8)
(30501.2 18378.5 2094.22)
(52887.3 12582.3 -3060.35)
(58340.5 -13482.1 28429.2)
(82841 89376 70906.5)
(83835.9 -59876.2 109115)
(76603 171851 137614)
(90114.5 -61276.6 62794.6)
(75903.1 153226 121643)
(90846.5 -31524 -15771.3)
(26274.5 76083.6 14464.4)
(-1139.09 2061.72 39823.2)
(76697.3 71559.3 21177.8)
(43317.6 13744.9 10807.3)
(79178.1 44922.2 -79391.3)
(-56663.8 -159152 -133972)
(-22493.1 5499.98 -52088.7)
(-87328 -7815.73 -74345.5)
(-53705.2 17912.4 -28099.9)
(-98638.7 158181 -61797.6)
(-12529.5 29242.2 40751.7)
(51366.5 87009.6 39551.7)
(33230 -19371.5 33240.8)
(79643.2 70027 32909.1)
(59699.7 -37881 49254)
(68583.6 95087.8 38130)
(33485.3 -65870.7 25722.5)
(13981.5 105818 61699)
(-10304.1 45115.8 -70570)
(-17508.2 26371 -55096.6)
(-7357.86 32552.5 -28897.1)
(-5091.01 10327.4 25963.4)
(40101.5 100309 68564.2)
(32539.5 -45271.6 32068.5)
(60271.9 111989 89053.3)
(53706 -56845.8 73094.4)
(48365.6 160597 123706)
(46454.5 -42626.8 21997.2)
(55080.8 136393 101611)
(44252.7 39631.4 -53786.8)
(-14066.1 22812.2 30615.1)
(-2644.58 29566.6 -40183.8)
(-6660.5 -380.481 10225.3)
(14746.7 99919.3 69186.5)
(13200.8 -52076.6 44322.6)
(37833.2 151713 131784)
(38911.6 -26244.4 37627.6)
(60991.5 148148 117147)
(50377.8 11310.2 -19697.6)
(85414 107611 50361.1)
(9507.26 30533 49836.1)
(60933.9 42194.4 59740.7)
(29199.9 3455.8 2660.16)
(61132.3 26209.4 45833.1)
(-124.731 -50430.1 -34878.6)
(7948.89 12411 44244.1)
(-106182 -43676.1 -82101.2)
(-79244.5 -25656.8 61583.8)
(-90410.4 92788.3 -52300.1)
(-107654 27748.1 -22079.7)
(1693.66 26992.2 -52746.9)
(-13075.7 2332.53 35024.9)
(18756.1 53559.5 43234.3)
(-5741.56 -29931.3 1748.26)
(4624.81 72090.2 61059.6)
(-18263.5 -35286.7 -6844.02)
(-42528.1 39159 85090.2)
(-38572.5 34867 -54507.8)
(-47665 -7437.19 91518.5)
(-32026.8 128393 -46686.8)
(-31242.5 15715.6 68577.9)
(-20779.1 23760.6 -41464.8)
(-35344.4 10168 13228.8)
(-3936.54 108808 79579.6)
(-22169.8 -38988.4 4071.31)
(2068.19 134696 109640)
(429.85 -7295.53 -2877.11)
(-18651.9 38274.8 113199)
(9741.07 59013.7 -44319.4)
(13897.6 51600.7 70744.2)
(-3587.87 44074.8 -59402.3)
(-26101.3 18256.7 50763.8)
(-28225.5 36163.2 -31659)
(-29701.8 33193.4 8530.56)
(7425.74 137366 86251.6)
(-19670.8 737.165 -9550.51)
(32647.8 144441 102459)
(9159.89 34127.6 -29680)
(31988.5 61696.2 108004)
(30208 60279.1 -34263.4)
)
;

boundaryField
{
    inlet
    {
        type            calculated;
        value           nonuniform 0();
    }
    outlet
    {
        type            calculated;
        value           nonuniform 0();
    }
    bottom
    {
        type            calculated;
        value           uniform (0 0 0);
    }
    top
    {
        type            symmetryPlane;
    }
    side1
    {
        type            symmetryPlane;
    }
    side2
    {
        type            symmetryPlane;
    }
    procBoundary9to1
    {
        type            processor;
        value           nonuniform List<vector> 
50
(
(-363286 488389 -782088)
(-50959.8 81161.1 314767)
(-264683 429687 -623076)
(-32353.5 37547.9 96671.1)
(-201833 261325 -261117)
(-58187.5 22458.1 -55004)
(-97686.5 132064 -105892)
(-69326 -3497.45 -99637.6)
(-19126.5 79439.7 -45440)
(12095.5 229057 -42958.1)
(60884.3 107540 460716)
(-171333 366737 -685666)
(54847.7 78508.9 275182)
(-116094 202532 -261710)
(-69045.3 62214.6 -15323.1)
(-78488.4 117649 -191306)
(-147769 -98122.1 -182427)
(-39415.7 59543.9 -84393)
(-84575.8 177639 -124186)
(-32940.5 638.56 -16999.9)
(52781.9 97161.5 106592)
(71070.3 53835.1 266835)
(-856.156 191720 -293455)
(43582.5 56027.4 124283)
(26749.5 84379.6 -187472)
(-109678 -121712 -155966)
(-843.883 27055.3 -92087.6)
(-172297 -45134 -191800)
(-38794.9 33630 -80638.3)
(-128221 188536 56195.9)
(-31310 22995.4 -1541.63)
(40175 67747 -9463.82)
(-1205.22 34786.4 2285.05)
(55447.7 51327.2 -117283)
(-251653 -366058 -369175)
(15185.1 -32025.7 -46510.8)
(-201825 -156226 -177520)
(-51874.6 16147.8 -37241.6)
(-163029 142961 -63462.1)
(-88286.8 4576.93 -81882.1)
(72715.7 70909.8 71922.5)
(31990.3 35136.4 -28993.3)
(87441.1 37654.6 8066.5)
(-43752.9 -85814.6 -104098)
(27199.5 -15164.3 21839.7)
(-162238 -127284 -128937)
(-77278.6 -22575 5561.36)
(-162914 63689 -62042.9)
(-151549 -32792.4 -20115.3)
(-148427 175985 -38251.4)
)
;
    }
    procBoundary9to8
    {
        type            processor;
        value           nonuniform List<vector> 
20
(
(-141446 239941 159703)
(-162887 -34417.3 282298)
(70392 220202 142196)
(2321.76 59258.7 -8997.23)
(-84920.1 -43751.3 244704)
(59452.7 189810 156421)
(-29346.9 55230.4 -21166.6)
(-23003.5 34346.6 -10715.7)
(60732.8 122667 113777)
(-46432.7 45340.2 99786.1)
(-454.342 55975.3 -31396.4)
(19598.2 23104.5 -53586.5)
(-35778.7 35400.2 39242)
(-15817.5 48278.9 -43499.7)
(-24053 35394.7 68010.9)
(17295.7 57519.6 -73231.7)
(23683.9 45586.5 -62092.3)
(-23018.7 24676.2 89372.4)
(954.636 49954.1 -73178.9)
(-21678.2 30981.9 77565.4)
)
;
    }
    procBoundary9to10
    {
        type            processor;
        value           nonuniform List<vector> 
20
(
(30161 216573 -55868.8)
(-17484.3 74949.4 -17471.3)
(-42756.4 -22219.4 -49276.7)
(-20007.6 102847 37305.7)
(-16931.9 -3274.42 -16970.7)
(-5007.96 97271.7 -108722)
(-18738.5 124545 40840.6)
(73340.9 -84328 -14092.9)
(-63677.8 159759 -30341.6)
(26609.2 86690.7 -28741.3)
(72924.8 -28162.3 -69699.6)
(111498 90501.3 51818)
(-48395.6 28131.2 -88491.6)
(-30088.5 154862 -71235.2)
(29891 42212.8 -30189.5)
(57928 76058.7 -56166.7)
(-107271 176121 -50349.2)
(-63652.8 50682.7 -18414.5)
(5811.95 164640 -45357)
(49205.8 86998.4 55742.2)
)
;
    }
    procBoundary9to17
    {
        type            processor;
        value           nonuniform List<vector> 
50
(
(17074.5 60816.9 -2010.87)
(43705.7 127897 67674)
(4536.87 40253.2 72905.3)
(60126.8 168083 77912.3)
(57869.8 46560 107842)
(67523.9 183126 -18250.5)
(96178.2 -11559.3 78689.9)
(85666.1 149305 16255.7)
(95932 -80503.5 67895)
(76406 108582 86973.7)
(-1118.37 36984.4 -10056.5)
(33186.7 56731.6 -17454.6)
(52986.8 73778.1 14830.5)
(67538.2 9821.98 25799)
(87783.8 78547.9 39865.3)
(98660.4 -42388.2 82043.7)
(89226.9 126138 76337.2)
(100945 -74031 77255.1)
(77604.6 121226 101950)
(93520.7 -48846.5 -2310.76)
(27065.1 37233.4 -30280.5)
(40489.1 25449.3 -7518.92)
(39387.5 15150.7 -50.0487)
(35308.1 11857.2 -17590.6)
(45570.4 -3599.64 18920.8)
(48099.6 79934.1 45848.4)
(66311.3 -49411.7 83841.4)
(67790.4 129620 95921.9)
(86339.9 -1943.18 470.861)
(100793 77998.6 37229.6)
(25377.2 53256 -61565)
(-1629.11 25866.2 -19708.3)
(9920.9 25531 -28548.1)
(3910.14 7209.06 -51.8529)
(11714.3 54520.3 1097)
(6493.87 1405.33 9752.51)
(37468.2 106278 62898.4)
(40215.6 14882.2 -11514.7)
(77935.9 101710 52654.3)
(56249.6 28980.1 -30919.1)
(19047.5 17191.2 85952)
(7870.33 53609.4 -50678.6)
(-19792.3 24512.2 45718.2)
(-21204.5 44807.4 -21083.7)
(-12094.2 41216.6 12032.2)
(24554.8 134198 74977)
(9045.36 32510.2 -21929.2)
(62898 124167 70756.3)
(39887.9 34231.8 -17575.3)
(84920.5 88203.5 35578.1)
)
;
    }
}


// ************************************************************************* //
