/*--------------------------------*- C++ -*----------------------------------*\
| =========                 |                                                 |
| \\      /  F ield         | OpenFOAM: The Open Source CFD Toolbox           |
|  \\    /   O peration     | Version:  2.4.0                                 |
|   \\  /    A nd           | Web:      www.OpenFOAM.org                      |
|    \\/     M anipulation  |                                                 |
\*---------------------------------------------------------------------------*/
FoamFile
{
    version     2.0;
    format      ascii;
    class       volScalarField;
    location    "0.12";
    object      nut;
}
// * * * * * * * * * * * * * * * * * * * * * * * * * * * * * * * * * * * * * //

dimensions      [0 2 -1 0 0 0 0];

internalField   nonuniform List<scalar> 
200
(
4.25654e+06
4.30008e+06
5.2335e+06
5.20327e+06
5.89677e+06
7.03413e+06
4.95187e+06
3.93755e+06
3.80817e+06
6.38918e+06
2.11536e+06
4.2204e+06
4.43044e+06
3.4145e+06
5.82393e+06
4.66368e+06
4.58999e+06
3.12938e+06
3.52943e+06
5.30773e+06
2.79694e+06
3.23697e+06
3.18222e+06
5.33944e+06
4.54102e+06
4.34254e+06
3.99454e+06
2.58273e+06
3.12601e+06
6.05063e+06
2.62231e+06
3.67989e+06
3.54646e+06
3.70129e+06
4.6123e+06
4.63973e+06
3.58575e+06
2.78511e+06
2.85937e+06
3.11629e+06
1.89566e+06
3.23759e+06
2.49791e+06
993681
952673
3.97344e+06
5.56636e+06
3.90851e+06
1.36782e+06
3.48388e+06
1.52584e+06
3.2046e+06
1.92242e+06
1.11677e+06
1.17881e+06
2.24073e+06
2.70456e+06
2.41045e+06
1.01041e+06
3.04006e+06
2.00902e+06
2.78678e+06
1.61683e+06
766024
1.50655e+06
1.57672e+06
1.11672e+06
751585
3.24899e+06
1.04784e+06
1.90955e+06
1.90818e+06
1.24616e+06
1.33386e+06
1.42809e+06
1.93817e+06
710490
1.13493e+06
723407
3.55719e+06
1.96607e+06
1.75731e+06
2.16405e+06
3.10858e+06
5.79804e+06
4.00305e+06
1.19254e+06
3.81872e+06
7.48585e+06
4.24827e+06
1.77084e+06
1.59916e+06
2.11414e+06
2.41237e+06
4.28896e+06
3.30949e+06
1.72801e+06
2.4613e+06
6.97492e+06
6.6717e+06
1.84308e+06
2.08447e+06
1.78188e+06
1.22511e+06
2.21739e+06
2.62182e+06
1.3187e+06
1.32247e+06
2.58827e+06
6.94137e+06
2.28948e+06
2.53763e+06
1.11978e+06
846947
681211
1.84139e+06
1.20883e+06
1.00497e+06
2.0467e+06
2.36734e+06
2.39627e+06
1.62777e+06
2.30785e+06
3.62421e+06
4.59452e+06
4.81614e+06
3.31893e+06
6.60516e+06
3.27304e+06
4.15917e+06
2.80977e+06
2.73789e+06
2.51764e+06
4.16983e+06
5.15796e+06
4.25363e+06
2.79924e+06
2.94279e+06
5.21495e+06
3.25877e+06
4.93991e+06
2.42949e+06
1.99607e+06
2.47727e+06
2.00102e+06
3.60623e+06
1.5437e+06
3.03991e+06
2.29874e+06
2.44217e+06
5.53646e+06
4.61399e+06
2.39358e+06
1.47623e+06
1.93488e+06
708654
1.94835e+06
901506
2.15623e+06
1.58943e+06
1.40786e+06
1.73636e+06
5.00157e+06
3.09468e+06
4.41513e+06
5.42724e+06
5.97013e+06
4.50058e+06
5.65616e+06
4.81251e+06
7.3618e+06
2.22168e+06
4.03415e+06
5.90192e+06
1.11518e+06
4.67419e+06
2.50886e+06
5.44333e+06
4.02782e+06
4.37387e+06
6.33208e+06
6.65816e+06
1.65745e+06
2.37712e+06
1.15471e+06
861624
5.65394e+06
1.97668e+06
4.74342e+06
2.73952e+06
1.3526e+07
3.1053e+06
6.56622e+06
1.67958e+06
3.2313e+06
2.12617e+06
1.11439e+06
2.54168e+06
2.26761e+06
4.65806e+06
)
;

boundaryField
{
    inlet
    {
        type            calculated;
        value           nonuniform 0();
    }
    outlet
    {
        type            calculated;
        value           nonuniform 0();
    }
    bottom
    {
        type            calculated;
        value           nonuniform List<scalar> 
40
(
3.82842e-18
2.3895e-18
2.90833e-18
3.48809e-18
4.19973e-18
4.1873e-18
3.91697e-18
3.37474e-18
5.35275e-18
5.27451e-18
2.9532e-18
4.61658e-18
6.22209e-18
4.40234e-18
5.68407e-18
4.84322e-18
6.23045e-18
6.02296e-18
5.99714e-18
6.07063e-18
8.62297e-18
7.91197e-18
7.21277e-18
6.94985e-18
7.61535e-18
6.34955e-18
5.46619e-18
5.37538e-18
5.18398e-18
4.1699e-18
4.07919e-18
4.80446e-18
5.02448e-18
4.03326e-18
4.58974e-18
4.30837e-18
5.88045e-18
5.75776e-18
5.93845e-18
5.70037e-18
)
;
    }
    top
    {
        type            symmetryPlane;
    }
    side1
    {
        type            symmetryPlane;
    }
    side2
    {
        type            symmetryPlane;
    }
    procBoundary13to5
    {
        type            processor;
        value           nonuniform List<scalar> 
50
(
3.13579e+06
7.46653e+06
9.32991e+06
5.19486e+06
5.03226e+06
6.89883e+06
6.09951e+06
7.33193e+06
4.99533e+06
7.85664e+06
2.86595e+06
2.9219e+06
2.17496e+06
2.18557e+06
2.34629e+06
8.31906e+06
8.02e+06
4.29773e+06
3.95676e+06
4.72577e+06
1.26051e+06
1.26151e+06
1.8085e+06
3.38569e+06
6.59079e+06
2.71855e+06
3.19884e+06
7.09708e+06
4.97382e+06
5.43131e+06
2.3326e+06
1.43062e+06
1.63524e+06
4.47262e+06
5.26437e+06
7.49097e+06
4.13389e+06
9.49261e+06
5.56772e+06
3.41978e+06
573360
1.93983e+06
2.97562e+06
3.45672e+06
6.48602e+06
7.50969e+06
1.30614e+07
8.96988e+06
4.57855e+06
4.2689e+06
)
;
    }
    procBoundary13to12
    {
        type            processor;
        value           nonuniform List<scalar> 
20
(
2.77757e+06
2.23622e+06
2.51972e+06
2.33392e+06
2.40925e+06
1.28187e+06
1.8347e+06
2.35245e+06
3.28249e+06
3.29042e+06
1.93448e+06
2.41607e+06
2.71502e+06
3.62058e+06
5.22372e+06
1.31852e+07
4.33336e+06
6.05514e+06
1.10733e+07
6.75919e+06
)
;
    }
    procBoundary13to14
    {
        type            processor;
        value           nonuniform List<scalar> 
20
(
8.17798e+06
6.42152e+06
6.09127e+06
6.03669e+06
5.0135e+06
3.71164e+06
3.64977e+06
1.95853e+06
8.29594e+06
6.13931e+06
3.85442e+06
4.46278e+06
6.50462e+06
7.65631e+06
3.61911e+06
3.38288e+06
5.84236e+06
5.35374e+06
4.6674e+06
2.60821e+06
)
;
    }
    procBoundary13to21
    {
        type            processor;
        value           nonuniform List<scalar> 
50
(
2.98729e+06
3.3975e+06
3.77279e+06
3.49031e+06
4.16081e+06
4.3573e+06
3.5826e+06
3.49032e+06
3.18183e+06
4.31441e+06
1.87783e+06
1.63685e+06
1.00939e+06
627166
825924
1.46114e+06
1.24463e+06
1.14522e+06
1.44558e+06
1.23691e+06
3.48644e+06
2.33048e+06
1.72251e+06
849010
1.66278e+06
816841
1.17843e+06
262784
2.21598e+06
1.15795e+06
9.78117e+06
5.01818e+06
2.92661e+06
1.864e+06
1.23534e+06
2.87834e+06
1.05484e+06
5.82247e+06
549361
5.38401e+06
1.0105e+07
1.26098e+07
2.68524e+06
5.58692e+06
2.84253e+06
2.46413e+06
5.07945e+06
1.01752e+06
5.24577e+06
1.95576e+06
)
;
    }
}


// ************************************************************************* //
