/*--------------------------------*- C++ -*----------------------------------*\
| =========                 |                                                 |
| \\      /  F ield         | OpenFOAM: The Open Source CFD Toolbox           |
|  \\    /   O peration     | Version:  2.4.0                                 |
|   \\  /    A nd           | Web:      www.OpenFOAM.org                      |
|    \\/     M anipulation  |                                                 |
\*---------------------------------------------------------------------------*/
FoamFile
{
    version     2.0;
    format      ascii;
    class       volVectorField;
    location    "0.12";
    object      U;
}
// * * * * * * * * * * * * * * * * * * * * * * * * * * * * * * * * * * * * * //

dimensions      [0 1 -1 0 0 0 0];

internalField   nonuniform List<vector> 
200
(
(-3.92668e+10 8.79857e+10 1.28548e+10)
(-3.94744e+10 1.18183e+11 1.06732e+10)
(-3.83263e+10 1.60503e+11 1.43513e+10)
(-2.46572e+10 1.83501e+11 7.9133e+09)
(-2.47646e+10 1.57955e+11 4.02763e+09)
(-5.24034e+10 2.51048e+11 3.63741e+09)
(-8.21585e+10 2.43407e+11 -1.54627e+09)
(-5.16589e+10 1.67026e+11 -1.51707e+09)
(-3.86856e+10 1.57961e+11 3.35835e+09)
(-4.8928e+10 1.37249e+11 2.727e+09)
(8.64123e+09 8.93557e+10 1.19348e+10)
(4.18522e+08 1.22897e+11 7.80334e+09)
(2.34565e+08 1.65354e+11 7.58654e+09)
(9.46655e+09 1.54818e+11 1.05098e+10)
(8.22867e+08 1.77072e+11 1.0864e+10)
(-1.77439e+10 2.86687e+11 9.89586e+09)
(8.48847e+09 2.08304e+11 -1.61115e+09)
(2.35482e+10 1.41049e+11 -2.27603e+09)
(2.83762e+10 1.31685e+11 5.00173e+09)
(3.19675e+10 1.60096e+11 2.03236e+08)
(2.46137e+10 9.12664e+10 -1.1353e+09)
(3.61907e+10 1.20933e+11 2.3606e+09)
(3.07215e+10 9.29976e+10 2.88514e+09)
(4.37794e+10 1.56738e+11 -3.31705e+09)
(3.09982e+10 2.07445e+11 5.50829e+09)
(4.9647e+10 2.44694e+11 1.82544e+09)
(6.34676e+10 1.62147e+11 -5.97055e+09)
(7.1816e+10 1.32278e+11 -7.65538e+08)
(7.60892e+10 1.34009e+11 -7.66116e+09)
(8.10402e+10 1.43326e+11 3.87399e+08)
(5.25757e+10 7.78206e+10 -2.18504e+10)
(5.079e+10 7.87521e+10 -2.39102e+09)
(6.31741e+10 1.49345e+11 -3.78717e+09)
(6.24568e+10 1.47749e+11 1.02913e+09)
(7.21089e+10 1.91182e+11 1.78166e+09)
(1.05179e+11 2.07331e+11 1.95819e+09)
(1.09177e+11 1.60234e+11 3.69557e+09)
(1.07873e+11 1.22015e+11 -1.56153e+10)
(1.1196e+11 1.23312e+11 -5.80948e+08)
(1.2659e+11 1.31976e+11 -2.60895e+10)
(-3.17144e+10 9.88059e+10 8.583e+09)
(-2.86652e+10 1.13783e+11 1.36392e+10)
(-2.87174e+10 1.51229e+11 1.06769e+10)
(-3.91628e+10 1.46968e+11 8.3769e+09)
(-2.94339e+10 1.14283e+11 5.29846e+09)
(-3.65206e+10 1.23072e+11 6.43552e+09)
(-3.56208e+10 2.01893e+11 -1.09126e+10)
(-2.09361e+10 1.66865e+11 5.40641e+09)
(-1.80082e+10 1.49116e+11 1.01848e+10)
(-2.06104e+10 1.49654e+11 6.2909e+09)
(6.33408e+08 9.25507e+10 1.9017e+09)
(5.16679e+09 1.16488e+11 1.01913e+09)
(-1.19415e+10 1.58314e+11 1.48287e+10)
(5.48154e+09 1.44671e+11 -2.53988e+09)
(6.83085e+09 1.19515e+11 -2.26755e+09)
(8.51324e+09 1.45408e+11 -9.89905e+09)
(9.97111e+09 1.32785e+11 -7.82848e+07)
(2.43879e+10 1.61996e+11 1.10793e+09)
(3.2695e+10 1.47543e+11 4.99587e+09)
(1.79e+10 1.3946e+11 1.51389e+10)
(3.33905e+10 1.02917e+11 2.16359e+09)
(2.27037e+10 1.38992e+11 -3.5291e+08)
(3.26724e+10 1.69098e+11 -4.89726e+09)
(4.18235e+10 1.40642e+11 -7.44453e+09)
(4.91212e+10 1.32662e+11 -4.89831e+09)
(5.40156e+10 1.2644e+11 -1.33959e+08)
(5.60085e+10 1.44802e+11 6.95299e+09)
(5.95311e+10 1.11226e+11 -1.19466e+10)
(6.15298e+10 1.38563e+11 7.51295e+09)
(7.97958e+10 1.46367e+11 -6.03232e+09)
(6.37947e+10 1.16932e+11 -1.30345e+10)
(6.8492e+10 1.52734e+11 -4.11901e+09)
(6.90407e+10 1.35663e+11 -9.42463e+09)
(7.41534e+10 1.27415e+11 -3.27527e+09)
(8.1956e+10 1.12764e+11 -5.4442e+09)
(8.4246e+10 1.43481e+11 1.2086e+10)
(1.01245e+11 1.20968e+11 -5.79017e+09)
(8.09973e+10 1.44499e+11 1.30804e+10)
(9.90201e+10 7.77716e+10 -3.47875e+10)
(8.0551e+10 1.13942e+11 9.10927e+09)
(-5.86496e+10 1.28017e+11 1.2949e+09)
(-4.61234e+10 1.11063e+11 2.24195e+09)
(-3.91664e+10 1.06207e+11 3.228e+08)
(-3.54034e+10 1.07594e+11 4.48882e+09)
(-3.6886e+10 1.49388e+11 4.34822e+09)
(-3.37454e+10 2.18748e+11 2.5e+10)
(-3.80225e+10 1.47158e+11 4.07946e+10)
(-4.44025e+10 1.47465e+11 1.83576e+10)
(-3.69992e+10 1.7963e+11 3.41581e+10)
(-6.33506e+10 2.48148e+11 1.77043e+10)
(-1.15063e+09 1.09452e+11 -1.48268e+10)
(4.33314e+09 1.01228e+11 -1.65633e+10)
(5.19005e+09 1.05892e+11 -1.28899e+10)
(5.88476e+09 9.81079e+10 -1.8905e+10)
(1.08422e+10 1.31857e+11 -2.71677e+09)
(3.55067e+10 1.48533e+11 4.73412e+09)
(4.07096e+10 1.40918e+11 1.70052e+10)
(4.38392e+10 1.09948e+11 9.92775e+09)
(3.542e+10 1.5941e+11 3.34441e+10)
(4.7241e+10 2.55475e+11 4.03831e+10)
(4.46507e+10 1.01802e+11 -3.43593e+10)
(5.32527e+10 1.16394e+11 -2.27174e+10)
(5.50339e+10 1.11656e+11 -2.02195e+10)
(5.32763e+10 1.13046e+11 -1.26667e+10)
(6.31422e+10 1.02927e+11 -2.20764e+10)
(6.64979e+10 1.30732e+11 4.99024e+09)
(8.60158e+10 1.11611e+11 -1.69942e+09)
(6.56661e+10 1.37473e+11 2.57998e+10)
(8.20742e+10 1.11221e+11 -1.15394e+09)
(7.76531e+10 2.11893e+11 4.13304e+10)
(7.97259e+10 1.08007e+11 -3.33263e+10)
(9.1267e+10 1.07658e+11 -2.23019e+10)
(9.9722e+10 1.33414e+11 -2.80066e+09)
(9.84058e+10 1.03165e+11 -1.46394e+10)
(9.33879e+10 1.13205e+11 2.907e+08)
(1.00404e+11 9.62745e+10 -2.38096e+10)
(8.86525e+10 1.39116e+11 2.2769e+10)
(1.17002e+11 9.90121e+10 -3.58025e+09)
(8.17353e+10 1.48653e+11 2.50303e+10)
(1.06431e+11 1.27433e+11 -2.03429e+10)
(-3.79279e+10 1.05617e+11 4.93238e+09)
(-2.64481e+10 1.16237e+11 2.09069e+09)
(-2.31716e+10 9.97859e+10 1.67074e+10)
(-7.77205e+09 1.2274e+11 1.91686e+10)
(5.14133e+09 1.50501e+11 3.69191e+10)
(1.08679e+10 1.38158e+11 6.77337e+10)
(-3.15506e+10 1.25557e+11 3.33747e+10)
(-1.19105e+10 7.31803e+10 5.65109e+10)
(-7.45571e+10 1.83758e+11 2.09804e+10)
(-4.52287e+10 4.62923e+10 5.97127e+10)
(4.93194e+09 8.07817e+10 -2.86463e+10)
(2.40181e+10 8.41924e+10 -2.3983e+10)
(2.76833e+10 7.38683e+10 -2.47628e+10)
(6.22736e+10 7.09538e+10 -1.94591e+10)
(2.00864e+10 1.00676e+11 -7.65558e+10)
(4.90241e+10 1.13753e+11 1.94289e+10)
(7.49162e+10 8.88141e+10 3.50623e+10)
(4.76088e+10 1.15604e+11 2.95502e+10)
(6.6872e+10 1.16147e+11 6.86789e+10)
(3.32694e+10 1.65873e+11 4.27374e+10)
(6.46154e+10 6.20782e+10 -4.68653e+10)
(8.1895e+10 5.70257e+10 -3.4067e+10)
(9.81937e+10 6.65012e+10 -3.24217e+10)
(8.17048e+10 5.7265e+10 -1.91183e+10)
(9.36471e+10 9.68438e+10 -2.15456e+10)
(9.69981e+10 8.4782e+10 -1.55052e+10)
(9.14183e+10 9.74359e+10 2.10791e+10)
(1.03641e+11 8.5568e+10 2.4242e+10)
(7.88413e+10 1.4763e+11 4.00611e+10)
(1.02021e+11 1.34176e+11 6.70766e+10)
(8.42309e+10 -2.05154e+10 -7.81812e+10)
(1.25975e+11 5.07301e+10 -3.86763e+10)
(1.15104e+11 5.74346e+10 -1.94774e+10)
(1.2258e+11 8.64501e+10 -4.34845e+09)
(9.85784e+10 7.38892e+10 -3.64672e+09)
(1.0149e+11 1.00938e+11 3.26318e+09)
(9.28851e+10 8.46094e+10 -1.83039e+10)
(9.14455e+10 1.16788e+11 3.03512e+10)
(1.08656e+11 1.14577e+11 2.84515e+10)
(9.2258e+10 1.49044e+11 3.62425e+10)
(-6.22683e+09 1.52939e+11 -7.49394e+09)
(-1.32486e+10 6.48576e+10 1.18277e+10)
(2.32698e+10 1.22564e+11 -7.84403e+09)
(2.89367e+10 1.43105e+11 2.19856e+10)
(7.27693e+10 7.20596e+10 2.29627e+10)
(1.87757e+10 8.7482e+10 2.44624e+10)
(5.23563e+10 -4.35254e+10 6.63823e+10)
(-2.67534e+10 7.94992e+10 1.49704e+10)
(-1.99545e+09 -6.8733e+10 8.00609e+10)
(-6.17273e+10 1.02588e+11 2.84771e+09)
(4.69049e+10 5.44408e+10 -3.44588e+10)
(6.78217e+10 4.05684e+10 -1.50116e+10)
(9.65806e+10 3.45424e+10 -4.22209e+10)
(7.44943e+10 6.83023e+10 -6.58111e+09)
(9.03832e+10 7.61232e+10 -1.80256e+09)
(9.16928e+10 8.39944e+10 7.88403e+09)
(7.15788e+10 8.5354e+10 1.17564e+10)
(7.67317e+10 2.09157e+10 4.86911e+10)
(2.82298e+10 1.22372e+11 2.24007e+10)
(4.11424e+10 4.24593e+10 6.75151e+10)
(2.53729e+10 -9.47677e+10 -6.76274e+10)
(9.92038e+10 -2.78198e+09 -3.52044e+10)
(9.51721e+10 2.007e+10 -1.27421e+10)
(1.37263e+11 3.54209e+10 -4.22445e+10)
(1.07774e+11 5.30994e+10 1.3054e+10)
(1.49099e+11 5.22681e+10 -6.00549e+10)
(9.75899e+10 9.35109e+10 -1.05333e+09)
(1.02785e+11 1.37991e+11 7.96041e+09)
(8.09768e+10 1.30585e+11 3.16512e+10)
(6.56251e+10 1.67726e+11 2.67391e+10)
(1.21863e+11 -1.13382e+11 -6.76936e+10)
(7.60245e+10 -1.49101e+11 -4.55219e+09)
(1.33704e+11 -5.45141e+09 -2.44129e+10)
(1.02481e+11 1.18771e+10 -3.46291e+09)
(1.32265e+11 6.59314e+10 -9.9459e+09)
(7.89683e+10 1.08137e+11 2.57496e+10)
(1.15597e+11 1.21218e+11 -2.22562e+10)
(6.37158e+10 1.14822e+11 -1.08895e+10)
(1.26668e+11 1.561e+11 -1.36857e+10)
(1.21019e+11 1.71323e+11 3.09839e+10)
)
;

boundaryField
{
    inlet
    {
        type            calculated;
        value           nonuniform 0();
    }
    outlet
    {
        type            calculated;
        value           nonuniform 0();
    }
    bottom
    {
        type            calculated;
        value           uniform (0 0 0);
    }
    top
    {
        type            symmetryPlane;
    }
    side1
    {
        type            symmetryPlane;
    }
    side2
    {
        type            symmetryPlane;
    }
    procBoundary13to5
    {
        type            processor;
        value           nonuniform List<vector> 
50
(
(-1.28654e+11 1.05523e+11 1.51522e+10)
(-1.206e+11 1.23515e+11 1.9754e+10)
(-1.68433e+11 1.91196e+11 6.92966e+09)
(-1.73101e+11 2.14389e+11 -2.36131e+10)
(-1.22192e+11 1.73651e+11 -1.84746e+10)
(-1.53778e+11 1.68235e+11 -2.44718e+10)
(-1.64951e+11 2.23878e+11 -1.33276e+10)
(-1.46412e+11 2.23887e+11 4.04734e+09)
(-1.42039e+11 1.60838e+11 -3.54692e+09)
(-1.5431e+11 1.24235e+11 -6.56255e+09)
(-9.90486e+10 8.93301e+10 2.7127e+10)
(-9.14234e+10 1.24672e+11 3.40651e+10)
(-9.51122e+10 1.26737e+11 2.84474e+10)
(-8.74152e+10 1.432e+11 7.64565e+09)
(-1.03689e+11 1.22613e+11 3.71228e+09)
(-1.08425e+11 1.08686e+11 8.0398e+09)
(-1.60057e+11 2.40506e+11 1.50852e+09)
(-1.32084e+11 2.75429e+11 -8.03147e+09)
(-9.77899e+10 1.56825e+11 8.67546e+09)
(-1.14808e+11 1.272e+11 4.62773e+09)
(-1.5125e+11 1.69578e+11 1.81473e+10)
(-1.28919e+11 1.30661e+11 1.81012e+10)
(-1.1693e+11 1.33106e+11 1.82387e+10)
(-1.04068e+11 1.11631e+11 1.50446e+09)
(-1.27626e+11 1.65974e+11 8.97777e+09)
(-1.25854e+11 2.22331e+11 3.67354e+10)
(-1.30883e+11 1.37185e+11 3.64814e+10)
(-1.53575e+11 1.19154e+11 2.87268e+10)
(-1.82003e+11 1.85305e+11 -1.59925e+10)
(-1.75821e+11 1.55005e+11 -7.12406e+09)
(-5.43352e+10 1.18302e+11 4.71142e+09)
(-6.67688e+10 1.03598e+11 1.49303e+10)
(-5.70413e+10 1.12183e+11 8.78868e+09)
(-6.1549e+10 1.16954e+11 1.8869e+10)
(-8.60846e+10 1.71608e+11 1.16362e+10)
(-1.04922e+11 1.57672e+11 5.41758e+09)
(-6.48293e+10 -1.57524e+11 1.45531e+11)
(-1.4438e+11 1.188e+11 1.34973e+10)
(-1.62805e+11 1.01812e+10 4.04927e+10)
(-2.01772e+11 1.31193e+11 -5.40191e+10)
(-4.11612e+10 8.07726e+10 1.13194e+10)
(-2.74919e+10 8.6067e+10 -4.79891e+09)
(-2.48291e+10 1.14671e+11 5.04421e+09)
(-2.13611e+10 1.45401e+11 1.89089e+09)
(-3.78102e+10 1.43429e+11 7.74352e+08)
(9.77172e+10 -2.58573e+11 1.86138e+11)
(-4.73984e+10 7.04597e+10 3.03542e+10)
(-4.80786e+10 -1.90886e+11 1.15884e+11)
(-1.31928e+11 6.68971e+10 -1.40567e+10)
(-9.49994e+10 -1.389e+11 8.19983e+10)
)
;
    }
    procBoundary13to12
    {
        type            processor;
        value           nonuniform List<vector> 
20
(
(-3.22395e+10 7.82742e+10 3.14887e+10)
(4.37959e+09 1.04103e+11 5.04904e+09)
(1.9399e+10 5.86641e+10 -1.37287e+10)
(5.60758e+10 1.04311e+11 -2.20881e+10)
(-4.10519e+10 9.29174e+10 1.2105e+10)
(4.37703e+09 1.07799e+11 8.07494e+09)
(3.02408e+10 1.18716e+11 -1.05698e+10)
(6.10954e+10 1.05043e+11 -1.13791e+10)
(-9.38476e+10 1.7773e+11 4.56366e+09)
(-9.04752e+09 1.2178e+11 -1.70801e+10)
(2.90735e+10 1.07731e+11 -2.88557e+10)
(6.5621e+10 1.12393e+11 -5.28025e+10)
(-4.14863e+10 8.6097e+10 -5.73704e+08)
(-9.99646e+09 7.23078e+10 -3.40523e+10)
(1.97581e+10 2.08908e+10 -6.60023e+10)
(6.20755e+10 -1.20235e+10 -1.0305e+11)
(-3.78853e+10 7.18302e+10 1.78513e+08)
(-1.20303e+10 2.69293e+10 -1.8028e+10)
(2.22197e+10 -1.1235e+11 -9.76902e+10)
(2.62487e+10 -3.27829e+11 -2.07341e+11)
)
;
    }
    procBoundary13to14
    {
        type            processor;
        value           nonuniform List<vector> 
20
(
(-4.81363e+10 2.63569e+11 1.98333e+09)
(2.50887e+10 2.17801e+11 1.89765e+10)
(8.05884e+10 2.48057e+11 -6.66848e+09)
(1.41002e+11 1.56877e+11 -1.91683e+09)
(-4.28733e+10 1.66126e+11 1.61103e+10)
(3.3462e+10 2.05574e+11 5.83788e+09)
(6.29533e+10 1.24738e+11 8.81458e+09)
(1.37618e+11 1.54154e+11 -3.76721e+10)
(-7.44152e+10 2.04588e+11 -1.5088e+09)
(2.08344e+10 2.78246e+11 2.17463e+10)
(1.27113e+11 2.75568e+11 3.88097e+10)
(9.24025e+10 2.08304e+11 2.4497e+10)
(-1.02813e+11 1.67725e+11 -2.29949e+10)
(3.62408e+10 1.26129e+11 6.73568e+10)
(8.21273e+10 1.81423e+11 6.35638e+10)
(1.19573e+11 1.42824e+11 6.08518e+10)
(-4.2031e+10 -1.21769e+10 6.9274e+10)
(1.31752e+09 1.35107e+11 1.35166e+10)
(7.11619e+10 1.46328e+11 5.11498e+10)
(1.43918e+11 1.88405e+11 -1.08028e+10)
)
;
    }
    procBoundary13to21
    {
        type            processor;
        value           nonuniform List<vector> 
50
(
(8.26003e+10 1.1151e+11 -1.82723e+10)
(7.64283e+10 1.14417e+11 -9.71711e+09)
(7.32813e+10 1.13566e+11 -3.64669e+08)
(8.2929e+10 1.34676e+11 -1.17386e+08)
(9.61293e+10 1.38665e+11 6.91645e+08)
(1.16621e+11 1.58507e+11 7.3892e+09)
(1.35703e+11 1.45873e+11 -7.5463e+09)
(1.26735e+11 1.52931e+11 7.2665e+09)
(1.28112e+11 1.12172e+11 -2.95545e+10)
(1.15632e+11 1.32032e+11 5.6e+09)
(7.92023e+10 1.16554e+11 -1.39733e+10)
(9.2693e+10 1.3139e+11 -8.6607e+09)
(9.95193e+10 1.3592e+11 1.30988e+08)
(1.03717e+11 1.09885e+11 -2.58417e+09)
(1.02008e+11 1.26527e+11 4.44955e+09)
(1.13986e+11 1.04556e+11 -9.45298e+09)
(1.07939e+11 1.51398e+11 2.17365e+10)
(1.31608e+11 9.74647e+10 -2.0118e+10)
(9.35962e+10 1.28011e+11 1.29337e+10)
(1.2625e+11 8.23662e+10 -6.17329e+10)
(1.2792e+11 1.03602e+11 -3.44574e+10)
(1.33286e+11 1.1186e+11 -7.59172e+09)
(1.29247e+11 1.16817e+11 -1.19555e+09)
(1.28664e+11 1.28126e+11 1.234e+10)
(1.17666e+11 9.64685e+10 -4.9046e+09)
(1.05683e+11 1.34185e+11 1.71166e+10)
(1.16619e+11 9.50716e+10 -2.88496e+10)
(9.92647e+10 1.381e+11 1.9798e+10)
(1.31147e+11 8.86765e+10 -2.95568e+10)
(9.98967e+10 1.7526e+11 -6.75862e+09)
(1.67101e+11 -1.8517e+10 -8.48526e+10)
(1.046e+11 -1.88509e+10 -4.00664e+10)
(1.33035e+11 8.90457e+10 -1.50959e+10)
(9.79402e+10 7.81451e+10 -3.10806e+09)
(1.09608e+11 1.10469e+11 1.35533e+10)
(7.56623e+10 8.95754e+10 7.94279e+09)
(7.76318e+10 1.13533e+11 1.978e+10)
(8.75015e+10 9.55837e+10 -2.22859e+10)
(8.06343e+10 1.27209e+11 1.36874e+10)
(1.18e+11 1.06342e+11 -4.74313e+09)
(7.18388e+10 -3.63359e+11 3.42888e+11)
(1.15212e+11 -1.47554e+10 8.00915e+10)
(9.44162e+10 -1.07513e+11 7.6995e+10)
(1.11304e+11 4.13033e+10 1.53795e+10)
(8.30412e+10 8.24847e+10 4.18536e+10)
(8.89701e+10 1.47041e+11 2.99099e+10)
(7.60572e+10 1.57616e+11 2.07615e+10)
(8.77521e+10 1.01355e+11 -1.00919e+11)
(1.08317e+11 1.14051e+11 1.75377e+10)
(1.36027e+11 1.01305e+11 -1.14641e+11)
)
;
    }
}


// ************************************************************************* //
