/*--------------------------------*- C++ -*----------------------------------*\
| =========                 |                                                 |
| \\      /  F ield         | OpenFOAM: The Open Source CFD Toolbox           |
|  \\    /   O peration     | Version:  2.4.0                                 |
|   \\  /    A nd           | Web:      www.OpenFOAM.org                      |
|    \\/     M anipulation  |                                                 |
\*---------------------------------------------------------------------------*/
FoamFile
{
    version     2.0;
    format      ascii;
    class       volVectorField;
    location    "0.04";
    object      gradp;
}
// * * * * * * * * * * * * * * * * * * * * * * * * * * * * * * * * * * * * * //

dimensions      [1 -2 -2 0 0 0 0];

internalField   nonuniform List<vector> 
200
(
(-503296 -100851 131233)
(-1.15699e+06 -336251 372112)
(-2.1444e+06 -842609 333075)
(-3.06028e+06 -3.66282e+06 419569)
(-2.87514e+06 -5.57793e+06 120234)
(-2.69644e+06 -5.5698e+06 -41081.9)
(-1.06454e+06 -4.33084e+06 -233308)
(724698 -782964 -1.11898e+06)
(751293 -770039 -2.57354e+06)
(-857903 -416517 -5.68273e+06)
(-668505 271302 454675)
(-1.36566e+06 539170 508337)
(-6.67421e+06 -284562 591145)
(-9.69738e+06 -482551 1.78613e+06)
(-3.97228e+06 -2.21329e+06 1.62892e+06)
(561697 -1.62096e+06 901182)
(3.54677e+06 -919559 482446)
(1.4961e+06 -465901 -1.47132e+06)
(-1.84581e+06 -1.21473e+06 -1.90271e+06)
(-908516 -3.59915e+06 -2.08393e+06)
(45641.5 1.81009e+06 269534)
(-2.26872e+06 2.84249e+06 310237)
(-4.18785e+06 3.27391e+06 882054)
(-6.91773e+06 4.80502e+06 236811)
(-5.15196e+06 7.9813e+06 1.8138e+06)
(-108992 5.77587e+06 1.58371e+06)
(1.24557e+06 5.24282e+06 2.77847e+06)
(134357 2.47276e+06 1.26158e+06)
(-5.5152e+06 1.02687e+06 -268736)
(910335 1.44246e+06 468732)
(3.02678e+06 1.39251e+06 -378990)
(1.56198e+06 2.24295e+06 -894611)
(-2.74915e+06 3.30785e+06 -1.14618e+06)
(-282591 2.96229e+06 -91758.2)
(-2.03057e+06 6.62542e+06 -1.2199e+06)
(-4.91527e+06 4.52299e+06 392303)
(-3.05945e+06 4.22228e+06 -435395)
(-6.93579e+06 2.37048e+06 735533)
(-3.90642e+06 687211 1.51414e+06)
(-281678 3.17487e+06 424166)
(499475 658679 -774315)
(-511097 604762 -649892)
(-1.99254e+06 307165 -50674.8)
(-3.74137e+06 -314750 143891)
(-4.34923e+06 -2.3378e+06 286322)
(-3.82778e+06 -3.18348e+06 271401)
(-4.51382e+06 -3.0465e+06 390179)
(-6.76406e+06 -3.33289e+06 -5028.51)
(-1.38527e+07 -3.02647e+06 -398943)
(-7.12166e+06 -1.15694e+06 -998906)
(324025 492584 -340873)
(-928955 440172 1.1498e+06)
(-2.58527e+06 593804 1.08309e+06)
(-6.37649e+06 -774963 2.57955e+06)
(-6.80411e+06 496422 3.09254e+06)
(-3.10702e+06 978703 2.28654e+06)
(-4.04525e+06 3.89929e+06 2.03047e+06)
(-6.13641e+06 3.343e+06 186611)
(-3.80614e+06 2.47296e+06 -508043)
(680683 6.24319e+06 267983)
(360397 476229 859813)
(-308657 597775 667195)
(-4.42281e+06 494197 1.52472e+06)
(-3.93614e+06 1.8004e+06 1.8755e+06)
(-841893 3.42318e+06 2.54477e+06)
(2.97796e+06 4.96167e+06 2.26647e+06)
(214777 3.77427e+06 1.87223e+06)
(-9.61672e+06 6.00373e+06 2.71668e+06)
(-8.05233e+06 6.49383e+06 1.81253e+06)
(-3.55772e+06 5.45541e+06 3.09521e+06)
(71402.9 354867 -778918)
(-893020 315191 -1.02587e+06)
(-180027 62686.1 -572081)
(-518522 2.43658e+06 -117361)
(-481574 1.77149e+06 -1.05198e+06)
(-2.40484e+06 2.61674e+06 215951)
(-1.96111e+06 -919906 200718)
(-697292 1.5288e+06 818995)
(-4.90279e+06 3.53981e+06 2.60587e+06)
(-4.04172e+06 3.10357e+06 2.00406e+06)
(-1.21655e+06 276367 -1.4586e+07)
(1.15866e+06 3.00238e+06 -1.61805e+07)
(395703 2.9199e+06 -8.37328e+06)
(-1.98189e+06 2.21597e+06 -3.77756e+06)
(-2.46711e+06 1.173e+06 -2.1734e+06)
(-2.3641e+06 179331 -2.30049e+06)
(-1.94912e+06 326862 -1.05622e+06)
(-1.80049e+06 -820144 211203)
(-2.42912e+06 -2.45515e+06 2.14502e+06)
(-1.0532e+06 -1.08596e+06 5.48351e+06)
(6.89489e+06 2.88591e+06 -2.29394e+07)
(3.19104e+06 2.64651e+06 -1.06879e+07)
(-2.09901e+06 2.23607e+06 -3.56493e+06)
(-3.26714e+06 2.28802e+06 -1.84712e+06)
(-4.90993e+06 1.40024e+06 -658839)
(-2.83695e+06 1.57115e+06 279790)
(-3.17299e+06 1.45173e+06 -91725.4)
(-6.62713e+06 3.88884e+06 1.4527e+06)
(-1.58542e+06 2.32363e+06 2.06371e+06)
(3.76891e+06 2.95143e+06 3.40646e+06)
(3.85331e+06 1.10922e+06 -8.30146e+06)
(-141019 -638580 -3.51113e+06)
(-321276 625630 -2.01772e+06)
(-3.65356e+06 489960 -829870)
(-3.90086e+06 1.35007e+06 -906242)
(-2.26112e+06 2.46294e+06 -903918)
(2.68627e+06 2.31522e+06 -2.00982e+06)
(-56675.9 3.48458e+06 -1.35256e+06)
(-4.30393e+06 6.00913e+06 1.58119e+06)
(431409 4.22019e+06 2.47166e+06)
(-231023 -1.22946e+06 -4.41204e+06)
(2.22385e+06 -465956 -2.61976e+06)
(158073 -47027.9 -1.8169e+06)
(-1.81826e+06 -226282 -1.99964e+06)
(-963971 870621 -1.98325e+06)
(-906641 1.24216e+06 -2.36961e+06)
(-1.12971e+06 1.54786e+06 -1.58148e+06)
(760685 -665825 -1.64972e+06)
(-114193 1.95654e+06 -914361)
(-1.62036e+06 1.42904e+06 492365)
(-3.2392e+07 -2.87579e+07 -9.2707e+06)
(1.93697e+07 -2.58124e+06 -5.10029e+06)
(3.76969e+07 1.12527e+07 800310)
(1.60982e+07 7.73166e+06 4.3182e+06)
(377403 4.25718e+06 1.47684e+06)
(-252780 2.3948e+06 983078)
(3.52359e+06 365496 -315478)
(3.47991e+06 -183961 384014)
(3.01866e+06 -1.39496e+06 1.37258e+06)
(1.92358e+06 120245 2.27743e+06)
(4.61608e+07 1.05479e+07 515677)
(6.10692e+07 2.07112e+07 7.9921e+06)
(2.57052e+07 1.07627e+07 8.39634e+06)
(2.92301e+06 3.94134e+06 5.11012e+06)
(2014.37 2.52388e+06 3.07845e+06)
(-1.29226e+06 3.21322e+06 1.75462e+06)
(-291943 2.37353e+06 1.00718e+06)
(760996 840983 1.46447e+06)
(2.44591e+06 1.57083e+06 3.62885e+06)
(4.6974e+06 1.42424e+06 2.78391e+06)
(5.13985e+07 3.01199e+07 3.51708e+06)
(1.97993e+07 1.35068e+07 7.80066e+06)
(4.15722e+06 3.29105e+06 6.09768e+06)
(-379422 1.55637e+06 3.55138e+06)
(-1.07885e+06 1.30413e+06 2.29883e+06)
(-553492 722623 1.21621e+06)
(-1.22088e+06 1.39066e+06 758465)
(1.87451e+06 1.03987e+06 -359097)
(4.18518e+06 1.72891e+06 1.12451e+06)
(2.90697e+06 792851 1.66676e+06)
(1.54012e+07 6.57794e+06 3.84848e+06)
(7.41143e+06 1.74138e+06 5.19096e+06)
(1.80435e+06 383989 3.45917e+06)
(-1.05084e+06 564944 2.06405e+06)
(-1.66547e+06 48280.8 808475)
(-1.11918e+06 271631 -294359)
(342545 -234565 176471)
(1.4375e+06 1.05334e+06 452251)
(1.95188e+06 -453071 -133148)
(2.72359e+06 -63308.5 466824)
(4.09678e+06 6.52919e+06 4.4098e+06)
(3.33859e+07 1.90767e+07 1.00582e+07)
(3.05349e+07 1.44014e+07 8.78984e+06)
(182989 7.50276e+06 7.82009e+06)
(-1.31395e+07 4.36973e+06 3.81633e+06)
(-8.09951e+06 4.06019e+06 3.59605e+06)
(-3.86613e+06 1.99843e+06 1.36423e+06)
(3.6013e+06 617889 1.28676e+06)
(3.62981e+06 2.12876e+06 1.40216e+06)
(1.1789e+06 1.49098e+06 1.47775e+06)
(4.20358e+07 2.33463e+07 2.26595e+07)
(2.84092e+07 2.3288e+07 1.93215e+07)
(-1.13213e+07 1.07119e+07 1.24532e+07)
(-2.02844e+07 1.0611e+06 7.75067e+06)
(-1.56475e+07 2.71543e+06 5.20091e+06)
(-9.46501e+06 1.94416e+06 2.86018e+06)
(-4.10147e+06 3.17004e+06 2.64693e+06)
(1.76221e+06 2.69986e+06 1.66971e+06)
(2.63678e+06 1.92672e+06 2.95981e+06)
(-1.10164e+06 1.97436e+06 1.72935e+06)
(3.9122e+07 6.4417e+06 1.24088e+07)
(8.11689e+06 -5.12039e+06 1.16687e+07)
(-1.3919e+07 -7.27384e+06 8.75806e+06)
(-1.58099e+07 -4.38376e+06 6.01993e+06)
(-1.13734e+07 -2.28189e+06 3.93604e+06)
(-7.19029e+06 -815426 2.80289e+06)
(-2.35472e+06 986083 1.86204e+06)
(1.11466e+06 1.86503e+06 2.44856e+06)
(2.17881e+06 -10068 1.62459e+06)
(537467 512857 1.82157e+06)
(3.14272e+07 -699232 7.86059e+06)
(978080 -4.64146e+06 7.67947e+06)
(-9.84806e+06 -4.26863e+06 5.85017e+06)
(-1.03005e+07 -2.60601e+06 4.03809e+06)
(-8.51087e+06 -1.51395e+06 2.95965e+06)
(-2.92906e+06 -1.17475e+06 1.8989e+06)
(1.25944e+06 616670 2.39407e+06)
(-230093 632331 2.18543e+06)
(-67559.1 -55708.5 1.87294e+06)
(685860 -490852 1.55436e+06)
)
;

boundaryField
{
    inlet
    {
        type            zeroGradient;
    }
    outlet
    {
        type            zeroGradient;
    }
    bottom
    {
        type            zeroGradient;
    }
    top
    {
        type            symmetryPlane;
    }
    side1
    {
        type            symmetryPlane;
    }
    side2
    {
        type            symmetryPlane;
    }
    procBoundary26to18
    {
        type            processor;
        value           nonuniform List<vector> 
50
(
(98708.1 -14714.8 -20031)
(117859 -334423 -79796.1)
(-21069.6 -728471 -127464)
(-226727 -1.49794e+06 -306415)
(-158328 -2.19855e+06 -396161)
(-1.9325e+06 -2.57007e+06 -590268)
(-6.02689e+06 -2.70313e+06 -320266)
(-5.62549e+06 -1.63204e+06 122380)
(-2.5787e+06 1.35019e+06 -492443)
(2.01104e+06 -921223 -1.62116e+06)
(-66046.8 288342 -576634)
(-225927 414569 -936843)
(-746250 18025.2 -1.26847e+06)
(-1.08656e+06 -657330 -1.09469e+06)
(-1.06666e+06 -1.88699e+06 -1.12679e+06)
(-1.68963e+06 -2.75003e+06 -1.30667e+06)
(-3.74642e+06 -3.35161e+06 -880596)
(-6.17646e+06 -3.87408e+06 209849)
(-8.15804e+06 -4.67422e+06 545150)
(-1.25901e+07 -7.11398e+06 686385)
(-1.73249e+06 -497702 -4.55398e+06)
(-2.09603e+06 -203432 -8.69666e+06)
(-526195 786347 -1.04059e+07)
(226652 635913 -6.87613e+06)
(-836647 69247.3 -4.7807e+06)
(-1.14467e+06 -749519 -3.20664e+06)
(-1.17404e+06 -1.24057e+06 -2.22422e+06)
(-1.06311e+06 -1.52544e+06 -515384)
(-1.05378e+06 -1.6366e+06 1.04402e+06)
(-655348 -2.00683e+06 2.60822e+06)
(-2.21525e+07 -2.07424e+07 -3.39234e+06)
(-1.8952e+07 -2.10445e+07 -2.05434e+06)
(5.07945e+06 -6.24235e+06 1.22041e+06)
(1.6914e+07 2.44161e+06 1.80588e+06)
(1.06757e+07 964151 1.0805e+06)
(6.49111e+06 -1.42772e+06 -670919)
(4.86559e+06 -1.88796e+06 -37550.4)
(4.28191e+06 -2.07398e+06 565698)
(1.8375e+06 -1.5871e+06 763911)
(850752 -1.16147e+06 1.17332e+06)
(-3.18909e+06 -1.5691e+07 605039)
(1.26648e+07 -9.8304e+06 5.78527e+06)
(1.18265e+07 2.60048e+06 1.04853e+07)
(-221068 3.94784e+06 7.89373e+06)
(-8.76241e+06 -1.37181e+06 5.13057e+06)
(-4.72242e+06 -1.72957e+06 1.81932e+06)
(2.78314e+06 -3.68019e+06 1.62634e+06)
(1.50157e+06 -2.1833e+06 1.16855e+06)
(890610 -755750 757483)
(885341 182084 872647)
)
;
    }
    procBoundary26to25
    {
        type            processor;
        value           nonuniform List<vector> 
20
(
(25596.5 47355.5 58745.4)
(-362672 264701 198171)
(138645 994849 211876)
(2.19362e+06 752380 28944.2)
(470108 409726 -427001)
(750707 509711 -1.21376e+06)
(581476 724086 -522700)
(1.08563e+06 459688 -7806.76)
(-1.83894e+06 -1.31131e+06 -5.90194e+06)
(614010 111582 -2.50119e+07)
(5.44599e+06 2.92437e+06 -1.94605e+07)
(-35464.7 1.57621e+06 -7.41033e+06)
(-4.17663e+07 -3.67379e+07 -6.76071e+06)
(-4.41939e+07 -2.11841e+07 -2.98945e+06)
(4.18246e+07 2.88866e+07 -3.22081e+06)
(2.58275e+07 1.974e+07 -4.70224e+06)
(-2.40095e+07 -3.53579e+06 -1.34452e+06)
(2.30287e+07 5.77542e+06 2.06105e+07)
(4.05308e+07 183917 1.55052e+07)
(4.9242e+07 -794074 2.67134e+06)
)
;
    }
    procBoundary26to27
    {
        type            processor;
        value           nonuniform List<vector> 
20
(
(1.52337e+06 -2.22982e+06 -4.53097e+06)
(6.64126e+06 -330610 -1.40609e+06)
(6.68037e+06 1.34029e+06 -1.665e+06)
(2.3665e+06 91204.1 339123)
(7.26984e+06 3.60892e+06 -459972)
(4.80122e+06 4.25493e+06 953651)
(1.22107e+06 4.13263e+06 1.66287e+06)
(-1.8617e+06 3.29781e+06 2.18753e+06)
(3.09935e+06 -243022 4.97166e+06)
(3.57442e+06 3.06594e+06 3.31894e+06)
(-336842 3.3145e+06 3.6014e+06)
(-1.47264e+06 930657 1.1998e+06)
(2.22466e+06 528361 2.07011e+06)
(2.1041e+06 2.06252e+06 2.1068e+06)
(1.98753e+06 742005 1.15765e+06)
(2.38901e+06 -544762 587546)
(286060 1.13526e+06 1.16945e+06)
(-655223 1.606e+06 1.14761e+06)
(-1.19015e+06 883684 884123)
(261043 18488.1 1.23615e+06)
)
;
    }
}


// ************************************************************************* //
