/*--------------------------------*- C++ -*----------------------------------*\
| =========                 |                                                 |
| \\      /  F ield         | OpenFOAM: The Open Source CFD Toolbox           |
|  \\    /   O peration     | Version:  2.4.0                                 |
|   \\  /    A nd           | Web:      www.OpenFOAM.org                      |
|    \\/     M anipulation  |                                                 |
\*---------------------------------------------------------------------------*/
FoamFile
{
    version     2.0;
    format      ascii;
    class       volScalarField;
    location    "0.01";
    object      nut;
}
// * * * * * * * * * * * * * * * * * * * * * * * * * * * * * * * * * * * * * //

dimensions      [0 2 -1 0 0 0 0];

internalField   nonuniform List<scalar> 
200
(
0.000585499
0.000982613
0.00144186
0.000410877
0.000770621
0.000813898
6.18932e-05
0.000264848
0.000237951
0.000458073
0.000372997
0.000835951
0.00024435
0.000868131
0.000781566
0.000378017
0.000129205
0.000281588
0.000256732
0.000380782
0.000259009
0.000224296
0.0012463
0.00069926
0.000797667
7.93526e-05
0.000286312
0.000203113
0.000498403
0.000583517
0.000176203
0.00154349
0.000657394
0.00160004
0.000102969
0.000236538
6.77015e-05
0.000497616
0.000497478
0.000912405
0.000276153
0.000375371
0.000233413
0.000464765
0.000739636
0.000505641
0.00055597
0.000125161
9.28857e-05
9.96515e-05
0.000541214
0.000137525
0.000952848
0.000215745
0.000496579
0.000288356
0.000458724
0.000106937
0.00014841
0.000229786
9.25108e-05
0.0005175
0.000200378
0.000597665
0.000146762
0.000312693
5.33399e-05
0.000234699
0.000170045
0.000296868
0.000438973
0.000223803
0.000984266
0.000178957
0.000276766
0.00015857
0.00020866
0.000149561
0.000489906
4.94041e-05
0.000370797
0.000329127
0.000971181
0.000912808
0.000607472
0.00115409
0.000127133
5.18993e-05
7.88963e-05
0.000109941
0.000106263
0.000840138
0.000163213
0.00133477
0.000605592
0.000272474
8.03292e-05
0.000109518
7.89091e-05
0.000131436
0.000239682
8.11561e-05
0.000885454
8.36432e-05
0.00011275
0.000163385
0.000164753
5.96216e-05
5.89637e-05
0.000127287
0.000200096
0.000834922
0.000200237
0.000417004
0.00021324
0.000222048
0.000164838
0.000247878
6.06741e-05
0.000576741
0.000321929
0.000230437
0.000803494
0.000839309
0.00103148
0.000164316
0.000120148
0.000165973
3.28829e-05
0.000148996
0.000187851
0.000217438
0.000612789
0.000586797
0.000972566
0.000440739
0.00012343
0.000166351
6.89232e-05
0.000414893
0.000101834
0.000210579
0.000239603
0.000478539
0.000289296
0.000274213
0.000288964
9.44775e-05
6.83988e-05
0.000141682
0.000200682
0.000131965
0.000275923
0.000129969
0.000162375
9.68155e-05
0.000279403
3.2362e-05
0.000144644
3.47515e-05
8.2293e-05
0.000337379
0.000173132
0.000549308
8.55199e-05
0.000238478
6.61856e-05
4.73781e-05
0.000113882
3.40534e-05
0.000111571
0.000172475
0.000551151
0.000369011
0.000396795
0.00013284
0.000846931
5.30565e-05
0.000203279
7.27386e-05
0.000405175
0.000447394
0.000304159
0.000430488
0.000239721
0.000721101
0.00033772
0.000676211
0.000177688
0.00010423
0.000284235
0.000196148
0.000599407
0.00020178
0.00021843
0.000237437
0.000362586
0.000247415
0.00014376
0.000135205
)
;

boundaryField
{
    inlet
    {
        type            calculated;
        value           nonuniform 0();
    }
    outlet
    {
        type            calculated;
        value           nonuniform 0();
    }
    bottom
    {
        type            calculated;
        value           nonuniform List<scalar> 
40
(
3.0039e-28
1.17722e-27
2.73867e-28
1.56311e-28
2.57578e-27
5.64965e-28
6.00151e-28
1.40021e-27
1.33971e-27
3.9902e-28
1.20452e-27
9.78964e-28
2.38985e-28
9.40546e-28
7.06492e-28
1.14824e-27
1.24951e-27
6.97883e-28
5.57045e-28
1.37764e-28
6.75988e-28
2.51966e-28
1.14187e-28
2.66989e-28
1.05567e-28
8.58122e-29
2.85063e-28
1.66206e-28
2.13345e-28
4.53469e-28
2.1793e-28
5.26301e-28
6.98102e-28
2.70097e-28
7.34745e-28
5.78923e-28
4.24233e-28
1.09921e-27
6.1395e-28
7.81736e-28
)
;
    }
    top
    {
        type            symmetryPlane;
    }
    side1
    {
        type            symmetryPlane;
    }
    side2
    {
        type            symmetryPlane;
    }
    procBoundary3to2
    {
        type            processor;
        value           nonuniform List<scalar> 
20
(
0.000539276
0.000316007
0.000167298
0.000448246
0.000428446
0.000144899
0.000175383
3.36688e-05
0.000224144
0.000327263
0.000303504
0.000282016
3.66541e-05
0.00014938
0.000610635
0.000207923
0.00106968
0.000188053
0.000251372
0.000467696
)
;
    }
    procBoundary3to4
    {
        type            processor;
        value           nonuniform List<scalar> 
20
(
0.000723277
0.000540939
0.000676913
0.000545005
0.000432855
0.000245911
8.87366e-05
0.000852975
0.000239068
0.000286506
0.000339152
0.000145745
0.000162171
0.000139558
0.000283495
0.000409138
0.000123025
0.000235304
0.000117276
8.13328e-05
)
;
    }
    procBoundary3to11
    {
        type            processor;
        value           nonuniform List<scalar> 
50
(
0.000760546
3.67574e-05
0.00115772
0.000191242
0.000239256
0.00012694
0.00034015
0.000169574
0.000691182
0.000364257
8.44188e-05
0.000787985
6.75961e-05
0.000169629
0.000251897
0.000108325
0.00031531
0.000369399
4.55877e-05
0.000545683
0.000532694
0.000176568
0.000733879
0.000127079
0.000175693
0.000342482
0.000405799
0.000191775
0.000290825
0.00011713
0.000135697
0.000209121
0.000127479
0.000154277
0.000130486
6.91084e-05
7.13067e-05
6.96797e-05
7.0943e-05
6.90197e-05
4.83298e-05
0.000509555
0.000120148
0.000274198
0.000364038
0.000221747
0.00013414
7.76325e-05
0.000194909
0.0001192
)
;
    }
}


// ************************************************************************* //
