/*--------------------------------*- C++ -*----------------------------------*\
| =========                 |                                                 |
| \\      /  F ield         | OpenFOAM: The Open Source CFD Toolbox           |
|  \\    /   O peration     | Version:  2.4.0                                 |
|   \\  /    A nd           | Web:      www.OpenFOAM.org                      |
|    \\/     M anipulation  |                                                 |
\*---------------------------------------------------------------------------*/
FoamFile
{
    version     2.0;
    format      ascii;
    class       volVectorField;
    location    "0.01";
    object      U;
}
// * * * * * * * * * * * * * * * * * * * * * * * * * * * * * * * * * * * * * //

dimensions      [0 1 -1 0 0 0 0];

internalField   nonuniform List<vector> 
60
(
(1.7043e+12 4.52619e+10 1.51084e+11)
(1.61008e+12 3.74314e+11 1.83071e+11)
(1.29375e+12 2.89624e+11 3.02964e+11)
(1.07947e+12 3.28755e+10 3.02331e+11)
(9.76738e+11 -8.59225e+10 2.90864e+11)
(8.10278e+11 -8.65179e+10 1.23964e+11)
(8.15606e+11 2.14958e+10 1.43012e+11)
(9.14546e+11 7.78428e+10 1.68149e+11)
(9.30379e+11 1.94088e+11 1.76612e+11)
(7.4229e+11 1.94538e+11 1.48756e+11)
(9.46784e+11 1.19708e+10 2.26908e+11)
(5.06845e+11 -4.27446e+10 2.20192e+11)
(3.09494e+11 -2.79382e+09 3.23801e+10)
(2.68431e+11 8.17491e+10 4.16917e+10)
(2.80706e+11 1.25421e+11 4.64993e+10)
(4.58705e+11 2.04332e+11 1.5655e+11)
(2.79566e+11 1.85665e+11 1.09629e+11)
(1.81704e+11 1.18744e+11 5.22562e+10)
(1.58484e+11 7.99294e+10 5.36829e+10)
(9.57593e+10 5.61845e+10 3.50225e+10)
(2.9346e+11 7.93108e+10 2.98761e+11)
(2.64967e+11 3.65661e+10 2.87464e+11)
(2.48278e+11 1.27135e+10 3.00995e+11)
(2.45485e+11 -7.83621e+09 3.26456e+11)
(2.70932e+11 -9.09912e+09 3.69169e+11)
(2.83662e+11 7.38494e+10 3.10018e+11)
(3.07396e+11 3.11429e+10 2.879e+11)
(2.43682e+11 2.60337e+10 3.72498e+11)
(2.07529e+11 1.54167e+10 2.79309e+11)
(1.75093e+11 7.78386e+09 2.35557e+11)
(6.86681e+11 9.66406e+10 4.96326e+11)
(5.61483e+11 9.7513e+10 6.22382e+11)
(4.97196e+11 8.97118e+10 3.61927e+11)
(3.6231e+11 8.90241e+10 2.12013e+11)
(2.85467e+11 6.94846e+10 1.83735e+11)
(6.06474e+11 2.11367e+11 4.59032e+11)
(4.66898e+11 2.08532e+11 3.45071e+11)
(3.79196e+11 1.52663e+11 2.25381e+11)
(2.81142e+11 1.38492e+11 1.70674e+11)
(2.23601e+11 1.20358e+11 1.40601e+11)
(1.1808e+10 -1.52305e+10 3.15399e+11)
(4.62119e+10 -3.63018e+09 3.11551e+11)
(5.22911e+10 -8.04982e+09 2.90197e+11)
(7.27456e+10 -6.40223e+09 2.74099e+11)
(8.04282e+10 3.21436e+09 2.83379e+11)
(7.16653e+10 -3.62275e+10 3.55386e+11)
(8.79822e+10 -1.19371e+10 2.80235e+11)
(7.88305e+10 -5.31348e+09 3.46047e+11)
(9.75828e+10 1.06453e+10 3.47589e+11)
(6.61755e+10 1.68983e+10 2.63029e+11)
(8.01437e+10 -3.06152e+10 3.55867e+11)
(5.12251e+10 -8.11642e+09 4.37145e+11)
(6.57404e+10 1.13554e+10 5.6208e+11)
(1.20168e+11 3.70974e+10 4.28463e+11)
(7.42619e+10 4.12359e+10 2.92537e+11)
(1.58185e+11 6.37014e+09 4.87909e+11)
(1.21591e+11 2.96343e+10 6.69369e+11)
(1.01771e+11 4.67533e+10 3.46839e+11)
(5.96811e+10 3.56345e+10 2.38257e+11)
(3.19319e+10 3.3945e+10 2.10653e+11)
)
;

boundaryField
{
    inlet
    {
        type            calculated;
        value           nonuniform 0();
    }
    outlet
    {
        type            calculated;
        value           nonuniform 0();
    }
    bottom
    {
        type            calculated;
        value           uniform (0 0 0);
    }
    top
    {
        type            symmetryPlane;
    }
    side1
    {
        type            symmetryPlane;
    }
    side2
    {
        type            symmetryPlane;
    }
    procBoundary3to2
    {
        type            processor;
        value           nonuniform List<vector> 
12
(
(1.61967e+12 -2.12856e+11 1.1696e+11)
(9.8701e+11 -2.02983e+11 1.33839e+11)
(8.5747e+11 2.03875e+11 3.74357e+11)
(4.84283e+11 3.11144e+11 2.03401e+11)
(3.75685e+11 4.48758e+10 2.83901e+11)
(3.4617e+11 4.67736e+10 3.98689e+11)
(7.01645e+11 1.21304e+11 4.87239e+11)
(7.06937e+11 2.23174e+11 4.99931e+11)
(-3.15136e+10 -2.99461e+10 3.79773e+11)
(7.30753e+10 -8.19114e+10 4.92204e+11)
(8.15429e+10 -4.6746e+10 4.32595e+11)
(1.2703e+11 -3.1471e+09 4.40535e+11)
)
;
    }
    procBoundary3to4
    {
        type            processor;
        value           nonuniform List<vector> 
12
(
(8.24256e+11 -2.01487e+10 3.02964e+11)
(5.59985e+11 1.30873e+11 1.05662e+11)
(3.08709e+11 1.50318e+11 3.8422e+10)
(7.89263e+10 5.62087e+10 2.81453e+10)
(3.39838e+11 1.94409e+10 3.49855e+11)
(1.5373e+11 1.49136e+10 1.88817e+11)
(2.08287e+11 5.17357e+10 1.5494e+11)
(1.79871e+11 1.08126e+11 1.15241e+11)
(7.07269e+10 2.06061e+10 2.85832e+11)
(8.1647e+10 4.35672e+10 1.41074e+11)
(3.81625e+10 3.76648e+10 2.09652e+11)
(9.83316e+09 3.54934e+10 1.87574e+11)
)
;
    }
    procBoundary3to19
    {
        type            processor;
        value           nonuniform List<vector> 
15
(
(4.26825e+11 2.654e+11 1.10362e+11)
(3.8094e+11 2.143e+11 8.76847e+10)
(2.9761e+11 1.91725e+11 7.89909e+10)
(2.00647e+11 1.08901e+11 6.45287e+10)
(1.74923e+11 8.9582e+10 5.17862e+10)
(4.99526e+11 3.26117e+11 2.55413e+11)
(4.61987e+11 3.30158e+11 2.36876e+11)
(3.55563e+11 2.34024e+11 1.85032e+11)
(3.09737e+11 1.77752e+11 1.88322e+11)
(2.89652e+11 1.58147e+11 2.20738e+11)
(6.06661e+10 5.61525e+10 2.6366e+11)
(5.49869e+10 6.12428e+10 2.84768e+11)
(3.53438e+10 3.26319e+10 2.19274e+11)
(3.21943e+10 1.49068e+10 1.56705e+11)
(4.75044e+10 2.04869e+10 2.32863e+11)
)
;
    }
    procBoundary3to67
    {
        type            processor;
        value           nonuniform List<vector> 
20
(
(-3.12896e+11 -3.34497e+10 2.55092e+11)
(-2.87756e+11 -3.22496e+10 2.60624e+11)
(-2.30627e+11 -2.48573e+10 2.58011e+11)
(-1.92656e+11 -1.64681e+10 2.49455e+11)
(-1.43517e+11 -9.79433e+09 2.35419e+11)
(-3.06109e+11 -9.63584e+10 2.99423e+11)
(-2.38898e+11 -7.66965e+10 2.50147e+11)
(-2.44489e+11 -6.3365e+10 2.5314e+11)
(-1.47402e+11 -5.16917e+10 2.35118e+11)
(-1.00918e+11 -2.90355e+10 2.05313e+11)
(-2.578e+11 -1.21291e+11 2.72234e+11)
(-2.72597e+11 -1.01672e+11 3.30962e+11)
(-2.29549e+11 -1.34556e+10 3.58133e+11)
(-2.45174e+11 -1.39574e+10 3.93312e+11)
(-2.35426e+11 -5.81653e+10 3.49096e+11)
(-2.55534e+11 -3.01582e+10 1.74303e+11)
(-2.2516e+11 -3.64073e+10 7.18547e+11)
(-2.81826e+11 5.85124e+09 7.01413e+11)
(-3.24935e+11 1.85586e+10 4.10645e+11)
(-3.02353e+11 -4.25128e+10 2.87422e+11)
)
;
    }
}


// ************************************************************************* //
