/*--------------------------------*- C++ -*----------------------------------*\
| =========                 |                                                 |
| \\      /  F ield         | OpenFOAM: The Open Source CFD Toolbox           |
|  \\    /   O peration     | Version:  2.4.0                                 |
|   \\  /    A nd           | Web:      www.OpenFOAM.org                      |
|    \\/     M anipulation  |                                                 |
\*---------------------------------------------------------------------------*/
FoamFile
{
    version     2.0;
    format      ascii;
    class       volVectorField;
    location    "0.08";
    object      A_Source;
}
// * * * * * * * * * * * * * * * * * * * * * * * * * * * * * * * * * * * * * //

dimensions      [1 -2 -2 0 0 0 0];

internalField   nonuniform List<vector> 
200
(
(1.30949e-70 -7.95345e-71 1.52594e-70)
(7.42919e-73 -4.51073e-73 8.65717e-73)
(4.38547e-75 -2.66168e-75 5.11035e-75)
(2.63601e-77 -1.59928e-77 3.07172e-77)
(1.58946e-79 -9.63994e-80 1.85219e-79)
(9.53131e-82 -5.77878e-82 1.11068e-81)
(5.6592e-84 -3.43011e-84 6.59462e-84)
(3.32111e-86 -2.0124e-86 3.87006e-86)
(1.92567e-88 -1.16653e-88 2.24396e-88)
(1.10356e-90 -6.68342e-91 1.28597e-90)
(7.93197e-73 -4.82136e-73 9.24306e-73)
(4.36961e-75 -2.65549e-75 5.09188e-75)
(2.43619e-77 -1.48015e-77 2.83888e-77)
(1.37756e-79 -8.36713e-80 1.60525e-79)
(7.8887e-82 -4.78998e-82 9.19264e-82)
(4.55933e-84 -2.76747e-84 5.31295e-84)
(2.64859e-86 -1.60714e-86 3.08638e-86)
(1.5406e-88 -9.34516e-89 1.79525e-88)
(8.94499e-91 -5.42429e-91 1.04235e-90)
(5.17239e-93 -3.13564e-93 6.02735e-93)
(3.97484e-75 -2.41761e-75 4.63185e-75)
(2.25921e-77 -1.37388e-77 2.63264e-77)
(1.27687e-79 -7.76354e-80 1.48793e-79)
(7.20728e-82 -4.38121e-82 8.39858e-82)
(4.07532e-84 -2.47675e-84 4.74894e-84)
(2.31244e-86 -1.40501e-86 2.69467e-86)
(1.3174e-88 -8.0021e-89 1.53516e-88)
(7.53199e-91 -4.57368e-91 8.77697e-91)
(4.31687e-93 -2.62055e-93 5.03042e-93)
(2.4767e-95 -1.50302e-95 2.88608e-95)
(1.78602e-77 -1.08696e-77 2.08123e-77)
(1.04709e-79 -6.37141e-80 1.22016e-79)
(6.07646e-82 -3.69682e-82 7.08085e-82)
(3.49883e-84 -2.12825e-84 4.07716e-84)
(2.00372e-86 -1.21858e-86 2.33492e-86)
(1.14372e-88 -6.95423e-89 1.33276e-88)
(6.51797e-91 -3.9623e-91 7.59534e-91)
(3.71319e-93 -2.25672e-93 4.32695e-93)
(2.11604e-95 -1.28571e-95 2.46581e-95)
(1.20651e-97 -7.32881e-98 1.40593e-97)
(2.31112e-72 -1.4034e-72 2.69312e-72)
(1.34106e-74 -8.14062e-75 1.56273e-74)
(8.09617e-77 -4.9127e-77 9.43441e-77)
(4.97541e-79 -3.0179e-79 5.7978e-79)
(3.06584e-81 -1.85897e-81 3.5726e-81)
(1.87779e-83 -1.13822e-83 2.18817e-83)
(1.13821e-85 -6.89717e-86 1.32634e-85)
(6.81564e-88 -4.1289e-88 7.94222e-88)
(4.03053e-90 -2.44103e-90 4.69674e-90)
(2.35476e-92 -1.42575e-92 2.74398e-92)
(1.43421e-74 -8.71598e-75 1.67128e-74)
(8.07324e-77 -4.90528e-77 9.40769e-77)
(4.59785e-79 -2.79295e-79 5.35784e-79)
(2.65504e-81 -1.61232e-81 3.09389e-81)
(1.55225e-83 -9.42327e-84 1.80883e-83)
(9.15627e-86 -5.55662e-86 1.06697e-85)
(5.42682e-88 -3.29224e-88 6.32383e-88)
(3.2194e-90 -1.95245e-90 3.75154e-90)
(1.90571e-92 -1.15538e-92 2.22071e-92)
(1.12304e-94 -6.80667e-95 1.30867e-94)
(7.35153e-77 -4.4706e-77 8.56668e-77)
(4.26789e-79 -2.59495e-79 4.97334e-79)
(2.46275e-81 -1.49711e-81 2.86982e-81)
(1.41871e-83 -8.62262e-84 1.65321e-83)
(8.18437e-86 -4.97311e-86 9.53718e-86)
(4.73648e-88 -2.87729e-88 5.51938e-88)
(2.75126e-90 -1.67084e-90 3.20602e-90)
(1.60331e-92 -9.73398e-93 1.86832e-92)
(9.36348e-95 -5.683e-95 1.09112e-94)
(5.47227e-97 -3.32028e-97 6.3768e-97)
(3.37629e-79 -2.05446e-79 3.93437e-79)
(2.02098e-81 -1.22955e-81 2.35504e-81)
(1.19693e-83 -7.28074e-84 1.39477e-83)
(7.0308e-86 -4.27597e-86 8.19294e-86)
(4.106e-88 -2.49671e-88 4.78469e-88)
(2.38918e-90 -1.45247e-90 2.78409e-90)
(1.38755e-92 -8.43359e-93 1.61691e-92)
(8.05296e-95 -4.89343e-95 9.38405e-95)
(4.67385e-97 -2.83936e-97 5.4464e-97)
(2.71329e-99 -1.64788e-99 3.16177e-99)
(2.09922e-74 -1.27444e-74 2.44621e-74)
(1.2454e-76 -7.5582e-77 1.45125e-76)
(7.68661e-79 -4.66311e-79 8.95714e-79)
(4.8278e-81 -2.92768e-81 5.6258e-81)
(3.0391e-83 -1.84232e-83 3.54144e-83)
(1.90065e-85 -1.1518e-85 2.21481e-85)
(1.17577e-87 -7.12307e-88 1.37011e-87)
(7.18203e-90 -4.34981e-90 8.36916e-90)
(4.33061e-92 -2.62214e-92 5.04642e-92)
(2.57868e-94 -1.56096e-94 3.00492e-94)
(1.33407e-76 -8.10579e-77 1.55458e-76)
(7.6707e-79 -4.65977e-79 8.93861e-79)
(4.46104e-81 -2.7093e-81 5.19842e-81)
(2.62986e-83 -1.59671e-83 3.06456e-83)
(1.56924e-85 -9.52445e-86 1.82863e-85)
(9.4446e-88 -5.7304e-88 1.10057e-87)
(5.70961e-90 -3.46307e-90 6.65336e-90)
(3.45366e-92 -2.09407e-92 4.02452e-92)
(2.08376e-94 -1.26306e-94 2.42819e-94)
(1.25117e-96 -7.5816e-97 1.45798e-96)
(6.99207e-79 -4.25124e-79 8.1478e-79)
(4.14476e-81 -2.51963e-81 4.82985e-81)
(2.4411e-83 -1.48369e-83 2.8446e-83)
(1.43477e-85 -8.71866e-86 1.67193e-85)
(8.44218e-88 -5.12882e-88 9.83761e-88)
(4.98164e-90 -3.02566e-90 5.80506e-90)
(2.94963e-92 -1.79098e-92 3.43718e-92)
(1.75164e-94 -1.06325e-94 2.04117e-94)
(1.04215e-96 -6.32393e-97 1.21441e-96)
(6.20291e-99 -3.76286e-99 7.2282e-99)
(3.28106e-81 -1.99619e-81 3.82339e-81)
(2.0046e-83 -1.21938e-83 2.33595e-83)
(1.21128e-85 -7.36685e-86 1.4115e-85)
(7.25648e-88 -4.4125e-88 8.45592e-88)
(4.32044e-90 -2.62667e-90 5.03458e-90)
(2.56213e-92 -1.55736e-92 2.98563e-92)
(1.51603e-94 -9.21292e-95 1.76661e-94)
(8.96166e-97 -5.4447e-97 1.0443e-96)
(5.29614e-99 -3.21686e-99 6.17155e-99)
(3.12977e-101 -1.9005e-101 3.6471e-101)
(1.30208e-76 -7.90324e-77 1.51731e-76)
(7.89422e-79 -4.78986e-79 9.19907e-79)
(4.97895e-81 -3.01981e-81 5.80193e-81)
(3.1947e-83 -1.93688e-83 3.72276e-83)
(2.05362e-85 -1.24462e-85 2.39306e-85)
(1.31088e-87 -7.94215e-88 1.52756e-87)
(8.27304e-90 -5.0108e-90 9.64051e-90)
(5.15318e-92 -3.12029e-92 6.00496e-92)
(3.16719e-94 -1.91724e-94 3.6907e-94)
(1.92153e-96 -1.16288e-96 2.23914e-96)
(8.46972e-79 -5.14515e-79 9.86969e-79)
(4.97233e-81 -3.01998e-81 5.79422e-81)
(2.95173e-83 -1.7923e-83 3.43963e-83)
(1.77575e-85 -1.07792e-85 2.06927e-85)
(1.08103e-87 -6.55991e-88 1.25971e-87)
(6.63601e-90 -4.02548e-90 7.73289e-90)
(4.09045e-92 -2.48047e-92 4.76657e-92)
(2.52197e-94 -1.52883e-94 2.93883e-94)
(1.55044e-96 -9.3958e-97 1.80671e-96)
(9.48228e-99 -5.74464e-99 1.10496e-98)
(4.5369e-81 -2.75798e-81 5.28681e-81)
(2.74493e-83 -1.66836e-83 3.19865e-83)
(1.64941e-85 -1.00232e-85 1.92205e-85)
(9.88751e-88 -6.00724e-88 1.15218e-87)
(5.93173e-90 -3.60301e-90 6.9122e-90)
(3.56776e-92 -2.16652e-92 4.15748e-92)
(2.1526e-94 -1.30679e-94 2.50841e-94)
(1.30225e-96 -7.90321e-97 1.5175e-96)
(7.89057e-99 -4.7872e-99 9.19482e-99)
(4.78165e-101 -2.90012e-101 5.57202e-101)
(2.17434e-83 -1.32265e-83 2.53374e-83)
(1.35538e-85 -8.24332e-86 1.57942e-85)
(8.35275e-88 -5.07919e-88 9.73339e-88)
(5.1015e-90 -3.1016e-90 5.94474e-90)
(3.09555e-92 -1.88167e-92 3.60722e-92)
(1.87029e-94 -1.13664e-94 2.17943e-94)
(1.12715e-96 -6.84858e-97 1.31346e-96)
(6.78433e-99 -4.12116e-99 7.90573e-99)
(4.08134e-101 -2.47857e-101 4.75595e-101)
(2.4545e-103 -1.49019e-103 2.86021e-103)
(6.22022e-79 -3.77464e-79 7.19218e-79)
(3.85243e-81 -2.33695e-81 4.45367e-81)
(2.48202e-83 -1.50504e-83 2.86891e-83)
(1.62638e-85 -9.85813e-86 1.87958e-85)
(1.06724e-87 -6.46658e-88 1.23318e-87)
(6.95116e-90 -4.21043e-90 8.03063e-90)
(4.47415e-92 -2.70924e-92 5.16809e-92)
(2.84107e-94 -1.71987e-94 3.28118e-94)
(1.77936e-96 -1.07686e-96 2.05465e-96)
(1.09964e-98 -6.65324e-99 1.26956e-98)
(4.13966e-81 -2.51424e-81 4.78568e-81)
(2.48051e-83 -1.50625e-83 2.86715e-83)
(1.50255e-85 -9.12171e-86 1.73647e-85)
(9.22155e-88 -5.59654e-88 1.06555e-87)
(5.72565e-90 -3.47373e-90 6.61488e-90)
(3.58381e-92 -2.17352e-92 4.13971e-92)
(2.25179e-94 -1.3652e-94 2.60065e-94)
(1.41474e-96 -8.57435e-97 1.63365e-96)
(8.85984e-99 -5.36798e-99 1.0229e-98)
(5.51788e-101 -3.34215e-101 6.36956e-101)
(2.26547e-83 -1.37693e-83 2.61856e-83)
(1.39851e-85 -8.4986e-86 1.61623e-85)
(8.57115e-88 -5.20762e-88 9.90387e-88)
(5.23874e-90 -3.18226e-90 6.05232e-90)
(3.20347e-92 -1.94547e-92 3.70038e-92)
(1.96342e-94 -1.19206e-94 2.2676e-94)
(1.20682e-96 -7.3249e-97 1.39356e-96)
(7.4356e-99 -4.51172e-99 8.58475e-99)
(4.58729e-101 -2.78257e-101 5.29538e-101)
(2.82964e-103 -1.71587e-103 3.26588e-103)
(1.1085e-85 -6.74188e-86 1.28106e-85)
(7.04783e-88 -4.28572e-88 8.14365e-88)
(4.42835e-90 -2.69238e-90 5.11606e-90)
(2.75662e-92 -1.67568e-92 3.18419e-92)
(1.70427e-94 -1.03579e-94 1.9683e-94)
(1.04881e-96 -6.37293e-97 1.21109e-96)
(6.4362e-99 -3.90998e-99 7.4309e-99)
(3.94363e-101 -2.39516e-101 4.55236e-101)
(2.41445e-103 -1.46603e-103 2.78669e-103)
(1.47739e-105 -8.96805e-106 1.70488e-105)
)
;

boundaryField
{
    inlet
    {
        type            zeroGradient;
    }
    outlet
    {
        type            zeroGradient;
    }
    bottom
    {
        type            zeroGradient;
    }
    top
    {
        type            symmetryPlane;
    }
    side1
    {
        type            symmetryPlane;
    }
    side2
    {
        type            symmetryPlane;
    }
    procBoundary19to11
    {
        type            processor;
        value           nonuniform List<vector> 
50
(
(8.95773e-68 -5.43311e-68 1.04384e-67)
(4.97966e-70 -3.01949e-70 5.80276e-70)
(2.74535e-72 -1.66424e-72 3.19913e-72)
(1.50204e-74 -9.10305e-75 1.75031e-74)
(8.16138e-77 -4.9449e-77 9.51039e-77)
(4.40722e-79 -2.66959e-79 5.1357e-79)
(2.36697e-81 -1.43335e-81 2.75821e-81)
(1.26511e-83 -7.65887e-84 1.47422e-83)
(6.73323e-86 -4.07505e-86 7.84618e-86)
(3.57019e-88 -2.16006e-88 4.16031e-88)
(1.56014e-69 -9.46021e-70 1.81801e-69)
(8.87218e-72 -5.37839e-72 1.03387e-71)
(5.00119e-74 -3.03096e-74 5.82785e-74)
(2.79635e-76 -1.69428e-76 3.25856e-76)
(1.55206e-78 -9.40136e-79 1.80861e-78)
(8.55765e-81 -5.18228e-81 9.97216e-81)
(4.69076e-83 -2.83983e-83 5.46611e-83)
(2.55781e-85 -1.54808e-85 2.98059e-85)
(1.38832e-87 -8.4001e-88 1.61779e-87)
(7.50448e-90 -4.53923e-90 8.74492e-90)
(1.39864e-71 -8.47872e-72 1.62982e-71)
(8.13336e-74 -4.92923e-74 9.47774e-74)
(4.68597e-76 -2.83919e-76 5.46052e-76)
(2.67672e-78 -1.62138e-78 3.11916e-78)
(1.5171e-80 -9.1872e-81 1.76787e-80)
(8.53831e-83 -5.16922e-83 9.94962e-83)
(4.77527e-85 -2.89024e-85 5.56459e-85)
(2.65579e-87 -1.60696e-87 3.09477e-87)
(1.46969e-89 -8.89016e-90 1.71262e-89)
(8.09692e-92 -4.89628e-92 9.43528e-92)
(8.56393e-74 -5.19023e-74 9.97948e-74)
(5.09019e-76 -3.08411e-76 5.93156e-76)
(2.9961e-78 -1.81484e-78 3.49134e-78)
(1.74768e-80 -1.05835e-80 2.03656e-80)
(1.01109e-82 -6.12134e-83 1.17822e-82)
(5.80618e-85 -3.51424e-85 6.7659e-85)
(3.31202e-87 -2.00408e-87 3.85947e-87)
(1.87804e-89 -1.13607e-89 2.18847e-89)
(1.05926e-91 -6.40576e-92 1.23435e-91)
(5.94584e-94 -3.59455e-94 6.92864e-94)
(4.03918e-76 -2.44734e-76 4.67079e-76)
(2.45292e-78 -1.48582e-78 2.83602e-78)
(1.47449e-80 -8.92916e-81 1.7045e-80)
(8.78008e-83 -5.31562e-83 1.01481e-82)
(5.18327e-85 -3.13723e-85 5.98988e-85)
(3.03607e-87 -1.83712e-87 3.50796e-87)
(1.76588e-89 -1.06824e-89 2.04002e-89)
(1.02063e-91 -6.17237e-92 1.17888e-91)
(5.86562e-94 -3.54623e-94 6.774e-94)
(3.35376e-96 -2.02697e-96 3.87251e-96)
)
;
    }
    procBoundary19to18
    {
        type            processor;
        value           nonuniform List<vector> 
20
(
(7.05505e-68 -4.28377e-68 8.22119e-68)
(2.87662e-70 -1.74795e-70 3.3521e-70)
(1.13825e-72 -6.92172e-73 1.3264e-72)
(4.47482e-75 -2.72315e-75 5.21447e-75)
(1.22769e-69 -7.45268e-70 1.43061e-69)
(5.11648e-72 -3.10832e-72 5.96219e-72)
(2.06874e-74 -1.25776e-74 2.41068e-74)
(8.30931e-77 -5.05578e-77 9.68278e-77)
(1.09968e-71 -6.67404e-72 1.28144e-71)
(4.68265e-74 -2.84416e-74 5.45665e-74)
(1.93398e-76 -1.17561e-76 2.25365e-76)
(7.9339e-79 -4.82655e-79 9.24531e-79)
(6.72794e-74 -4.08229e-74 7.84001e-74)
(2.92591e-76 -1.77677e-76 3.40954e-76)
(1.23384e-78 -7.49873e-79 1.43779e-78)
(5.16759e-81 -3.14315e-81 6.02175e-81)
(3.17075e-76 -1.92345e-76 3.66658e-76)
(1.40778e-78 -8.54701e-79 1.62768e-78)
(6.05931e-81 -3.68186e-81 7.00464e-81)
(2.58998e-83 -1.57507e-83 2.99357e-83)
)
;
    }
    procBoundary19to20
    {
        type            processor;
        value           nonuniform List<vector> 
20
(
(1.52716e-93 -9.25291e-94 1.77959e-93)
(1.08254e-95 -6.56514e-96 1.26148e-95)
(6.41355e-98 -3.89273e-98 7.47365e-98)
(3.43388e-100 -2.08578e-100 4.00148e-100)
(3.28975e-95 -1.99277e-95 3.83352e-95)
(2.37774e-97 -1.4417e-97 2.77076e-97)
(1.435e-99 -8.70815e-100 1.67219e-99)
(7.82334e-102 -4.75119e-102 9.11648e-102)
(3.63668e-97 -2.20242e-97 4.23779e-97)
(2.67948e-99 -1.62432e-99 3.12238e-99)
(1.64694e-101 -9.99245e-102 1.91917e-101)
(9.14094e-104 -5.55043e-104 1.06519e-103)
(2.73518e-99 -1.65608e-99 3.18728e-99)
(2.0537e-101 -1.24471e-101 2.39316e-101)
(1.28522e-103 -7.79629e-104 1.49765e-103)
(7.25999e-106 -4.40756e-106 8.46001e-106)
(1.57971e-101 -9.56256e-102 1.82367e-101)
(1.20845e-103 -7.32265e-104 1.39482e-103)
(7.69809e-106 -4.66888e-106 8.88387e-106)
(4.42486e-108 -2.68588e-108 5.10559e-108)
)
;
    }
    procBoundary19to27
    {
        type            processor;
        value           nonuniform List<vector> 
50
(
(1.4548e-80 -8.85996e-81 1.69526e-80)
(9.05887e-83 -5.51544e-83 1.05562e-82)
(5.88714e-85 -3.58337e-85 6.86024e-85)
(3.86793e-87 -2.35374e-87 4.50727e-87)
(2.52528e-89 -1.53636e-89 2.94269e-89)
(1.62625e-91 -9.89201e-92 1.89506e-91)
(1.03083e-93 -6.26904e-94 1.20122e-93)
(6.43335e-96 -3.91174e-96 7.49673e-96)
(3.9582e-98 -2.4063e-98 4.61245e-98)
(2.40457e-100 -1.46154e-100 2.80203e-100)
(2.77713e-82 -1.69108e-82 3.23617e-82)
(1.7659e-84 -1.075e-84 2.05779e-84)
(1.17186e-86 -7.13176e-87 1.36556e-86)
(7.85915e-89 -4.78177e-89 9.15821e-89)
(5.23514e-91 -3.18453e-91 6.10047e-91)
(3.43811e-93 -2.09097e-93 4.0064e-93)
(2.22142e-95 -1.35076e-95 2.5886e-95)
(1.41257e-97 -8.58764e-98 1.64605e-97)
(8.85173e-100 -5.38038e-100 1.03148e-99)
(5.47483e-102 -3.32716e-102 6.37978e-102)
(2.72498e-84 -1.65908e-84 3.1754e-84)
(1.76888e-86 -1.07665e-86 2.06126e-86)
(1.19827e-88 -7.2914e-89 1.39634e-88)
(8.20086e-91 -4.98891e-91 9.5564e-91)
(5.5721e-93 -3.38897e-93 6.49313e-93)
(3.7309e-95 -2.26869e-95 4.34759e-95)
(2.45661e-97 -1.49353e-97 2.86267e-97)
(1.59129e-99 -9.67264e-100 1.85431e-99)
(1.0154e-101 -6.17098e-102 1.18324e-101)
(6.39292e-104 -3.88449e-104 7.44962e-104)
(1.82308e-86 -1.10981e-86 2.12442e-86)
(1.20763e-88 -7.3493e-89 1.40724e-88)
(8.34781e-91 -5.07881e-91 9.72763e-91)
(5.828e-93 -3.54486e-93 6.79132e-93)
(4.03768e-95 -2.45535e-95 4.70508e-95)
(2.7554e-97 -1.67524e-97 3.21084e-97)
(1.84832e-99 -1.12354e-99 2.15384e-99)
(1.21924e-101 -7.41001e-102 1.42077e-101)
(7.91994e-104 -4.81249e-104 9.22905e-104)
(5.07434e-106 -3.0828e-106 5.91309e-106)
(9.38198e-89 -5.71047e-89 1.08416e-88)
(6.33982e-91 -3.85767e-91 7.32497e-91)
(4.4706e-93 -2.7195e-93 5.16442e-93)
(3.18294e-95 -1.93571e-95 3.67631e-95)
(2.24789e-97 -1.36675e-97 2.59588e-97)
(1.56304e-99 -9.50158e-100 1.80471e-99)
(1.0679e-101 -6.49039e-102 1.23281e-101)
(7.17201e-104 -4.35814e-104 8.27816e-104)
(4.74154e-106 -2.8807e-106 5.47193e-106)
(3.09089e-108 -1.8775e-108 3.56642e-108)
)
;
    }
}


// ************************************************************************* //
