/*--------------------------------*- C++ -*----------------------------------*\
| =========                 |                                                 |
| \\      /  F ield         | OpenFOAM: The Open Source CFD Toolbox           |
|  \\    /   O peration     | Version:  2.4.0                                 |
|   \\  /    A nd           | Web:      www.OpenFOAM.org                      |
|    \\/     M anipulation  |                                                 |
\*---------------------------------------------------------------------------*/
FoamFile
{
    version     2.0;
    format      ascii;
    class       volVectorField;
    location    "0.15";
    object      gradp;
}
// * * * * * * * * * * * * * * * * * * * * * * * * * * * * * * * * * * * * * //

dimensions      [1 -2 -2 0 0 0 0];

internalField   nonuniform List<vector> 
200
(
(-2.99781e+32 -1.68505e+31 -1.00395e+32)
(-2.83694e+32 -2.05978e+31 -7.70369e+31)
(-2.28231e+32 -1.37784e+31 -5.02115e+31)
(-1.57343e+32 -9.90169e+30 -3.01746e+31)
(-1.04128e+32 -6.25165e+30 -1.74111e+31)
(-7.00794e+31 -3.43311e+30 -9.77887e+30)
(-4.98845e+31 -1.22531e+30 -4.68138e+30)
(-4.08582e+31 1.73553e+27 -1.33934e+30)
(-2.34073e+31 2.84873e+30 1.48798e+30)
(-6.45485e+30 6.10515e+29 3.92672e+29)
(-3.2411e+32 -6.00889e+31 -9.84304e+31)
(-2.77549e+32 -4.82925e+31 -6.89472e+31)
(-2.06839e+32 -3.09754e+31 -4.44836e+31)
(-1.42289e+32 -2.14557e+31 -2.56509e+31)
(-9.11912e+31 -1.27782e+31 -1.40193e+31)
(-6.00267e+31 -6.4255e+30 -7.38233e+30)
(-4.30148e+31 -2.47081e+30 -3.88095e+30)
(-3.27101e+31 1.4604e+30 -1.6841e+30)
(-2.21898e+31 3.40406e+30 -5.56974e+29)
(-1.33733e+31 1.707e+30 -1.90316e+28)
(-2.8155e+32 -9.10889e+31 -8.67559e+31)
(-2.25466e+32 -6.29663e+31 -6.0622e+31)
(-1.74558e+32 -4.16249e+31 -3.93342e+31)
(-1.20948e+32 -2.83105e+31 -2.21619e+31)
(-7.40679e+31 -1.7555e+31 -1.2616e+31)
(-4.94647e+31 -1.20134e+31 -7.68218e+30)
(-3.41127e+31 -4.17661e+30 -5.01461e+30)
(-2.91085e+31 -4.89101e+30 -4.00134e+30)
(-2.29141e+31 -4.01554e+30 -1.4918e+30)
(-1.6677e+31 -6.15592e+30 -1.02148e+30)
(-2.09721e+32 -1.04643e+32 -7.72048e+31)
(-1.78621e+32 -7.05268e+31 -5.13702e+31)
(-1.37528e+32 -5.48446e+31 -3.29752e+31)
(-9.41495e+31 -4.20138e+31 -1.86985e+31)
(-5.85969e+31 -4.01327e+31 -1.2419e+31)
(-3.32699e+31 -3.46845e+31 -9.17073e+30)
(-2.877e+31 -2.88717e+31 -1.17881e+31)
(-3.2388e+31 -2.48088e+31 -9.10049e+30)
(-2.47196e+31 -1.55806e+31 -4.46335e+30)
(6.96957e+30 -4.46765e+30 1.74775e+30)
(-1.81845e+32 -1.37066e+31 -1.73081e+32)
(-1.23105e+32 -7.65433e+30 -1.25062e+32)
(-7.82721e+31 -4.61382e+30 -8.2385e+31)
(-5.23815e+31 -2.66387e+30 -5.20808e+31)
(-3.88621e+31 -8.2476e+29 -3.23317e+31)
(-2.93443e+31 4.0135e+29 -1.96861e+31)
(-2.2878e+31 5.53832e+28 -1.13898e+31)
(-2.11162e+31 -5.49886e+29 -5.81611e+30)
(-1.78649e+31 -4.23199e+29 -6.71284e+29)
(-1.24729e+31 -4.82107e+28 -9.74623e+28)
(-1.6154e+32 -3.82658e+31 -1.6682e+32)
(-1.0492e+32 -2.20287e+31 -1.15107e+32)
(-6.82912e+31 -1.35717e+31 -7.53896e+31)
(-4.48034e+31 -8.63554e+30 -4.67854e+31)
(-3.27316e+31 -5.10604e+30 -2.89823e+31)
(-2.7584e+31 -3.07079e+30 -1.83052e+31)
(-2.47805e+31 -3.00397e+30 -1.13762e+31)
(-2.20734e+31 -2.7988e+30 -6.36905e+30)
(-1.68615e+31 -1.36358e+30 -2.76807e+30)
(-1.15301e+31 -5.55638e+29 -6.92018e+29)
(-1.07908e+32 -5.71279e+31 -1.4795e+32)
(-7.37169e+31 -3.48431e+31 -1.04192e+32)
(-5.14857e+31 -2.32113e+31 -6.9823e+31)
(-3.54502e+31 -1.71866e+31 -4.39117e+31)
(-2.77326e+31 -1.49946e+31 -2.87142e+31)
(-2.51401e+31 -1.48749e+31 -1.94211e+31)
(-2.2334e+31 -1.68281e+31 -1.29789e+31)
(-1.78355e+31 -1.67572e+31 -8.81085e+30)
(-1.33786e+31 -1.02657e+31 -3.77374e+30)
(-8.6345e+30 -3.32907e+30 -1.37834e+30)
(-4.89554e+31 -5.47298e+31 -1.26437e+32)
(-3.70863e+31 -3.65955e+31 -8.88399e+31)
(-3.29782e+31 -2.8825e+31 -6.00897e+31)
(-2.83699e+31 -2.74774e+31 -3.84727e+31)
(-2.81081e+31 -3.24064e+31 -2.61787e+31)
(-3.12511e+31 -4.56575e+31 -1.75126e+31)
(-2.85452e+31 -6.19774e+31 -1.37569e+31)
(-8.94867e+30 -4.90505e+31 -6.88781e+30)
(9.9948e+30 -3.60753e+31 -2.11094e+30)
(1.56595e+31 -1.60058e+31 2.5801e+30)
(8.72028e+30 -6.83261e+30 -1.43429e+32)
(6.53464e+30 -4.66904e+30 -9.84109e+31)
(5.30953e+30 -2.58578e+30 -6.87032e+31)
(2.82775e+30 -1.42909e+30 -4.96052e+31)
(-4.65305e+29 -8.92687e+29 -3.55408e+31)
(-3.06533e+30 -1.22373e+30 -2.48393e+31)
(-5.50058e+30 -1.20362e+30 -1.70663e+31)
(-6.55899e+30 -8.82969e+29 -1.12912e+31)
(-5.10764e+30 -5.06129e+29 -6.03463e+30)
(-3.99487e+30 -3.40775e+29 -1.91505e+30)
(1.6601e+31 -1.98788e+31 -1.30891e+32)
(1.50283e+31 -1.48996e+31 -9.21949e+31)
(1.17894e+31 -1.08763e+31 -6.59089e+31)
(6.21394e+30 -8.38516e+30 -4.78519e+31)
(-5.45777e+28 -6.99026e+30 -3.51864e+31)
(-3.68719e+30 -6.0016e+30 -2.53543e+31)
(-4.81906e+30 -5.01346e+30 -1.76169e+31)
(-5.16401e+30 -3.33118e+30 -1.11661e+31)
(-4.02325e+30 -1.55986e+30 -5.61231e+30)
(-2.30106e+30 -3.42398e+29 -1.7277e+30)
(2.9778e+31 -2.64768e+31 -1.10029e+32)
(2.45396e+31 -2.09391e+31 -8.10885e+31)
(1.83385e+31 -1.7145e+31 -5.96065e+31)
(1.05998e+31 -1.50103e+31 -4.44476e+31)
(4.30182e+30 -1.30691e+31 -3.33334e+31)
(8.88269e+29 -1.07452e+31 -2.44359e+31)
(-1.5975e+29 -7.98572e+30 -1.67027e+31)
(3.48214e+29 -5.72102e+30 -1.04464e+31)
(8.69932e+29 -2.96414e+30 -5.49599e+30)
(-1.90344e+29 -9.20526e+29 -1.62101e+30)
(4.18295e+31 -2.29307e+31 -8.41017e+31)
(3.36919e+31 -1.87691e+31 -6.55212e+31)
(2.36471e+31 -1.56935e+31 -5.01568e+31)
(1.43657e+31 -1.41398e+31 -3.82014e+31)
(8.47561e+30 -1.34539e+31 -2.8263e+31)
(6.47962e+30 -1.28249e+31 -1.90421e+31)
(5.22924e+30 -1.1019e+31 -9.73135e+30)
(4.87916e+30 -1.38857e+31 -2.39291e+30)
(5.57773e+30 -7.45413e+30 -1.25316e+28)
(5.46827e+30 -3.23257e+30 4.95113e+28)
(1.62066e+32 6.35326e+30 -9.47086e+31)
(1.16016e+32 2.29136e+30 -7.14637e+31)
(7.79063e+31 -1.42911e+29 -5.45485e+31)
(5.37383e+31 1.4134e+29 -4.18973e+31)
(4.03887e+31 -2.57776e+29 -3.19697e+31)
(2.97742e+31 -4.22542e+29 -2.31212e+31)
(2.0476e+31 -8.25613e+29 -1.77898e+31)
(1.4185e+31 -3.49755e+29 -1.25349e+31)
(1.21389e+31 2.52517e+29 -7.15599e+30)
(1.29661e+31 2.51563e+29 -1.69705e+30)
(1.44771e+32 1.5174e+31 -8.76017e+31)
(1.03024e+32 5.68712e+30 -6.66294e+31)
(7.36062e+31 9.8314e+29 -5.18371e+31)
(5.35086e+31 -3.83348e+29 -4.09743e+31)
(3.92609e+31 -1.57426e+30 -3.15485e+31)
(2.86386e+31 -2.42532e+30 -2.34803e+31)
(2.06215e+31 -2.42221e+30 -1.64893e+31)
(1.63412e+31 -1.44713e+30 -1.23036e+31)
(1.33415e+31 -5.01749e+29 -7.85782e+30)
(1.19579e+31 -8.51705e+28 -2.56909e+30)
(1.22177e+32 1.77352e+31 -6.97479e+31)
(8.76343e+31 7.83477e+30 -5.42094e+31)
(6.57653e+31 1.99205e+30 -4.31922e+31)
(4.86235e+31 -1.74581e+30 -3.41567e+31)
(3.63047e+31 -3.91707e+30 -2.65295e+31)
(2.80784e+31 -4.77532e+30 -1.99038e+31)
(2.24323e+31 -4.21126e+30 -1.42381e+31)
(1.80259e+31 -2.72005e+30 -9.60491e+30)
(1.48628e+31 -1.30608e+30 -5.41693e+30)
(1.41399e+31 -4.85536e+29 -1.91418e+30)
(9.66421e+31 1.52077e+31 -5.07102e+31)
(7.15373e+31 6.99157e+30 -4.08342e+31)
(5.44451e+31 8.00088e+29 -3.32625e+31)
(4.16904e+31 -3.56173e+30 -2.66804e+31)
(3.32019e+31 -6.19721e+30 -2.07562e+31)
(2.80502e+31 -7.50792e+30 -1.55855e+31)
(2.47321e+31 -7.39497e+30 -1.11017e+31)
(2.21516e+31 -4.9512e+30 -6.7719e+30)
(1.78106e+31 -2.62895e+30 -3.31971e+30)
(1.55411e+31 -1.71532e+30 -1.12178e+30)
(1.84113e+32 4.5385e+30 -2.39659e+31)
(1.35047e+32 3.0658e+30 -2.10782e+31)
(9.99219e+31 1.75246e+30 -1.80187e+31)
(7.50801e+31 4.75989e+28 -1.41983e+31)
(5.96181e+31 -2.1881e+29 -1.13494e+31)
(4.231e+31 -1.79826e+30 -8.18908e+30)
(2.83756e+31 8.77325e+29 -7.432e+30)
(2.74694e+31 -5.12821e+29 -5.72046e+30)
(2.95735e+31 -1.62906e+30 -3.28061e+30)
(2.43348e+31 -1.73603e+30 -2.72128e+29)
(1.82035e+32 2.00584e+31 -2.51002e+31)
(1.29475e+32 1.27072e+31 -2.05942e+31)
(9.38855e+31 7.29377e+30 -1.68341e+31)
(7.11375e+31 3.99972e+30 -1.42569e+31)
(5.59264e+31 1.71403e+30 -1.13251e+31)
(4.45023e+31 -8.53758e+29 -9.0489e+30)
(3.09464e+31 6.69311e+29 -6.36766e+30)
(2.24566e+31 1.35683e+30 -5.82237e+30)
(2.71271e+31 1.22262e+30 -4.4566e+30)
(3.1065e+31 -6.89814e+29 -1.51438e+30)
(1.49846e+32 3.25495e+31 -2.09132e+31)
(1.09518e+32 2.03332e+31 -1.66906e+31)
(8.25069e+31 1.25743e+31 -1.40746e+31)
(6.39206e+31 7.86011e+30 -1.14589e+31)
(4.99112e+31 4.19857e+30 -9.29425e+30)
(4.02206e+31 1.88653e+30 -7.20686e+30)
(3.27967e+31 6.34447e+29 -5.4998e+30)
(2.8576e+31 3.12965e+30 -3.96798e+30)
(2.54803e+31 4.29684e+30 -2.20288e+30)
(2.32692e+31 1.39516e+30 -6.5003e+29)
(1.18322e+32 3.11845e+31 -1.58412e+31)
(8.95246e+31 2.01229e+31 -1.27827e+31)
(6.89394e+31 1.25744e+31 -1.02202e+31)
(5.4386e+31 6.88161e+30 -8.25318e+30)
(4.39792e+31 2.63122e+30 -6.2528e+30)
(3.73741e+31 -3.01831e+29 -4.88525e+30)
(3.34327e+31 -2.14087e+30 -3.3391e+30)
(2.97814e+31 -2.39477e+30 -2.16631e+30)
(2.36581e+31 -1.28109e+30 -9.5477e+29)
(1.9681e+31 -6.76754e+29 -3.38942e+29)
)
;

boundaryField
{
    inlet
    {
        type            zeroGradient;
    }
    outlet
    {
        type            zeroGradient;
    }
    bottom
    {
        type            zeroGradient;
    }
    top
    {
        type            symmetryPlane;
    }
    side1
    {
        type            symmetryPlane;
    }
    side2
    {
        type            symmetryPlane;
    }
    procBoundary7to6
    {
        type            processor;
        value           nonuniform List<vector> 
20
(
(-2.83953e+32 -8.43341e+30 -1.13892e+32)
(-2.92864e+32 -5.74083e+31 -1.1975e+32)
(-3.13753e+32 -1.20161e+32 -1.14885e+32)
(-2.2892e+32 -1.50304e+32 -1.01609e+32)
(-2.49194e+32 -1.78066e+31 -2.21469e+32)
(-2.2982e+32 -5.89971e+31 -2.21579e+32)
(-1.59598e+32 -9.11354e+31 -2.01482e+32)
(-7.4524e+31 -8.63171e+31 -1.67449e+32)
(1.51595e+31 -8.60939e+30 -2.05883e+32)
(2.33567e+31 -2.54285e+31 -1.87917e+32)
(4.12018e+31 -3.35534e+31 -1.5299e+32)
(5.67865e+31 -2.92653e+31 -1.1102e+32)
(2.19107e+32 1.09389e+31 -1.26274e+32)
(2.01532e+32 2.56315e+31 -1.18328e+32)
(1.7786e+32 3.18991e+31 -9.17307e+31)
(1.38503e+32 2.86402e+31 -6.47381e+31)
(2.51611e+32 4.10449e+30 -2.79678e+31)
(2.59516e+32 2.98405e+31 -3.22394e+31)
(2.01828e+32 5.219e+31 -2.53372e+31)
(1.55774e+32 4.78022e+31 -1.95576e+31)
)
;
    }
    procBoundary7to15
    {
        type            processor;
        value           nonuniform List<vector> 
50
(
(-1.21995e+32 -9.34133e+31 -5.55602e+31)
(-1.2587e+32 -4.98697e+31 -3.9415e+31)
(-1.17532e+32 -1.52383e+31 -2.3072e+31)
(-9.15245e+31 -4.79978e+31 -1.30767e+31)
(-5.94093e+31 -8.57563e+31 -7.78707e+30)
(-2.69426e+31 -8.99964e+31 -1.45403e+31)
(-1.43613e+31 -9.86775e+31 -2.57056e+31)
(-2.52625e+30 -4.23035e+31 -1.91524e+31)
(1.77682e+31 -2.79546e+31 -1.4301e+31)
(2.34195e+31 -6.14201e+30 -8.23282e+30)
(-8.46452e+30 -3.56239e+31 -9.68798e+31)
(-2.19074e+31 -2.61948e+31 -7.18432e+31)
(-3.32495e+31 -2.04458e+31 -4.53536e+31)
(-4.26129e+31 -2.68481e+31 -2.64904e+31)
(-6.40927e+31 -6.25217e+31 -1.204e+31)
(-8.42821e+31 -1.09107e+32 -5.75893e+30)
(-2.91201e+31 -8.86155e+31 -1.82099e+30)
(3.39686e+31 -6.28779e+31 -1.9839e+30)
(5.27108e+31 -3.70427e+31 1.30529e+30)
(9.55277e+31 -1.68641e+31 -6.06406e+29)
(5.07704e+31 -1.20374e+31 -6.63178e+31)
(3.9014e+31 -9.76715e+30 -5.38466e+31)
(2.75971e+31 -8.23514e+30 -4.10908e+31)
(1.50791e+31 -8.94974e+30 -2.95003e+31)
(6.93147e+30 -1.15293e+31 -1.69527e+31)
(5.75806e+30 -1.00352e+31 -5.9245e+29)
(-2.28124e+30 -9.94333e+30 1.74113e+31)
(7.47787e+30 -3.42514e+30 1.71156e+31)
(2.21762e+31 -5.12165e+30 1.5408e+31)
(2.11831e+31 -4.32735e+30 7.31054e+30)
(7.88801e+31 1.32212e+31 -3.59259e+31)
(5.8819e+31 7.19037e+30 -2.99019e+31)
(4.46587e+31 2.22652e+30 -2.55248e+31)
(3.46289e+31 -1.60013e+30 -2.10184e+31)
(2.84123e+31 -4.45086e+30 -1.64763e+31)
(2.56828e+31 -6.74627e+30 -1.20769e+31)
(2.75458e+31 -7.81053e+30 -8.68931e+30)
(2.75579e+31 -7.68792e+30 -2.42309e+30)
(2.13346e+31 -5.45382e+30 -1.55878e+30)
(2.28284e+31 -2.68783e+30 -3.16801e+29)
(9.44878e+31 2.92613e+31 -1.09277e+31)
(7.22975e+31 1.95537e+31 -8.48355e+30)
(5.60244e+31 1.27949e+31 -6.71566e+30)
(4.40343e+31 7.58256e+30 -4.93178e+30)
(3.55443e+31 3.3602e+30 -3.77648e+30)
(3.06764e+31 -4.602e+29 -2.70305e+30)
(2.86109e+31 -4.12069e+30 -2.21598e+30)
(3.02956e+31 -6.12717e+30 -2.37022e+30)
(2.89163e+31 -7.67753e+30 -1.36047e+30)
(2.71849e+31 -4.43517e+30 -9.29541e+26)
)
;
    }
}


// ************************************************************************* //
