/*--------------------------------*- C++ -*----------------------------------*\
| =========                 |                                                 |
| \\      /  F ield         | OpenFOAM: The Open Source CFD Toolbox           |
|  \\    /   O peration     | Version:  2.4.0                                 |
|   \\  /    A nd           | Web:      www.OpenFOAM.org                      |
|    \\/     M anipulation  |                                                 |
\*---------------------------------------------------------------------------*/
FoamFile
{
    version     2.0;
    format      ascii;
    class       volScalarField;
    location    "0.09";
    object      nut;
}
// * * * * * * * * * * * * * * * * * * * * * * * * * * * * * * * * * * * * * //

dimensions      [0 2 -1 0 0 0 0];

internalField   nonuniform List<scalar> 
200
(
119.795
219.152
130.09
234.347
136.907
254.267
168.596
267.366
191.936
297.783
321.719
65.5713
276.356
105.009
289.575
97.7747
310.258
174.983
333.613
199.566
78.0122
214.662
85.9148
201.08
146.342
222.366
162.553
260.878
215.978
278.715
91.0676
149.401
129.33
171.989
152.444
193.419
186.502
227.669
242.974
249.32
212.251
100.53
191.221
67.7928
183.167
71.259
186.951
84.9973
134.154
122.511
59.5712
225.298
42.4462
221.522
48.1501
179.953
59.5919
226.624
162.897
299.067
152.311
21.447
122.21
42.0692
124.814
74.855
130.42
92.2432
169.345
137.675
82.3338
29.6984
88.7171
32.676
67.1505
73.9981
103.159
74.7401
84.9914
94.8659
70.695
262.03
119.758
199.918
86.0101
194.428
106.116
176.961
120.489
181.887
177.02
53.6683
207.877
66.9601
175.45
47.1908
156.147
69.3323
160.173
131.037
56.4611
116.717
34.2837
111.046
61.901
104.688
82.4578
90.9331
89.0683
145.187
52.7481
39.0683
34.0359
65.0255
53.6383
62.7702
67.5119
89.5137
94.6191
83.6156
227.928
127.427
182.663
104.996
185.529
130.626
167.667
130.927
144.435
152.847
41.1131
144.858
56.1946
117.378
41.8568
110.306
73.6167
114.365
112.42
125.553
85.7297
37.7503
93.3885
61.2466
93.8124
68.8201
107.091
109.469
135.585
172.966
50.8541
66.6528
39.964
57.5575
55.8679
76.9284
73.8135
96.5054
150.311
132.26
109.782
132.968
108.49
124.322
121.358
128.68
138.977
131.338
122.274
115.49
80.2102
63.5743
59.6237
67.337
73.9009
68.3398
65.785
92.1454
101.56
115.1
70.4635
73.5529
71.4316
84.9021
75.9632
90.9552
89.7198
113.957
119.645
138.557
72.1876
49.394
92.4189
53.234
86.0577
64.0505
117.65
110.033
134.33
128.792
)
;

boundaryField
{
    inlet
    {
        type            calculated;
        value           nonuniform 0();
    }
    outlet
    {
        type            calculated;
        value           nonuniform 0();
    }
    bottom
    {
        type            calculated;
        value           nonuniform List<scalar> 
40
(
1.32252e-22
2.83383e-22
1.74161e-22
1.28217e-22
3.03444e-22
8.65167e-23
2.09455e-22
2.29772e-22
1.52462e-22
2.85424e-22
1.68434e-22
1.70821e-22
3.19342e-22
1.34483e-22
2.20559e-22
2.34318e-22
1.88e-22
3.00412e-22
2.06173e-22
2.02655e-22
3.44187e-22
1.59905e-22
2.59453e-22
2.60232e-22
2.3601e-22
3.42949e-22
2.38123e-22
2.40571e-22
3.66391e-22
2.27445e-22
3.05625e-22
2.96847e-22
2.84722e-22
3.75713e-22
2.91829e-22
3.00394e-22
4.05598e-22
2.64968e-22
3.4593e-22
3.29082e-22
)
;
    }
    top
    {
        type            symmetryPlane;
    }
    side1
    {
        type            symmetryPlane;
    }
    side2
    {
        type            symmetryPlane;
    }
    procBoundary3to2
    {
        type            processor;
        value           nonuniform List<scalar> 
20
(
164.662
75.9982
205.838
143.59
102.257
263.223
19.4504
5.51066
261.611
71.6164
95.1305
70.5901
80.9063
172.464
58.9375
38.979
182.532
56.731
38.6234
34.0916
)
;
    }
    procBoundary3to4
    {
        type            processor;
        value           nonuniform List<scalar> 
20
(
244.407
458.858
236.965
259.216
277.055
1045.28
158.896
135.667
135.387
146.879
145.584
63.3101
165.188
138.252
134.4
194.71
133.948
109.448
168.084
156.211
)
;
    }
    procBoundary3to11
    {
        type            processor;
        value           nonuniform List<scalar> 
50
(
165.927
101.08
177.389
121.661
179.431
175.24
213.808
224.383
109.401
208.911
23.8915
70.7604
41.5286
54.5497
37.8221
81.7636
104.303
82.2313
169.789
91.3906
794.63
124.333
58.7861
27.4915
135.512
73.9831
58.6106
84.1348
92.4256
22.0368
50.9218
77.8114
76.189
18.232
31.4503
48.8806
73.4585
121.305
60.7432
565.397
47.236
81.0038
98.2189
82.7035
56.6765
83.3537
61.4743
180.168
102.953
115.962
)
;
    }
}


// ************************************************************************* //
