/*--------------------------------*- C++ -*----------------------------------*\
| =========                 |                                                 |
| \\      /  F ield         | OpenFOAM: The Open Source CFD Toolbox           |
|  \\    /   O peration     | Version:  2.4.0                                 |
|   \\  /    A nd           | Web:      www.OpenFOAM.org                      |
|    \\/     M anipulation  |                                                 |
\*---------------------------------------------------------------------------*/
FoamFile
{
    version     2.0;
    format      ascii;
    class       volVectorField;
    location    "0.09";
    object      Ub;
}
// * * * * * * * * * * * * * * * * * * * * * * * * * * * * * * * * * * * * * //

dimensions      [0 1 -1 0 0 0 0];

internalField   nonuniform List<vector> 
200
(
(2.13579e+06 4.1688e+06 -1.43423e+06)
(3.30022e+06 -4.36672e+06 -2.71021e+06)
(4.34118e+06 3.11337e+06 -981729)
(5.53381e+06 -4.13826e+06 -2.26684e+06)
(6.52771e+06 2.82819e+06 -682794)
(7.51086e+06 -3.58945e+06 -2.02034e+06)
(8.54211e+06 2.14081e+06 -456978)
(9.61403e+06 -3.06976e+06 -1.66504e+06)
(1.03704e+07 1.82451e+06 -567930)
(1.15461e+07 -2.69964e+06 -1.63087e+06)
(3.37315e+06 -2.85663e+06 -527822)
(3.53288e+06 -450987 -1.00896e+06)
(5.29985e+06 -2.71461e+06 -737861)
(5.00959e+06 -1.01114e+06 -796158)
(7.20311e+06 -2.28804e+06 -54845.2)
(6.72913e+06 -1.46541e+06 -484833)
(8.84975e+06 -2.64544e+06 -301743)
(8.46946e+06 -1.64714e+06 -295403)
(1.0888e+07 -2.38718e+06 428815)
(1.01757e+07 -2.52361e+06 -184466)
(2.57723e+06 -4.77435e+06 -1.54723e+06)
(5.54325e+06 -1.44972e+06 364296)
(4.04432e+06 -3.73518e+06 -1.14649e+06)
(6.26262e+06 -2.52122e+06 227141)
(5.38237e+06 -4.23165e+06 -749182)
(7.95374e+06 -2.79114e+06 458095)
(6.84144e+06 -4.68725e+06 -485815)
(9.35625e+06 -3.22849e+06 376670)
(8.38475e+06 -5.32981e+06 -409542)
(1.11177e+07 -3.59154e+06 358779)
(5.14114e+06 -2.14517e+06 407548)
(3.70574e+06 -5.43538e+06 -1.02875e+06)
(6.09303e+06 -2.46182e+06 350881)
(4.87288e+06 -4.92692e+06 -691719)
(6.64481e+06 -3.87359e+06 404132)
(5.89351e+06 -5.69297e+06 -418845)
(7.705e+06 -4.48747e+06 491175)
(7.10237e+06 -6.43968e+06 -277620)
(9.16228e+06 -5.07502e+06 488456)
(8.44726e+06 -7.03691e+06 -148996)
(2.63252e+06 -6.83968e+06 -5.59369e+06)
(3.90595e+06 2.86372e+06 -1.03153e+06)
(4.72297e+06 -5.23731e+06 -4.09015e+06)
(5.62984e+06 2.55428e+06 -706622)
(6.68442e+06 -4.51739e+06 -3.22495e+06)
(7.60714e+06 1.44494e+06 -575671)
(8.60713e+06 -3.32169e+06 -2.22079e+06)
(9.60631e+06 1.16142e+06 -792481)
(1.03501e+07 -2.20042e+06 -2.021e+06)
(1.08893e+07 739484 -1.33769e+06)
(3.19438e+06 147981 -785545)
(4.70154e+06 -4.02891e+06 -1.78941e+06)
(4.59217e+06 -608742 -626427)
(6.18393e+06 -3.98429e+06 -1.87344e+06)
(6.50787e+06 -1.05719e+06 -383009)
(8.12667e+06 -3.07497e+06 -191084)
(8.82159e+06 -2.38204e+06 -440479)
(1.00535e+07 -3.75492e+06 -1.46439e+06)
(1.06413e+07 -1.57628e+06 95770.8)
(1.62254e+07 -3.34749e+06 1.86303e+06)
(5.46152e+06 -2.23435e+06 246842)
(4.6348e+06 -3.89535e+06 -768970)
(6.23797e+06 -2.93411e+06 1.04103e+06)
(5.63488e+06 -4.32092e+06 -851749)
(7.21794e+06 -3.85715e+06 -90509.2)
(7.15027e+06 -4.06431e+06 -591486)
(8.74201e+06 -4.33796e+06 777718)
(8.63474e+06 -5.56988e+06 -546346)
(1.01128e+07 -5.35268e+06 69901.7)
(1.04482e+07 -5.42292e+06 -729283)
(4.63531e+06 -4.64804e+06 -810453)
(5.51843e+06 -4.09456e+06 548220)
(5.50421e+06 -4.54401e+06 -610706)
(6.28914e+06 -4.82878e+06 493541)
(6.31127e+06 -5.10335e+06 -652988)
(7.26134e+06 -5.21985e+06 485986)
(7.58842e+06 -5.92885e+06 -386126)
(8.62975e+06 -6.16214e+06 536719)
(9.05595e+06 -6.79411e+06 -535351)
(1.02487e+07 -6.75717e+06 174170)
(2.87315e+06 700114 -1.23735e+06)
(3.96985e+06 -6.04421e+06 -4.6429e+06)
(4.7522e+06 1.47643e+06 -924932)
(5.77165e+06 -4.23673e+06 -2.74172e+06)
(6.48218e+06 459822 -1.02136e+06)
(7.36958e+06 -3.62515e+06 -2.05637e+06)
(8.38163e+06 -86487.7 -1.21911e+06)
(9.12068e+06 -2.56477e+06 -1.34753e+06)
(1.02153e+07 -775532 -1.70234e+06)
(1.101e+07 -2.17804e+06 -1.59714e+06)
(4.94674e+06 -3.49942e+06 -513474)
(4.0561e+06 -1.93638e+06 -867183)
(5.59482e+06 -5.11068e+06 -2.27529e+06)
(5.9041e+06 -1.87525e+06 -730986)
(7.05985e+06 -3.59246e+06 -278537)
(7.34887e+06 -2.38614e+06 -848552)
(8.74234e+06 -3.65592e+06 -141285)
(9.12426e+06 -2.89414e+06 -954136)
(1.00559e+07 -3.68945e+06 -344551)
(1.10341e+07 -3.71186e+06 -1.28527e+06)
(4.69793e+06 -4.46558e+06 -581074)
(5.84463e+06 -4.43582e+06 565683)
(5.78632e+06 -4.78024e+06 -470095)
(6.77824e+06 -4.38123e+06 746846)
(6.93649e+06 -4.79559e+06 -432985)
(7.91624e+06 -4.80897e+06 459513)
(8.26037e+06 -4.91396e+06 -656332)
(9.33241e+06 -5.15473e+06 355702)
(9.55256e+06 -5.56437e+06 -811647)
(1.06029e+07 -5.84424e+06 -201523)
(5.0131e+06 -5.40691e+06 560585)
(5.62426e+06 -5.48794e+06 -231833)
(6.04628e+06 -5.56586e+06 373825)
(6.33758e+06 -5.36651e+06 -399820)
(7.05576e+06 -5.7183e+06 240811)
(7.46876e+06 -5.73982e+06 -557003)
(8.16227e+06 -6.19555e+06 73757.6)
(8.94981e+06 -5.73842e+06 -793509)
(9.35132e+06 -6.45948e+06 -742412)
(9.45196e+06 -8.32387e+06 -1.50309e+06)
(4.13046e+06 -4.44919e+06 -2.06713e+06)
(4.31873e+06 -164382 -661771)
(5.39138e+06 -3.03149e+06 -880964)
(5.94494e+06 -641363 -835925)
(6.56107e+06 -3.24233e+06 -979557)
(7.77795e+06 -1.02664e+06 -892030)
(8.36112e+06 -2.35129e+06 10366.8)
(9.61065e+06 -1.36525e+06 -1.01989e+06)
(1.0186e+07 -1.97911e+06 192695)
(1.12812e+07 -1.78408e+06 -1.12868e+06)
(4.14912e+06 -2.74872e+06 -1.46344e+06)
(5.21301e+06 -4.04636e+06 -614809)
(5.41569e+06 -2.58137e+06 -1.2117e+06)
(6.45268e+06 -3.24566e+06 359722)
(6.8546e+06 -2.65709e+06 -898617)
(7.60721e+06 -3.62627e+06 349902)
(8.46268e+06 -2.97653e+06 -896928)
(9.17464e+06 -3.41091e+06 648116)
(1.01326e+07 -2.91441e+06 -580427)
(1.094e+07 -3.74322e+06 673045)
(5.19071e+06 -4.42113e+06 626291)
(5.31371e+06 -4.27241e+06 -972842)
(5.89122e+06 -4.63477e+06 381180)
(6.31794e+06 -4.21277e+06 -911133)
(7.04431e+06 -4.7222e+06 405499)
(7.49055e+06 -4.5349e+06 -714573)
(8.16315e+06 -5.09978e+06 507084)
(8.80124e+06 -5.06204e+06 -637918)
(9.51456e+06 -6.0845e+06 597067)
(1.05226e+07 -5.8411e+06 -339026)
(4.69008e+06 -4.86908e+06 -373782)
(5.28061e+06 -5.32101e+06 310578)
(5.68737e+06 -5.17236e+06 -560553)
(6.20629e+06 -5.406e+06 300773)
(6.55301e+06 -5.36859e+06 -556635)
(7.18974e+06 -6.0396e+06 282471)
(7.50414e+06 -6.21714e+06 -590495)
(8.41409e+06 -6.95173e+06 342598)
(8.95971e+06 -7.16334e+06 -782955)
(9.07943e+06 -9.47444e+06 485489)
(5.15396e+06 -1.01457e+06 -972689)
(5.44398e+06 -1.9028e+06 768814)
(6.40439e+06 -1.00363e+06 -882328)
(6.53793e+06 -1.85293e+06 853288)
(7.72981e+06 -1.23053e+06 -802858)
(7.66432e+06 -1.95298e+06 817269)
(9.37295e+06 -1.71862e+06 -1.01048e+06)
(9.57604e+06 -1.57518e+06 1.17913e+06)
(1.11823e+07 -1.23063e+06 -651964)
(1.14279e+07 -1.39816e+06 1.18491e+06)
(4.91208e+06 -2.10096e+06 2.07193e+06)
(5.70707e+06 -1.82156e+06 -1.72976e+06)
(5.70262e+06 -2.48989e+06 1.12272e+06)
(6.90732e+06 -1.83487e+06 -1.24723e+06)
(7.26996e+06 -2.61886e+06 1.52738e+06)
(8.61322e+06 -2.06702e+06 -1.00983e+06)
(8.52517e+06 -2.87873e+06 1.23734e+06)
(1.00027e+07 -2.45034e+06 -882936)
(1.02664e+07 -2.70229e+06 1.48167e+06)
(1.19765e+07 -2.2942e+06 -398580)
(5.36516e+06 -3.04493e+06 -1.35417e+06)
(5.61774e+06 -4.11435e+06 1.25204e+06)
(6.44929e+06 -2.91654e+06 -1.1303e+06)
(6.66589e+06 -4.17471e+06 1.23912e+06)
(7.5711e+06 -3.35329e+06 -1.01571e+06)
(7.75921e+06 -4.29987e+06 1.22297e+06)
(8.93004e+06 -3.66522e+06 -717172)
(9.2366e+06 -4.63612e+06 1.23546e+06)
(1.06409e+07 -4.2058e+06 -425807)
(1.13635e+07 -5.05429e+06 1.41915e+06)
(4.9413e+06 -4.54436e+06 509326)
(5.40353e+06 -4.0594e+06 -748271)
(5.90918e+06 -5.02824e+06 527859)
(6.61191e+06 -4.40377e+06 -708150)
(7.00172e+06 -5.26764e+06 682441)
(7.786e+06 -4.75025e+06 -554647)
(8.24667e+06 -5.84566e+06 848941)
(9.34231e+06 -5.83486e+06 -242802)
(1.01561e+07 -6.50658e+06 1.24458e+06)
(1.15553e+07 -6.31592e+06 -15651.7)
)
;

boundaryField
{
    inlet
    {
        type            fixedValue;
        value           nonuniform 0();
    }
    outlet
    {
        type            zeroGradient;
    }
    bottom
    {
        type            fixedValue;
        value           uniform (0 0 0);
    }
    top
    {
        type            symmetryPlane;
    }
    side1
    {
        type            symmetryPlane;
    }
    side2
    {
        type            symmetryPlane;
    }
    procBoundary3to2
    {
        type            processor;
        value           nonuniform List<vector> 
20
(
(667207 -4.67357e+06 -778178)
(1.08625e+06 522316 -1.77453e+06)
(4.51821e+06 -1.6497e+06 478965)
(3.43791e+06 -4.10768e+06 -912146)
(1.49932e+06 3.36306e+06 -1.62606e+06)
(3.42371e+06 -4.53146e+06 -2.86109e+06)
(3.12262e+06 -4.49554e+06 -1.20883e+06)
(4.75789e+06 -3.8459e+06 615331)
(2.66e+06 -5.34204e+06 -4.27141e+06)
(2.50967e+06 -1.8926e+06 -1.14596e+06)
(4.82318e+06 -3.98162e+06 786596)
(4.1031e+06 -4.75077e+06 -93154.8)
(2.14661e+06 -180426 -857583)
(4.5531e+06 -2.75428e+06 651064)
(4.50644e+06 -4.6541e+06 -1.1024e+06)
(4.36969e+06 -4.84588e+06 420094)
(4.49715e+06 -2.58562e+06 555512)
(4.22089e+06 -3.05385e+06 -2.02521e+06)
(4.79386e+06 -4.01778e+06 1.34064e+06)
(4.51142e+06 -3.93473e+06 -702454)
)
;
    }
    procBoundary3to4
    {
        type            processor;
        value           nonuniform List<vector> 
20
(
(1.28042e+07 1.24206e+06 -844731)
(1.25182e+07 -2.83862e+06 34989.3)
(1.00998e+07 -5.84054e+06 -359060)
(1.04651e+07 -5.22086e+06 490233)
(1.21807e+07 -2.07395e+06 -2.16877e+06)
(2.10899e+07 -5.69263e+06 -4.74128e+06)
(1.20293e+07 -4.66622e+06 13538.5)
(1.11979e+07 -6.73276e+06 -919232)
(1.23858e+07 -1.08265e+06 -1.92755e+06)
(1.22071e+07 -3.87767e+06 105730)
(1.13378e+07 -5.97073e+06 -1.49867e+06)
(9.63771e+06 -8.13199e+06 -1.26941e+06)
(1.20411e+07 -1.79433e+06 129912)
(1.18903e+07 -3.88867e+06 -559451)
(1.12213e+07 -6.58139e+06 656287)
(9.86408e+06 -7.76861e+06 1.68697e+06)
(1.27869e+07 -1.67619e+06 -628635)
(1.24506e+07 -2.7561e+06 1.40589e+06)
(1.31586e+07 -4.88266e+06 63610.4)
(1.19752e+07 -7.91713e+06 2.06414e+06)
)
;
    }
    procBoundary3to11
    {
        type            processor;
        value           nonuniform List<vector> 
50
(
(4.544e+06 -4.34124e+06 -378796)
(5.16624e+06 -3.67206e+06 479713)
(4.81521e+06 -4.88532e+06 -289252)
(5.66527e+06 -4.49366e+06 555491)
(5.28406e+06 -5.4382e+06 -356781)
(5.92186e+06 -5.45255e+06 564233)
(5.53702e+06 -6.82707e+06 124188)
(6.94876e+06 -6.8551e+06 813273)
(7.90446e+06 -8.90803e+06 106429)
(9.58555e+06 -6.91514e+06 580872)
(4.96483e+06 -4.55073e+06 -23267.1)
(5.15518e+06 -4.7238e+06 -604942)
(5.60269e+06 -5.15776e+06 308268)
(5.81631e+06 -5.30039e+06 -323632)
(6.16433e+06 -5.78895e+06 513185)
(6.43142e+06 -6.05505e+06 -502706)
(7.25444e+06 -6.9976e+06 151759)
(7.73932e+06 -7.40197e+06 62104.1)
(8.75582e+06 -7.35786e+06 762924)
(9.7716e+06 -7.95721e+06 -543661)
(3.31939e+06 -5.69701e+06 265920)
(6.60511e+06 -5.39881e+06 81185.9)
(6.31736e+06 -5.84794e+06 -56267.1)
(6.02953e+06 -6.32996e+06 134446)
(6.61974e+06 -6.51301e+06 -200640)
(7.60601e+06 -6.65697e+06 41516)
(7.6185e+06 -7.0102e+06 -813853)
(8.2742e+06 -7.69768e+06 -336207)
(9.41309e+06 -6.59362e+06 -1.99755e+06)
(9.01673e+06 -6.01435e+06 -1.56115e+06)
(4.38422e+06 -5.77899e+06 1.07007e+06)
(5.04843e+06 -5.93037e+06 317812)
(5.78376e+06 -5.96936e+06 369279)
(6.08941e+06 -5.86844e+06 -286132)
(6.36293e+06 -6.45361e+06 380604)
(6.27478e+06 -6.52188e+06 -232142)
(6.8948e+06 -7.29481e+06 255487)
(6.33827e+06 -7.65661e+06 -881739)
(6.02264e+06 -8.8019e+06 52335.7)
(6.74099e+06 -7.85173e+06 1.49205e+06)
(4.22025e+06 -5.124e+06 -161295)
(4.70649e+06 -5.62495e+06 321415)
(5.3538e+06 -5.76824e+06 -372079)
(6.32064e+06 -5.98211e+06 297653)
(6.78585e+06 -5.98718e+06 -398622)
(7.64176e+06 -6.38149e+06 529626)
(7.79454e+06 -6.9836e+06 -122962)
(8.96223e+06 -8.08143e+06 957566)
(1.03559e+07 -8.33466e+06 648732)
(1.20559e+07 -8.62572e+06 561100)
)
;
    }
}


// ************************************************************************* //
