/*--------------------------------*- C++ -*----------------------------------*\
| =========                 |                                                 |
| \\      /  F ield         | OpenFOAM: The Open Source CFD Toolbox           |
|  \\    /   O peration     | Version:  2.4.0                                 |
|   \\  /    A nd           | Web:      www.OpenFOAM.org                      |
|    \\/     M anipulation  |                                                 |
\*---------------------------------------------------------------------------*/
FoamFile
{
    version     2.0;
    format      ascii;
    class       volScalarField;
    location    "0.01";
    object      p;
}
// * * * * * * * * * * * * * * * * * * * * * * * * * * * * * * * * * * * * * //

dimensions      [1 -1 -2 0 0 0 0];

internalField   nonuniform List<scalar> 
60
(
-1.10814e+14
-5.4091e+13
-3.09072e+13
-2.07828e+13
-9.35409e+12
-9.56801e+13
-4.71335e+13
-3.07832e+13
-2.06243e+13
-8.93297e+12
-7.97025e+13
-4.52394e+13
-2.844e+13
-1.87883e+13
-7.99801e+12
-8.88708e+13
-4.86758e+13
-3.21135e+13
-2.08083e+13
-7.9869e+12
-1.32652e+14
-8.28331e+13
-4.9123e+13
-2.93299e+13
-1.0182e+13
-1.3047e+14
-6.24367e+13
-4.56346e+13
-3.26525e+13
-1.23213e+13
-1.38447e+14
-7.81927e+13
-4.61603e+13
-2.49018e+13
-8.03894e+12
-1.12638e+14
-6.95949e+13
-4.06894e+13
-2.6244e+13
-1.20669e+13
-1.21365e+14
-7.47326e+13
-4.52741e+13
-2.84722e+13
-1.12884e+13
-1.47382e+14
-9.26616e+13
-4.83732e+13
-3.10935e+13
-1.41588e+13
-1.66491e+14
-1.0139e+14
-5.98123e+13
-3.5967e+13
-1.40151e+13
-1.89655e+14
-1.32233e+14
-7.78305e+13
-3.93266e+13
-1.33897e+13
)
;

boundaryField
{
    inlet
    {
        type            zeroGradient;
    }
    outlet
    {
        type            fixedValue;
        value           uniform 0;
    }
    bottom
    {
        type            zeroGradient;
    }
    top
    {
        type            symmetryPlane;
    }
    side1
    {
        type            symmetryPlane;
    }
    side2
    {
        type            symmetryPlane;
    }
    procBoundary127to63
    {
        type            processor;
        value           nonuniform List<scalar> 
20
(
-2.21552e+14
-1.15557e+14
-6.06911e+13
-3.32092e+13
-1.17065e+13
-1.97001e+14
-1.08338e+14
-5.67824e+13
-2.69794e+13
-7.98265e+12
-1.56329e+14
-7.42975e+13
-4.07806e+13
-2.24656e+13
-7.47027e+12
-9.84085e+13
-6.1436e+13
-4.12955e+13
-2.70198e+13
-1.12732e+13
)
;
    }
    procBoundary127to111
    {
        type            processor;
        value           nonuniform List<scalar> 
15
(
-1.42041e+14
-6.1453e+13
-3.73956e+13
-2.35755e+13
-9.24486e+12
-1.37819e+14
-7.65824e+13
-4.96743e+13
-3.18535e+13
-1.14217e+13
-1.15625e+14
-8.17898e+13
-4.92871e+13
-2.74117e+13
-9.14612e+12
)
;
    }
    procBoundary127to126
    {
        type            processor;
        value           nonuniform List<scalar> 
12
(
-2.61316e+14
-2.28847e+14
-1.78054e+14
-1.83811e+14
-1.94593e+14
-2.21656e+14
-2.24724e+14
-2.07948e+14
-1.71556e+14
-1.97343e+14
-2.39673e+14
-2.76693e+14
)
;
    }
}


// ************************************************************************* //
