/*--------------------------------*- C++ -*----------------------------------*\
| =========                 |                                                 |
| \\      /  F ield         | OpenFOAM: The Open Source CFD Toolbox           |
|  \\    /   O peration     | Version:  2.4.0                                 |
|   \\  /    A nd           | Web:      www.OpenFOAM.org                      |
|    \\/     M anipulation  |                                                 |
\*---------------------------------------------------------------------------*/
FoamFile
{
    version     2.0;
    format      ascii;
    class       volVectorField;
    location    "0.02";
    object      gradp;
}
// * * * * * * * * * * * * * * * * * * * * * * * * * * * * * * * * * * * * * //

dimensions      [1 -2 -2 0 0 0 0];

internalField   nonuniform List<vector> 
200
(
(-5148.31 -1336.83 -3422.55)
(-6266.92 -2554.77 -3846.63)
(-3578.59 -1981.88 -4782.21)
(-1807.92 -1821.86 -8062.88)
(5106.51 -3228.78 -6033.17)
(16495.4 -8603.22 -7292.48)
(19539.1 -16409.1 -11750.7)
(14929.7 -23397.4 -11238.6)
(4378.15 -28321.5 -14455.1)
(2149.14 -20676.2 -9029.58)
(-4223.05 -1844.55 -3524)
(-5053.36 821.713 -3480.3)
(-4491.06 690.917 -3358.57)
(-3720.06 -697.741 -4338.26)
(-3548.16 -3171.59 -4764.67)
(-1762.49 -7332.66 -4494.97)
(5046.96 -12411.7 -3490.16)
(1605.25 -16747.2 -4458.01)
(4266.46 -18451.3 -2902.1)
(15549.4 -15361 -2691.84)
(-9682.31 6095.63 -1713.5)
(-1195.98 6312.93 -5705.33)
(-6617.5 2351.76 -4702.69)
(-9532.94 -1419 -3819.1)
(-8163.33 -5440.03 -4563.75)
(-1984.76 -4004.75 -4797.01)
(709.87 -3341.66 -5167.66)
(2850.47 -4268.9 -2679.63)
(7150.58 -5705.76 -3596.51)
(7663.05 -10270.5 3330.92)
(-3244.89 23250.5 -12031.9)
(-12541.1 16815.7 -9625.46)
(-19954.9 7614.29 -7699.45)
(-19303.6 -1605.42 -5102.19)
(-8719.65 -3627.45 -4882.73)
(2434.26 -3505.69 -8506.84)
(4518.66 684.58 -14841.9)
(-3122.94 4053.86 -9615.37)
(-7736.72 2020.9 -7674.03)
(2308.47 -3327.24 -11723.8)
(-11331.2 -846.25 -4954.37)
(-10617.8 1759.46 -4537.48)
(-17070.6 5808.63 -5541.48)
(-5810.98 4770.53 -4650.15)
(7571.77 17758.4 -2448.02)
(-1800.74 6872.52 -8194.92)
(6911.49 2494.97 -11717.3)
(6275.54 2545.78 -12542.8)
(11447 -7423.05 -12093.6)
(2487.47 -1660.11 -9541.46)
(-5975.7 889.938 -3297.68)
(-4523.98 -2152.21 -2889.8)
(-7236.55 818.16 -3271.13)
(-8219.58 6092.31 -3524.22)
(-4049.64 -820.523 -6056.27)
(2315.93 -3339.9 -6435.02)
(5165.24 -1878.78 -5328.9)
(3487.06 -3052.9 -4540.29)
(9918.22 -1077.49 -1597.09)
(22393.9 4415.76 1263.74)
(-11349.9 -7517.06 -2668.6)
(-10761.4 -3519.33 -2802.62)
(-581.564 -4593.65 -6507.08)
(-9088.34 -2641.29 -5973.4)
(-11292.6 -5628.94 -5898.13)
(-3917.26 -10423.7 -6287.78)
(7485.49 -21504.4 -22071.6)
(7878.13 -12520.7 -8138.65)
(26384.3 -13340.9 670.439)
(16396 -24721.6 4043.89)
(-14455.7 5587.3 -7038.43)
(1322.84 11013.7 -8747.78)
(-5480.47 5470.91 -3494.95)
(-10290.2 -4127.39 -4801.12)
(-19614.5 -10891.6 840.384)
(-29435.1 -14059.8 -11152.2)
(971.349 -12691.5 -4316.44)
(19814.2 -15801.1 -846.813)
(-14483.7 -19576.5 -843.544)
(-19148.9 -43657.3 2834.11)
(-7488.32 5341.99 -650.124)
(-8145.67 8894.1 434.377)
(-3939.12 3010.21 3262.11)
(8091.14 4312.82 6218.38)
(-6236.78 3955.34 3529.34)
(-13166.2 6522.35 6313.71)
(5625.96 3642.43 5465.33)
(13725.3 1237.86 3746.58)
(13982.3 2883.32 5161.93)
(15128 7857.72 3447.7)
(-4394.01 1812.68 3261.39)
(-4968.41 3597.49 2010.23)
(-6521.21 -854.051 -2884.2)
(-12632.5 -2814.95 -2614.37)
(-12862.7 -8691.76 1126.98)
(565.078 -4281.24 1742.47)
(11110.1 -28978.6 2954.97)
(13547.1 -9700.68 4454.43)
(22839.3 1971.23 5429.16)
(30318.5 6375.52 5312.58)
(-2953.17 110.437 7420.78)
(-13479.1 -3059.85 16971.3)
(-16764 1993.66 9162.37)
(-7584.29 -3462.06 2880.52)
(-9169.35 5594.61 3771.93)
(-53739.8 -11552.3 3369.17)
(-5212.91 -1721.73 4711.86)
(75624.9 1640.66 1671.17)
(46134.7 -4500.09 -1529.8)
(12869.1 -7757.9 -8684.99)
(-11511.6 712.749 13962.1)
(-1201.96 2556.79 13102.4)
(-7325.62 9938.15 19134)
(-5430.58 13063.7 17365.3)
(-29043.2 11760.3 12943.8)
(-14067.6 17661.4 15220.4)
(37496 70102.1 24276.6)
(7990.34 19011.9 8831.92)
(4042.22 124.9 4752.14)
(-6457.15 -11433.1 2973.74)
(-7129.63 14540.9 10761.7)
(1901.31 8862.84 12499)
(1438.23 545.409 13652.4)
(-4955.81 -14543.4 10126.8)
(7876.8 -13766 6605.56)
(4394.4 -6999.71 10344.3)
(-1303.3 -424.821 10008.6)
(5304.68 2633.57 7359.3)
(10490.5 1468.27 5782.82)
(16147.6 1953.91 5086.56)
(-8986.13 13803.4 8164.52)
(-24189.9 24306.9 9145.35)
(-22035.2 10258.6 7980.39)
(4616.21 751.719 8498.35)
(9892.24 -432.394 10206.7)
(8165.47 -8051.16 11138)
(13843.5 -3084.33 8811.41)
(11404.5 -6373.56 5505.24)
(12664.3 -11784.3 1984.86)
(1792.56 -14996.5 -3379.76)
(21277.6 9604.02 9888.4)
(-5188.29 14228.1 9162.32)
(-45672.2 30635.5 14747.5)
(-26337.8 29326.2 13315.5)
(-9728.97 13278 12348.3)
(-909.465 11140.9 12416.8)
(2051.9 12610.2 25480.2)
(-12095.2 -5516.71 9751.24)
(-6755.41 -14424.1 -3594.53)
(-178.914 -28463.8 -15224.6)
(2592.41 4608.13 7753.58)
(17873 -9079.61 11195.8)
(8160.93 4168.29 9259.63)
(-30098.7 16985.6 12500.4)
(-26478.2 19452.1 8083.19)
(6829.82 20143.2 19415.4)
(-19471.8 1731.4 9497.57)
(-42664 -520.512 3221.2)
(-33229.9 1814.81 2715.1)
(-10734.9 -528.882 -2437)
(2622.83 -3895.21 9880.04)
(1104.56 -12770.2 11373.8)
(-11530.2 -15246.5 9631.05)
(-14458.8 -5120.85 7321.14)
(-5540.73 -2628.72 6661.36)
(-2276.33 -3305.84 3128.16)
(-3926.04 -3333.39 4576.76)
(202.719 -7270.81 2308.55)
(6709.56 -11512 2982.39)
(6785.4 -12991.1 1126.99)
(276.262 415.356 5129.45)
(-5557.61 -1741.24 7725.62)
(-8591.59 898.056 10952)
(-5508.28 2286.94 11926.8)
(-4415.87 496.662 7788.12)
(-3899.85 -965.276 7455.48)
(-6914.74 -4224.09 4017.71)
(-8297.91 -5873.57 968.524)
(-5592.67 -13032.5 -2139.29)
(3520.57 -26122.3 -4736.78)
(-361.118 -547.065 1512.52)
(2069.96 220.808 -4906.31)
(-3473.89 4040.44 3780.73)
(-15261.6 2941.15 8280.65)
(-12045.2 2197 7242.02)
(-11717.8 1691.57 7556.84)
(-13742.6 -623.874 3864.41)
(-17414.2 -2013.79 2621.05)
(-33787.9 -3331.69 2202.22)
(-8411.25 -6249.47 -5826.6)
(3155.14 -5678.03 -1214.98)
(3617.4 -3618.49 -1028.93)
(-3150.91 -3166.64 -5669.86)
(-9195.17 -42.151 -4563.88)
(-6915.04 2379.57 862.5)
(-9541.59 2893.41 1549.62)
(-14325.5 5215.99 -4253.57)
(-13713.5 4522.48 3157.85)
(-14064 8615.77 4793.45)
(-10550.4 16731.3 9147.18)
)
;

boundaryField
{
    inlet
    {
        type            zeroGradient;
    }
    outlet
    {
        type            zeroGradient;
    }
    bottom
    {
        type            zeroGradient;
    }
    top
    {
        type            symmetryPlane;
    }
    side1
    {
        type            symmetryPlane;
    }
    side2
    {
        type            symmetryPlane;
    }
    procBoundary17to9
    {
        type            processor;
        value           nonuniform List<vector> 
50
(
(966.067 -1200.8 -3830.61)
(-3763.27 -3610.4 -6176.69)
(-5956.87 -4423.71 -8227.63)
(-1226.24 -6108.25 -8458.51)
(10014.6 -6691.33 -17881.7)
(24598.2 -6263.57 -14167.3)
(34635.3 -4918.96 -15305.2)
(25429.9 -7039.6 -20672.5)
(-1175.88 -10546.2 -15963.6)
(-15290.9 -9025.63 -14576.9)
(-12945.3 -1364.57 -7471.95)
(-17833.7 -2090.39 -10045.3)
(-13258.7 -5014.81 -6391.19)
(-32119.1 -11545.7 -7358.39)
(-8253.62 -5020.62 -10546.3)
(32842.8 -2882.53 -15888.5)
(13818.7 -6489.75 -17861.1)
(23323.1 -7490.53 -19937.3)
(18330 -12477.9 -21100.1)
(4472.95 -15617.2 -16570)
(-16037.7 -338.138 -6355.56)
(-304.849 68.4318 -2429.39)
(2641.34 1041.43 405.315)
(-14522.7 5252.57 9456.82)
(-17281.8 23585.2 20829.7)
(1190.89 8479.37 10412.6)
(21679.1 2985.11 4779.84)
(15065.3 2422.53 4399.57)
(9599.61 2269.98 -127.917)
(5901.82 8829.27 3053.82)
(-8052.7 11980.5 13937.8)
(3801.07 18127.3 22685.5)
(24777.2 13682.9 19390.8)
(33239 30811.6 14394.4)
(-5195.06 17779.2 14321.7)
(-18516.8 19210.9 17280.6)
(-5423.06 9384.94 13171.3)
(7618.28 6039.67 10823.2)
(14023.6 3245.75 10981.9)
(10200.4 4178.34 9650.76)
(22802.4 -4028.04 16652)
(17145 -21476.4 21246.3)
(-23890.3 -30473 20822)
(-30743.9 -18002.6 6037.69)
(-8045.88 4108.55 827.342)
(-2490.52 394.343 5146.81)
(1015.21 -9502.56 5835.56)
(8059.34 -9705.56 7158.77)
(5847.95 -11616.5 5973.39)
(5990.8 -12146.5 4603.87)
)
;
    }
    procBoundary17to16
    {
        type            processor;
        value           nonuniform List<vector> 
20
(
(-2390.51 39.7887 -1914.49)
(-3736.02 3088.71 -2932.59)
(-10182.7 5823.85 -5184.2)
(-5344.01 13584.2 -6122.09)
(-8271.72 -1725.34 -3806.23)
(-10074.1 -2142.83 -2836.37)
(-3625.51 720.658 -4905.48)
(-18207.2 6113.47 -6164.43)
(-8264.33 3072.26 -878.597)
(-6718.67 1329.91 2950.98)
(-9462.64 498.958 6775.24)
(-12883.6 5949.86 7774.83)
(-9872.43 9329.55 9339.28)
(-5147.56 10103.3 7685.89)
(3470.75 8438.82 8352.3)
(3930.1 -1114.04 6612.4)
(1430.7 -1507.12 8326.14)
(-929.909 -249.26 4831.13)
(2272.8 -1218.63 1855.79)
(133.879 -6658.21 -1204.78)
)
;
    }
    procBoundary17to18
    {
        type            processor;
        value           nonuniform List<vector> 
20
(
(4500.92 -12901.3 -14349.4)
(13691.3 -15694.3 -763.185)
(7819.38 -12326.2 -867.454)
(13036.3 1325.67 -14379.5)
(6909.73 1537.44 -8037.73)
(28035.1 5876.79 3018.27)
(-6207.17 -34112.2 2297.32)
(-5164.17 -39327.7 -3582.8)
(13854.1 15091.7 9430.73)
(12105.3 841.774 -1008.76)
(5522.4 -22887.9 -6709.47)
(-5004.5 -9347.9 7381.49)
(7130.6 -2735.63 3175.76)
(-7309.75 -19947.5 -6389.5)
(1322.41 -20687.8 -10244.6)
(7451.85 -1287.03 1435.97)
(11974.9 -12747.1 56.6984)
(12915.1 -20630.9 -1599.29)
(18733.2 -10367.2 -370.382)
(3793.53 10485.1 4851.13)
)
;
    }
    procBoundary17to25
    {
        type            processor;
        value           nonuniform List<vector> 
50
(
(-3219.3 17664.2 -12753)
(-32468.4 14809.1 -9331.57)
(-43459.7 8342.74 -6042.3)
(-32016.4 2242.25 -5395.33)
(-11963.9 -7060.04 -9103.88)
(6639.3 -1299.41 -11393.3)
(15829 1212.44 -13527.7)
(5523.12 8402.52 -15089)
(-7611.62 12911.8 -17094.9)
(6272.57 19034.6 -21875.4)
(-1549.49 38127.7 -16754.7)
(-10994.2 26775.8 -11714.4)
(-30863.7 16454.6 -5054.67)
(-41813.5 -2148.07 3194.81)
(-31157.4 -9740.28 3719.19)
(-7516.95 -15665 6941.66)
(4002.85 -4311.09 21314.4)
(-5891.85 -19500.9 1210.1)
(-29328.1 -16868 -514.563)
(-23106.4 -18413.6 -1022.28)
(-9739.31 17592.7 6808.8)
(4971.68 17305.7 4413.02)
(4249.89 12425.1 8348.23)
(-3940.07 18311.1 16076.2)
(26.0456 5344.14 22736.8)
(62943.9 30287.2 24746)
(-2512.05 2871.15 13726.2)
(-64329.5 -8313.41 11221.5)
(-14755.2 -6998.49 11839.8)
(-6076.52 -8068.04 18270.3)
(5346.45 -3965.47 5894.16)
(-6067.97 -5259.54 5302.76)
(6458.29 -13912.4 6556.99)
(4229.86 -10049.7 5124.3)
(-3413.77 5458.7 6485.39)
(-36350.9 -1998.26 3186.77)
(-39275.6 -16716.2 -15073.6)
(-11928.4 -4149.49 695.38)
(-6772.14 2118.56 1712.26)
(-6382.59 10915.5 2378.2)
(5718.32 -9073.4 -4916.33)
(7092.74 -7942.56 -1493.11)
(3678.79 -5266.3 -803.607)
(-4169.2 -461.63 -2361.71)
(-6174.04 4186.07 -3428.31)
(-6044.98 456.747 -3224.29)
(-10484.5 105.589 6042.28)
(-10614.6 -179.917 5772.91)
(-9370.19 4089.6 6452.82)
(-4672.5 7481.9 4961.03)
)
;
    }
}


// ************************************************************************* //
