/*--------------------------------*- C++ -*----------------------------------*\
| =========                 |                                                 |
| \\      /  F ield         | OpenFOAM: The Open Source CFD Toolbox           |
|  \\    /   O peration     | Version:  2.4.0                                 |
|   \\  /    A nd           | Web:      www.OpenFOAM.org                      |
|    \\/     M anipulation  |                                                 |
\*---------------------------------------------------------------------------*/
FoamFile
{
    version     2.0;
    format      ascii;
    class       surfaceScalarField;
    location    "0.02";
    object      phia;
}
// * * * * * * * * * * * * * * * * * * * * * * * * * * * * * * * * * * * * * //

dimensions      [0 3 -1 0 0 0 0];

internalField   nonuniform List<scalar> 
490
(
3.42541e-06
7.93166e-07
1.26598e-07
3.35567e-06
7.93169e-07
1.22635e-07
3.28632e-06
7.93174e-07
1.18686e-07
3.2175e-06
7.93183e-07
1.14759e-07
3.14927e-06
7.93197e-07
1.10859e-07
3.08166e-06
7.9322e-07
1.06985e-07
3.01475e-06
7.93253e-07
1.03135e-07
2.94891e-06
7.93301e-07
9.93148e-08
2.88471e-06
7.93365e-07
9.55586e-08
7.93449e-07
9.19145e-08
3.25291e-06
7.93268e-07
1.16429e-07
3.19629e-06
7.93274e-07
1.13196e-07
3.1399e-06
7.93284e-07
1.09974e-07
3.08359e-06
7.933e-07
1.06758e-07
3.0271e-06
7.93323e-07
1.03537e-07
2.97022e-06
7.93355e-07
1.00292e-07
2.91307e-06
7.934e-07
9.70116e-08
2.85676e-06
7.9346e-07
9.37169e-08
2.80423e-06
7.93535e-07
9.05166e-08
7.93626e-07
8.76547e-08
3.12265e-06
7.93373e-07
1.08731e-07
3.07488e-06
7.93383e-07
1.06004e-07
3.02703e-06
7.93399e-07
1.03271e-07
2.97896e-06
7.9342e-07
1.00527e-07
2.9306e-06
7.9345e-07
9.77635e-08
2.88204e-06
7.9349e-07
9.49763e-08
2.83386e-06
7.93543e-07
9.21774e-08
2.78761e-06
7.93609e-07
8.94199e-08
2.7459e-06
7.93692e-07
8.68299e-08
7.9379e-07
8.45933e-08
3.02243e-06
1.02812e-07
2.9813e-06
1.00458e-07
2.94005e-06
9.80958e-08
2.89869e-06
9.57236e-08
2.85729e-06
9.33422e-08
2.81615e-06
9.0959e-08
2.77597e-06
8.85976e-08
2.73809e-06
8.63136e-08
2.70403e-06
8.42061e-08
8.2361e-08
3.42938e-06
7.92212e-07
1.27128e-07
3.36065e-06
7.9219e-07
1.23229e-07
3.29216e-06
7.92169e-07
1.19337e-07
3.22403e-06
7.9215e-07
1.15461e-07
3.15624e-06
7.92134e-07
1.11603e-07
3.08874e-06
7.92124e-07
1.07761e-07
3.02152e-06
7.92122e-07
1.03925e-07
2.95493e-06
7.92131e-07
1.00098e-07
2.88985e-06
7.92154e-07
9.63161e-08
7.92193e-07
9.26578e-08
3.25927e-06
7.9241e-07
1.17069e-07
3.20296e-06
7.92396e-07
1.13862e-07
3.14676e-06
7.92384e-07
1.10661e-07
3.09051e-06
7.92376e-07
1.07461e-07
3.03396e-06
7.92374e-07
1.04251e-07
2.97682e-06
7.92379e-07
1.01011e-07
2.91914e-06
7.92395e-07
9.77265e-08
2.86208e-06
7.92423e-07
9.44154e-08
2.80886e-06
7.92462e-07
9.11927e-08
7.92508e-07
8.83309e-08
3.12956e-06
7.92601e-07
1.09379e-07
3.08187e-06
7.92593e-07
1.06663e-07
3.034e-06
7.92589e-07
1.03939e-07
2.98583e-06
7.9259e-07
1.012e-07
2.93725e-06
7.92597e-07
9.84379e-08
2.88831e-06
7.92612e-07
9.56478e-08
2.83956e-06
7.92638e-07
9.28389e-08
2.7926e-06
7.92676e-07
9.00629e-08
2.75027e-06
7.92724e-07
8.74543e-08
7.92781e-07
8.52202e-08
3.02973e-06
1.03461e-07
2.98847e-06
1.01107e-07
2.94703e-06
9.87421e-08
2.90541e-06
9.63657e-08
2.86368e-06
9.39784e-08
2.82209e-06
9.15868e-08
2.78134e-06
8.92128e-08
2.7428e-06
8.69114e-08
2.70819e-06
8.47893e-08
8.29462e-08
3.43675e-06
7.91249e-07
1.27859e-07
3.36863e-06
7.91201e-07
1.24004e-07
3.30061e-06
7.91153e-07
1.2015e-07
3.2328e-06
7.91103e-07
1.16306e-07
3.16516e-06
7.91055e-07
1.12475e-07
3.09756e-06
7.9101e-07
1.08651e-07
3.02987e-06
7.90969e-07
1.04823e-07
2.9624e-06
7.90937e-07
1.00984e-07
2.89633e-06
7.90916e-07
9.71746e-08
7.90905e-07
9.35002e-08
3.26799e-06
7.91546e-07
1.1785e-07
3.21177e-06
7.91509e-07
1.14658e-07
3.15554e-06
7.91473e-07
1.11467e-07
3.09916e-06
7.9144e-07
1.08273e-07
3.04235e-06
7.9141e-07
1.05065e-07
2.9848e-06
7.91386e-07
1.01823e-07
2.92648e-06
7.9137e-07
9.85297e-08
2.86855e-06
7.91363e-07
9.51986e-08
2.8145e-06
7.91363e-07
9.19499e-08
7.9136e-07
8.90857e-08
3.13831e-06
7.91821e-07
1.10137e-07
3.0905e-06
7.91794e-07
1.07424e-07
3.04244e-06
7.91769e-07
1.04699e-07
2.99401e-06
7.91746e-07
1.01957e-07
2.94507e-06
7.91729e-07
9.91901e-08
2.89563e-06
7.91718e-07
9.6392e-08
2.84621e-06
7.91715e-07
9.35694e-08
2.79844e-06
7.91721e-07
9.07723e-08
2.7554e-06
7.91734e-07
8.81424e-08
7.91746e-07
8.59091e-08
3.03841e-06
1.04194e-07
2.99687e-06
1.01833e-07
2.9551e-06
9.94596e-08
2.9131e-06
9.70728e-08
2.87093e-06
9.46745e-08
2.82882e-06
9.22707e-08
2.78741e-06
8.98815e-08
2.74815e-06
8.75612e-08
2.7129e-06
8.54229e-08
8.3581e-08
3.44688e-06
7.90285e-07
1.28376e-07
3.37905e-06
7.9021e-07
1.24571e-07
3.31118e-06
7.90131e-07
1.2076e-07
3.2434e-06
7.9005e-07
1.16953e-07
3.17565e-06
7.89967e-07
1.13154e-07
3.10774e-06
7.89884e-07
1.09358e-07
3.03944e-06
7.89802e-07
1.05547e-07
2.971e-06
7.89726e-07
1.01712e-07
2.90383e-06
7.89656e-07
9.78907e-08
7.8959e-07
9.42187e-08
3.27866e-06
7.90679e-07
1.1839e-07
3.22232e-06
7.90619e-07
1.15224e-07
3.16587e-06
7.90557e-07
1.12052e-07
3.10918e-06
7.90496e-07
1.08874e-07
3.05197e-06
7.90436e-07
1.05678e-07
2.99388e-06
7.9038e-07
1.02446e-07
2.93481e-06
7.9033e-07
9.91566e-08
2.8759e-06
7.90285e-07
9.58192e-08
2.82093e-06
7.90244e-07
9.25583e-08
7.90187e-07
8.97059e-08
3.14856e-06
7.91038e-07
1.10648e-07
3.10049e-06
7.9099e-07
1.07948e-07
3.05208e-06
7.90942e-07
1.05233e-07
3.00324e-06
7.90895e-07
1.02497e-07
2.95381e-06
7.90852e-07
9.97351e-08
2.90379e-06
7.90812e-07
9.69397e-08
2.85361e-06
7.90778e-07
9.41156e-08
2.80495e-06
7.9075e-07
9.13104e-08
2.76111e-06
7.90724e-07
8.86721e-08
7.90688e-07
8.64522e-08
3.04823e-06
1.04673e-07
3.0063e-06
1.02315e-07
2.96408e-06
9.99422e-08
2.92159e-06
9.75548e-08
2.87888e-06
9.51555e-08
2.83616e-06
9.27503e-08
2.79405e-06
9.03575e-08
2.754e-06
8.80303e-08
2.71806e-06
8.58882e-08
8.40598e-08
3.4593e-06
7.8932e-07
3.39148e-06
7.89215e-07
3.3235e-06
7.89105e-07
3.25548e-06
7.88989e-07
3.1874e-06
7.88869e-07
3.119e-06
7.88746e-07
3.04998e-06
7.88621e-07
2.98047e-06
7.88497e-07
2.91212e-06
7.88374e-07
7.88249e-07
3.29095e-06
7.8981e-07
3.23433e-06
7.89724e-07
3.1775e-06
7.89635e-07
3.12034e-06
7.89544e-07
3.06259e-06
7.89453e-07
3.00384e-06
7.89363e-07
2.94393e-06
7.89275e-07
2.88396e-06
7.8919e-07
2.828e-06
7.89103e-07
7.88991e-07
3.16008e-06
7.90251e-07
3.1116e-06
7.9018e-07
3.06271e-06
7.90108e-07
3.01333e-06
7.90036e-07
2.96332e-06
7.89964e-07
2.91262e-06
7.89894e-07
2.86162e-06
7.89827e-07
2.812e-06
7.89762e-07
2.76731e-06
7.89695e-07
7.89608e-07
3.05903e-06
3.01659e-06
2.97382e-06
2.93074e-06
2.88742e-06
2.84403e-06
2.80114e-06
2.76027e-06
2.7236e-06
)
;

boundaryField
{
    inlet
    {
        type            calculated;
        value           nonuniform 0();
    }
    outlet
    {
        type            calculated;
        value           nonuniform 0();
    }
    bottom
    {
        type            calculated;
        value           uniform 0;
    }
    top
    {
        type            symmetryPlane;
        value           uniform 0;
    }
    side1
    {
        type            symmetryPlane;
        value           nonuniform 0();
    }
    side2
    {
        type            symmetryPlane;
        value           nonuniform 0();
    }
    procBoundary17to9
    {
        type            processor;
        value           nonuniform List<scalar> 
50
(
-7.93064e-07
-7.93064e-07
-7.93066e-07
-7.93069e-07
-7.93075e-07
-7.93088e-07
-7.93108e-07
-7.93139e-07
-7.93185e-07
-7.93253e-07
-7.92002e-07
-7.91973e-07
-7.91943e-07
-7.91912e-07
-7.91881e-07
-7.91853e-07
-7.91829e-07
-7.91812e-07
-7.91807e-07
-7.91822e-07
-7.90931e-07
-7.90872e-07
-7.90808e-07
-7.9074e-07
-7.9067e-07
-7.90598e-07
-7.90526e-07
-7.90457e-07
-7.90397e-07
-7.90352e-07
-7.8986e-07
-7.89768e-07
-7.89668e-07
-7.89562e-07
-7.8945e-07
-7.89331e-07
-7.89208e-07
-7.89083e-07
-7.88962e-07
-7.88852e-07
-7.88789e-07
-7.88662e-07
-7.88526e-07
-7.88378e-07
-7.88221e-07
-7.88053e-07
-7.87875e-07
-7.8769e-07
-7.87504e-07
-7.87322e-07
)
;
    }
    procBoundary17to16
    {
        type            processor;
        value           nonuniform List<scalar> 
20
(
-3.47429e-06
-3.29596e-06
-3.1618e-06
-3.05925e-06
-3.47987e-06
-3.30327e-06
-3.16984e-06
-3.06761e-06
-3.48886e-06
-3.31307e-06
-3.17978e-06
-3.07742e-06
-3.50061e-06
-3.32493e-06
-3.19129e-06
-3.08843e-06
-3.51463e-06
-3.33849e-06
-3.20412e-06
-3.10047e-06
)
;
    }
    procBoundary17to18
    {
        type            processor;
        value           nonuniform List<scalar> 
20
(
2.82386e-06
2.75586e-06
2.70751e-06
2.67199e-06
2.82768e-06
2.75985e-06
2.71132e-06
2.67562e-06
2.83281e-06
2.76473e-06
2.7158e-06
2.67975e-06
2.83895e-06
2.77033e-06
2.7208e-06
2.68428e-06
2.84588e-06
2.77649e-06
2.72625e-06
2.68916e-06
)
;
    }
    procBoundary17to25
    {
        type            processor;
        value           nonuniform List<scalar> 
50
(
7.93488e-07
7.93502e-07
7.93521e-07
7.93546e-07
7.93579e-07
7.93622e-07
7.93677e-07
7.93747e-07
7.93834e-07
7.93943e-07
7.92788e-07
7.92785e-07
7.92787e-07
7.92793e-07
7.92805e-07
7.92825e-07
7.92855e-07
7.92897e-07
7.92953e-07
7.93028e-07
7.9208e-07
7.9206e-07
7.92042e-07
7.92028e-07
7.92018e-07
7.92014e-07
7.92017e-07
7.92029e-07
7.92052e-07
7.9209e-07
7.91368e-07
7.91329e-07
7.91291e-07
7.91255e-07
7.91222e-07
7.91192e-07
7.91167e-07
7.91147e-07
7.91135e-07
7.91134e-07
7.90651e-07
7.90592e-07
7.90533e-07
7.90475e-07
7.90416e-07
7.90359e-07
7.90304e-07
7.9025e-07
7.90201e-07
7.90157e-07
)
;
    }
}


// ************************************************************************* //
