/*--------------------------------*- C++ -*----------------------------------*\
| =========                 |                                                 |
| \\      /  F ield         | OpenFOAM: The Open Source CFD Toolbox           |
|  \\    /   O peration     | Version:  2.4.0                                 |
|   \\  /    A nd           | Web:      www.OpenFOAM.org                      |
|    \\/     M anipulation  |                                                 |
\*---------------------------------------------------------------------------*/
FoamFile
{
    version     2.0;
    format      ascii;
    class       volVectorField;
    location    "0.1";
    object      gradp;
}
// * * * * * * * * * * * * * * * * * * * * * * * * * * * * * * * * * * * * * //

dimensions      [1 -2 -2 0 0 0 0];

internalField   nonuniform List<vector> 
200
(
(-1.20852e+19 -6.94336e+18 -7.44011e+18)
(-1.45802e+19 -5.37559e+18 -6.88864e+18)
(-1.12045e+19 -4.87131e+18 -6.29492e+18)
(-9.15687e+18 -4.92878e+18 -7.39552e+18)
(-4.90444e+18 -5.56371e+18 -7.45797e+18)
(-1.75079e+18 -8.11568e+18 -9.18579e+18)
(2.20877e+18 -9.44779e+18 -1.02985e+19)
(3.06596e+18 -1.13073e+19 -7.84684e+18)
(1.1767e+18 -1.20968e+19 -4.89679e+18)
(5.21933e+18 -1.07645e+19 1.8639e+18)
(-1.31937e+19 -1.26499e+19 -9.83769e+18)
(-1.04361e+19 -1.18613e+19 -8.88139e+18)
(-1.03109e+19 -9.92688e+18 -7.7867e+18)
(-1.05417e+19 -1.01952e+19 -7.65129e+18)
(-1.12782e+19 -9.52693e+18 -7.11473e+18)
(-9.51896e+18 -1.24132e+19 -8.38479e+18)
(-4.17456e+18 -1.33149e+19 -5.89979e+18)
(-2.23216e+18 -1.76308e+19 -5.96603e+18)
(2.26235e+18 -1.59142e+19 -2.70475e+18)
(2.94816e+18 -1.71295e+19 -4.15322e+18)
(-1.13193e+19 -1.18375e+19 -1.10825e+19)
(-9.13421e+18 -1.08684e+19 -8.59918e+18)
(-7.87225e+18 -1.02373e+19 -7.44003e+18)
(-8.35696e+18 -9.14387e+18 -5.88913e+18)
(-9.34045e+18 -8.40914e+18 -6.03731e+18)
(-9.32669e+18 -7.30217e+18 -4.40526e+18)
(-8.2266e+18 -7.5125e+18 -4.01803e+18)
(-2.13277e+18 -7.04373e+18 -1.13507e+18)
(2.17936e+18 -6.15349e+18 -3.36804e+18)
(3.162e+18 -7.87111e+18 -8.71107e+17)
(-2.03523e+19 -2.51895e+18 -9.31467e+18)
(-7.23573e+18 -4.96527e+18 -7.93869e+18)
(-6.86178e+18 -9.27573e+18 -6.18948e+18)
(-6.88542e+18 -7.7406e+18 -5.9001e+18)
(-7.59483e+18 -7.87924e+18 -4.80046e+18)
(-7.72569e+18 -5.63798e+18 -3.66453e+18)
(-3.65767e+18 -6.81308e+18 -1.69799e+18)
(4.85877e+17 -5.0046e+18 -1.86232e+18)
(6.0758e+17 -6.4454e+18 -9.94188e+17)
(-9.89431e+16 -3.64188e+18 -2.11327e+18)
(-9.68909e+18 -1.07795e+19 -8.3397e+18)
(-1.09156e+19 -8.56399e+18 -6.8721e+18)
(-1.28265e+19 -7.25815e+18 -6.47362e+18)
(-1.28786e+19 -5.33802e+18 -6.75997e+18)
(-1.06333e+19 -5.01452e+18 -6.67042e+18)
(-1.08405e+19 -6.83408e+18 -8.78821e+18)
(6.4934e+18 -2.40985e+18 -7.36255e+18)
(2.03514e+19 -8.29804e+18 -9.43564e+18)
(3.22511e+19 -8.58958e+18 -4.50018e+18)
(2.98976e+19 -2.03919e+19 -1.72149e+18)
(1.29926e+17 -1.84778e+19 -7.33034e+18)
(-3.87295e+18 -1.45981e+19 -7.36422e+18)
(-6.37457e+18 -1.1759e+19 -7.32904e+18)
(-8.39136e+18 -7.78493e+18 -6.63431e+18)
(-1.36254e+19 -7.25387e+18 -6.75466e+18)
(-5.63114e+18 -4.76432e+18 -3.99339e+18)
(3.56547e+18 -3.26614e+18 -5.43025e+18)
(7.99197e+18 -6.89202e+18 -3.6127e+18)
(8.06332e+18 -1.34683e+19 -2.77056e+18)
(1.07858e+19 -2.15055e+19 -4.72575e+17)
(8.42252e+18 -1.10006e+19 -6.68437e+18)
(2.52182e+18 -9.36009e+18 -5.06791e+18)
(7.99919e+17 -7.6817e+18 -5.26616e+18)
(-3.86827e+18 -6.34196e+18 -3.98446e+18)
(-4.59207e+18 -4.70631e+18 -3.46918e+18)
(-2.86501e+18 2.50239e+17 -1.01554e+18)
(2.23801e+18 -7.89636e+17 4.35036e+16)
(-5.27986e+16 -4.77791e+17 2.64663e+18)
(3.02405e+18 -3.41659e+18 3.07022e+18)
(6.81688e+18 -4.60719e+18 4.59234e+18)
(7.49529e+18 -7.4301e+18 -3.92434e+18)
(2.76487e+18 -5.90802e+18 -3.02832e+18)
(-3.38316e+17 -5.69493e+18 -1.91361e+18)
(-2.44058e+18 -5.93138e+18 -2.02689e+18)
(-4.41003e+17 -2.28278e+18 -8.613e+16)
(2.20221e+18 -1.73344e+18 9.92673e+17)
(2.10941e+18 1.39494e+18 3.55294e+18)
(2.73806e+18 1.00253e+18 4.10317e+18)
(-1.95479e+17 1.12218e+19 5.60511e+18)
(1.80742e+18 2.23164e+18 6.74051e+18)
(-3.56917e+18 -5.32839e+18 -3.10436e+18)
(-8.60879e+18 -6.16298e+18 -1.79112e+18)
(-1.08457e+19 -6.23998e+18 -7.32241e+17)
(-9.78664e+18 -4.72772e+18 1.72898e+18)
(-1.13948e+19 -5.69848e+18 2.91938e+18)
(-3.96559e+18 -4.43961e+17 4.34646e+18)
(1.36986e+17 -6.35612e+18 5.45963e+18)
(1.22255e+19 -1.99064e+18 2.46661e+18)
(2.5862e+19 -9.32946e+18 2.23328e+17)
(2.97825e+19 -8.76625e+18 -5.7901e+18)
(-7.16881e+18 -1.00014e+19 2.92735e+18)
(-1.0432e+19 -8.97456e+18 2.35199e+18)
(-7.97517e+18 -7.99494e+18 2.1541e+18)
(-8.70364e+18 -5.75434e+18 3.10317e+18)
(-2.82727e+18 -4.40495e+18 4.4498e+18)
(-5.28086e+18 2.31134e+16 7.10254e+18)
(-2.95636e+18 -1.4652e+18 6.43447e+18)
(6.27886e+18 1.70079e+18 6.32399e+18)
(1.23107e+19 -3.8016e+18 4.83666e+18)
(1.3448e+19 -7.02738e+18 5.82373e+18)
(-7.54676e+17 -6.38784e+18 6.75391e+18)
(-4.59593e+18 -3.93098e+18 5.4591e+18)
(-4.40523e+18 -1.57256e+18 4.79338e+18)
(-2.60665e+18 -1.772e+18 4.85165e+18)
(1.6011e+17 2.26051e+18 5.95254e+18)
(1.91391e+18 6.75524e+17 6.02569e+18)
(3.49234e+18 6.86061e+18 7.39309e+18)
(7.55273e+18 5.30166e+18 6.30752e+18)
(8.40565e+18 7.24759e+18 9.05964e+18)
(9.90887e+18 3.66983e+18 7.22352e+18)
(-3.55835e+18 -9.81512e+17 8.91634e+18)
(-8.01398e+17 -9.03192e+17 7.52346e+18)
(-3.65722e+18 1.08572e+18 6.93071e+18)
(-1.0375e+18 1.95601e+18 6.9699e+18)
(2.06778e+18 3.51608e+18 7.59592e+18)
(3.91934e+18 3.80576e+18 7.87003e+18)
(6.29591e+18 5.07955e+18 7.88236e+18)
(7.05282e+18 5.98885e+18 8.61359e+18)
(9.04708e+18 6.10515e+18 8.93754e+18)
(6.02885e+18 4.47458e+18 1.03345e+19)
(-4.76519e+18 -1.12876e+18 -2.05081e+18)
(-3.32485e+18 -1.93502e+18 -1.83828e+17)
(-1.56219e+18 -2.64001e+18 2.54775e+18)
(-1.19343e+18 -3.13931e+18 3.2773e+18)
(-2.25736e+18 -2.56585e+18 4.04617e+18)
(-2.71169e+18 -2.42434e+18 5.78583e+18)
(4.77901e+17 -8.50102e+17 4.54553e+18)
(3.59527e+18 -2.12623e+18 5.78492e+18)
(5.8296e+18 -1.20824e+18 1.67851e+18)
(6.35123e+18 -1.8098e+18 -1.09594e+18)
(-4.60961e+18 -2.70454e+18 1.22458e+18)
(-6.34735e+18 -2.99779e+18 2.63438e+18)
(-3.97078e+18 -2.91805e+18 4.31953e+18)
(-1.04511e+18 -2.78865e+18 4.68632e+18)
(-8.27421e+17 -2.40082e+18 7.15112e+18)
(7.19804e+17 -2.07754e+18 5.32369e+18)
(1.07412e+18 -1.72592e+17 8.16133e+18)
(2.87898e+18 -7.46566e+17 6.9223e+18)
(6.46247e+18 6.69849e+17 7.35168e+18)
(4.61616e+18 -6.83735e+17 3.92354e+18)
(-6.12923e+18 -1.41823e+18 4.47502e+18)
(-3.75187e+18 -1.08573e+18 4.3055e+18)
(-1.14391e+18 -3.91276e+16 6.03826e+18)
(-1.58971e+17 -1.55203e+17 5.62973e+18)
(-8.35153e+17 3.27472e+17 6.51829e+18)
(1.74477e+18 1.47822e+18 6.18859e+18)
(3.13986e+18 1.52698e+18 6.16447e+18)
(5.28015e+18 3.18556e+18 5.1563e+18)
(5.95527e+18 3.14481e+18 5.31091e+18)
(5.28654e+18 2.61004e+18 2.83878e+18)
(-5.88139e+18 -7.10793e+17 5.16649e+18)
(-3.58914e+18 3.68951e+17 4.91267e+18)
(-2.10972e+18 3.61869e+17 4.83473e+18)
(-3.11913e+17 1.24168e+18 6.1099e+18)
(2.43942e+18 1.48666e+18 4.93407e+18)
(3.11883e+18 3.44715e+18 5.79565e+18)
(4.48881e+18 2.97475e+18 4.9293e+18)
(6.11464e+18 4.78084e+18 4.97218e+18)
(5.31143e+18 3.56693e+18 4.66351e+18)
(6.79454e+18 4.70199e+18 4.22001e+18)
(-2.11802e+18 -8.77621e+16 1.53957e+17)
(6.10661e+18 -1.65384e+18 1.62383e+18)
(2.29909e+17 -3.40513e+18 3.10129e+18)
(-4.99168e+18 -2.47328e+18 2.18387e+18)
(-3.36749e+18 -7.30554e+17 1.91434e+18)
(-2.36763e+18 -1.18338e+18 1.83695e+18)
(1.34074e+17 -5.70844e+17 2.02185e+18)
(3.05108e+18 -1.70818e+17 1.7295e+18)
(3.84323e+18 -2.52389e+17 1.85179e+18)
(2.86499e+18 -7.35078e+17 1.10876e+18)
(-4.238e+18 4.39967e+17 8.0458e+17)
(-5.28135e+17 -1.79164e+18 1.79957e+18)
(-1.40897e+18 -2.41012e+18 2.62308e+18)
(3.5748e+17 -1.99044e+18 2.60014e+18)
(-7.87693e+17 -4.4955e+17 3.06139e+18)
(-2.04821e+18 6.67527e+17 2.61255e+18)
(2.1592e+18 1.1251e+18 2.19639e+18)
(3.68799e+18 6.94999e+17 2.95164e+18)
(2.71471e+18 2.01023e+18 2.4492e+18)
(1.10396e+18 -7.3182e+17 1.78046e+18)
(-3.47178e+18 -8.07941e+16 2.11927e+18)
(4.06435e+17 -2.85717e+17 2.37768e+18)
(-1.67681e+17 -7.48232e+17 3.41874e+18)
(-1.07054e+18 5.05717e+17 2.68275e+18)
(1.94843e+18 -1.28677e+18 3.13388e+18)
(7.8166e+17 1.43066e+18 3.55262e+18)
(1.89017e+17 1.68937e+18 2.83291e+18)
(4.82135e+18 2.18146e+18 2.63048e+18)
(9.89594e+17 2.94652e+18 2.68953e+18)
(-1.99009e+18 4.14418e+18 1.07871e+18)
(-3.59402e+18 -1.60125e+18 1.64048e+18)
(-1.86301e+18 -1.25424e+18 2.29958e+18)
(1.73898e+17 -1.79032e+18 2.17989e+18)
(-7.19602e+17 -3.46798e+17 3.01321e+18)
(1.0622e+18 2.24492e+17 2.05249e+18)
(3.90406e+18 4.31692e+17 2.58283e+18)
(3.66079e+18 1.3667e+18 2.29788e+18)
(6.20229e+18 2.48072e+18 2.32407e+18)
(6.64016e+18 7.33714e+17 2.32527e+18)
(1.6592e+18 5.09598e+18 2.7393e+18)
)
;

boundaryField
{
    inlet
    {
        type            zeroGradient;
    }
    outlet
    {
        type            zeroGradient;
    }
    bottom
    {
        type            zeroGradient;
    }
    top
    {
        type            symmetryPlane;
    }
    side1
    {
        type            symmetryPlane;
    }
    side2
    {
        type            symmetryPlane;
    }
    procBoundary6to5
    {
        type            processor;
        value           nonuniform List<vector> 
20
(
(-4.25698e+18 -4.82133e+18 -7.63741e+18)
(-2.31104e+18 -1.22442e+19 -1.3045e+19)
(-1.05495e+19 -7.28909e+18 -1.47685e+19)
(-4.23106e+19 6.5319e+18 -1.66411e+19)
(3.62565e+18 -1.34735e+19 -9.53335e+18)
(1.02014e+19 -2.36539e+19 -9.24699e+18)
(2.95301e+19 -1.30428e+19 -8.36935e+18)
(-2.10619e+18 5.10331e+17 -8.27644e+18)
(-1.57464e+18 -4.36316e+18 -3.32984e+18)
(5.27775e+17 -1.03818e+19 3.83309e+18)
(-3.16775e+18 -5.73621e+18 1.00065e+19)
(-4.4947e+18 -1.0341e+18 1.17037e+19)
(-3.66663e+18 -2.01281e+18 -6.37313e+17)
(-5.73193e+18 -2.31577e+18 1.71851e+18)
(-6.44672e+18 -4.49843e+17 5.15459e+18)
(-8.41725e+18 -7.45098e+17 4.92382e+18)
(-8.34342e+18 -5.93848e+17 7.96591e+17)
(-6.24648e+18 -1.11476e+18 1.68344e+18)
(-5.09373e+18 -6.07708e+17 1.54722e+18)
(-5.79261e+18 -1.798e+18 1.58478e+18)
)
;
    }
    procBoundary6to7
    {
        type            processor;
        value           nonuniform List<vector> 
20
(
(-6.57838e+18 -1.32324e+19 2.81517e+18)
(5.30181e+18 -1.69429e+19 -2.55476e+17)
(4.27798e+18 -7.67704e+18 -2.22589e+18)
(2.07806e+18 -1.2015e+18 -3.98449e+17)
(4.43638e+18 -1.81455e+19 3.1758e+18)
(2.34032e+18 -2.50086e+19 5.10626e+17)
(8.37929e+18 -7.9058e+18 5.17862e+18)
(8.73991e+18 1.10957e+18 7.52005e+18)
(1.85034e+19 -1.74967e+19 -7.13491e+18)
(5.88576e+18 -1.37384e+19 2.90864e+18)
(5.31861e+18 3.53803e+18 8.58141e+18)
(3.56055e+18 1.31287e+18 1.0496e+19)
(3.25681e+18 -2.07578e+18 -6.7332e+18)
(2.28369e+18 1.375e+17 3.49418e+18)
(4.6484e+18 4.234e+18 1.59248e+18)
(6.91678e+18 4.37005e+18 3.29799e+18)
(1.25064e+18 -1.1329e+18 7.62343e+17)
(-7.50195e+17 -4.17307e+17 1.35164e+18)
(9.99138e+17 3.22413e+18 4.15589e+17)
(-3.15393e+18 4.46516e+18 7.20473e+17)
)
;
    }
    procBoundary6to14
    {
        type            processor;
        value           nonuniform List<vector> 
50
(
(-3.43137e+19 -1.77012e+18 -1.4152e+19)
(-2.26478e+19 -1.16813e+19 -9.1884e+18)
(-1.34229e+19 -8.06316e+18 -5.20203e+18)
(-5.56398e+18 -1.26762e+19 -4.75837e+18)
(-5.13522e+18 -8.20854e+18 -2.53952e+18)
(-7.19436e+18 -1.23331e+19 -1.96492e+18)
(-6.95984e+18 -6.09914e+18 1.11198e+18)
(-1.39742e+18 -1.13085e+19 2.61938e+18)
(4.90482e+18 -2.30087e+19 7.67393e+18)
(1.36498e+19 -1.63976e+19 2.79984e+18)
(-4.41418e+18 -1.03766e+19 -5.72347e+18)
(5.99215e+18 -6.13078e+18 -2.52911e+18)
(7.53202e+17 -7.13573e+18 1.20975e+18)
(2.95604e+18 -3.48917e+18 2.07591e+18)
(3.80381e+18 -2.99684e+18 3.65289e+18)
(4.49042e+18 2.63521e+17 4.8868e+18)
(7.70995e+18 -5.97503e+17 7.47639e+18)
(1.96008e+19 8.5155e+18 9.51754e+18)
(5.48227e+18 3.42192e+18 1.09143e+19)
(-1.34075e+19 6.57823e+17 9.66513e+18)
(-4.92869e+17 -3.66423e+18 1.09535e+19)
(-4.61462e+17 -2.44717e+18 9.38221e+18)
(1.31316e+18 3.44965e+17 8.57888e+18)
(2.25407e+18 2.83191e+18 9.33481e+18)
(3.85963e+18 4.02235e+18 8.30844e+18)
(5.04084e+18 5.34416e+18 9.26356e+18)
(7.85851e+18 7.27663e+18 8.38048e+18)
(9.60395e+18 8.64105e+18 8.66896e+18)
(5.37712e+18 1.96789e+19 4.27537e+18)
(3.24292e+17 6.94603e+18 8.7675e+18)
(-3.90113e+18 -3.70675e+18 4.08768e+18)
(-1.60655e+18 -2.19742e+18 4.08609e+18)
(6.01541e+17 -9.08859e+17 4.24073e+18)
(2.09062e+18 6.71897e+17 4.19048e+18)
(3.5758e+18 1.5951e+18 4.46105e+18)
(4.72095e+18 2.33732e+18 4.07979e+18)
(5.80723e+18 3.06584e+18 3.84394e+18)
(6.46449e+18 3.56224e+18 2.96371e+18)
(5.79759e+18 3.38559e+18 1.95376e+18)
(6.89278e+18 3.43904e+18 3.22715e+18)
(-2.38427e+18 -3.95018e+18 1.56274e+18)
(2.83054e+16 -2.89487e+18 1.36318e+18)
(1.6472e+18 -1.53427e+18 2.07363e+18)
(2.95908e+18 -6.99001e+17 1.68995e+18)
(3.50541e+18 1.52709e+18 2.34502e+18)
(3.06607e+18 1.63852e+18 1.66796e+18)
(4.28707e+18 2.21713e+18 1.82787e+18)
(3.55538e+18 1.69148e+18 1.19291e+18)
(6.22011e+18 1.18912e+18 9.18777e+17)
(5.47281e+18 2.21574e+17 1.32495e+18)
)
;
    }
}


// ************************************************************************* //
