/*--------------------------------*- C++ -*----------------------------------*\
| =========                 |                                                 |
| \\      /  F ield         | OpenFOAM: The Open Source CFD Toolbox           |
|  \\    /   O peration     | Version:  2.4.0                                 |
|   \\  /    A nd           | Web:      www.OpenFOAM.org                      |
|    \\/     M anipulation  |                                                 |
\*---------------------------------------------------------------------------*/
FoamFile
{
    version     2.0;
    format      ascii;
    class       surfaceScalarField;
    location    "0.01";
    object      phib;
}
// * * * * * * * * * * * * * * * * * * * * * * * * * * * * * * * * * * * * * //

dimensions      [0 3 -1 0 0 0 0];

internalField   nonuniform List<scalar> 
82
(
-12068.4
3702.84
1049.56
-12255.8
3511.2
590.549
-10871
2561.84
-54.1313
-8311.93
2245.72
-324.366
855.878
49.8981
-9561.59
1433.46
735.631
-7876.07
1067.82
757.924
-6927.4
1085.73
527.459
-5624.48
730.878
211.902
459.44
257.53
-6926.06
631.581
1127.62
-6983.67
314.88
810.551
-6507.86
-9.33298
619.246
-6312.05
275.243
259.776
527.751
200.633
-4450.97
315.218
-4464.02
327.92
-5064.71
591.334
-5436.93
647.405
269.996
-9855.61
2328.47
-11749.5
3630.06
-14320.3
4435.53
-15484
5213.1
3672.78
-15386.2
4230.36
-15743.1
3666.82
-13896.2
2323.44
-10672.7
1597.02
978.565
-10882
730.088
-7279.64
115.969
-5563.18
462.511
-5005.31
640.747
617.788
-4524.2
-4748.99
-4469.15
-3565.51
)
;

boundaryField
{
    inlet
    {
        type            fixedValue;
        value           nonuniform 0();
    }
    outlet
    {
        type            calculated;
        value           nonuniform 0();
    }
    bottom
    {
        type            fixedValue;
        value           uniform 0;
    }
    top
    {
        type            symmetryPlane;
        value           nonuniform 0();
    }
    side1
    {
        type            symmetryPlane;
        value           nonuniform 0();
    }
    side2
    {
        type            symmetryPlane;
        value           uniform 0;
    }
    procBoundary57to41
    {
        type            processor;
        value           nonuniform List<scalar> 10(-4421.93 -3913.98 -3892.25 -4480.3 -1393.76 -1853.71 -2111.37 -2516.43 -4476.57 -6100.63);
    }
    procBoundary57to56
    {
        type            processor;
        value           nonuniform List<scalar> 8(11739.4 11096 6600.5 4767.38 8992.24 12646.4 14179.5 5162.95);
    }
    procBoundary57to58
    {
        type            processor;
        value           nonuniform List<scalar> 8(-7823.92 -5485.73 -6581.37 -5179.4 -12927.5 -8012.5 -4885.12 -2861.98);
    }
    procBoundary57to121
    {
        type            processor;
        value           nonuniform List<scalar> 
20
(
1438.51
965.842
597.6
102.823
-78.6932
1573.65
1077.97
792.612
604.375
291.328
1330.32
758.948
763.656
658.108
440.946
406.513
668.648
773.942
384.461
184.132
)
;
    }
}


// ************************************************************************* //
