/*--------------------------------*- C++ -*----------------------------------*\
| =========                 |                                                 |
| \\      /  F ield         | OpenFOAM: The Open Source CFD Toolbox           |
|  \\    /   O peration     | Version:  2.4.0                                 |
|   \\  /    A nd           | Web:      www.OpenFOAM.org                      |
|    \\/     M anipulation  |                                                 |
\*---------------------------------------------------------------------------*/
FoamFile
{
    version     2.0;
    format      ascii;
    class       volScalarField;
    location    "0.15";
    object      nut;
}
// * * * * * * * * * * * * * * * * * * * * * * * * * * * * * * * * * * * * * //

dimensions      [0 2 -1 0 0 0 0];

internalField   nonuniform List<scalar> 
200
(
1.16222e+10
1.12763e+10
1.19231e+10
9.36857e+09
1.24206e+10
1.16478e+10
1.10109e+10
8.32274e+09
9.56221e+09
7.41288e+09
1.55704e+10
1.04269e+10
9.29636e+09
1.35206e+10
1.20646e+10
1.21851e+10
9.56777e+09
9.99964e+09
7.19414e+09
7.31672e+09
7.32e+09
1.3912e+10
1.17514e+10
1.02205e+10
1.34456e+10
1.01167e+10
1.09948e+10
9.03805e+09
7.75059e+09
1.15745e+10
7.79687e+09
9.38619e+09
8.44828e+09
1.21988e+10
9.24788e+09
1.11235e+10
9.45605e+09
6.81195e+09
9.5353e+09
5.64135e+09
2.89555e+10
1.71186e+10
1.06508e+10
7.30217e+09
5.14939e+09
6.58785e+09
7.09698e+09
6.82441e+09
5.13277e+09
6.39449e+09
7.64913e+09
1.51483e+10
4.22833e+09
6.34318e+09
5.57481e+09
6.20086e+09
8.01559e+09
8.01465e+09
7.57051e+09
5.92595e+09
2.28749e+10
6.16037e+09
3.11742e+09
4.55423e+09
6.45391e+09
9.38485e+09
8.32706e+09
8.70009e+09
8.85739e+09
6.31467e+09
1.27975e+10
1.31697e+10
7.59736e+09
5.62833e+09
6.78359e+09
6.13489e+09
9.20734e+09
9.62905e+09
6.11989e+09
8.30851e+09
3.54439e+10
2.63858e+10
3.05388e+10
9.76606e+09
1.78487e+10
5.034e+09
5.50155e+09
6.03636e+09
2.15577e+09
5.06042e+09
3.6883e+10
2.6037e+10
1.91671e+10
8.85714e+09
1.05724e+10
4.6091e+09
5.25495e+09
2.79377e+09
5.95936e+09
4.16344e+09
5.04544e+09
2.86504e+10
8.73063e+09
1.62969e+10
5.76105e+09
3.10287e+09
4.01604e+09
6.20977e+09
4.27291e+09
6.12487e+09
2.40186e+10
4.97207e+09
1.64931e+10
4.38574e+09
5.20368e+09
4.9512e+09
4.75086e+09
4.45762e+09
6.04294e+09
8.10511e+09
3.42822e+10
6.30498e+10
1.92652e+10
5.5806e+10
2.75916e+09
7.63108e+10
6.34022e+09
6.56169e+09
6.34448e+09
4.67674e+09
2.68408e+10
3.12614e+10
5.96581e+10
7.57533e+09
3.70553e+10
1.16869e+10
8.03728e+09
8.37904e+09
2.1896e+09
7.53383e+09
2.58271e+10
1.92657e+10
2.89074e+10
2.09136e+10
1.68489e+10
6.92773e+09
8.28802e+09
2.94576e+09
8.27815e+09
7.536e+09
5.51491e+09
2.63907e+10
1.33403e+10
1.73128e+10
6.5167e+09
6.8757e+09
3.68181e+09
7.1612e+09
7.13889e+09
8.10275e+09
5.21252e+10
3.96394e+10
6.2075e+10
4.52958e+10
5.05734e+10
1.0095e+10
7.25759e+10
7.69985e+09
1.41292e+10
7.55524e+09
2.84693e+10
2.20162e+10
2.33702e+10
5.88611e+10
5.87594e+09
3.90458e+10
3.16042e+09
9.67903e+09
9.25732e+09
7.11216e+09
3.74228e+10
2.63328e+10
1.96053e+10
1.61963e+10
1.70419e+10
6.17499e+09
5.60692e+09
7.76442e+09
4.22186e+09
6.81699e+09
2.08613e+10
2.22062e+10
1.64239e+10
1.77143e+10
1.42057e+10
4.65007e+09
8.43122e+09
3.75157e+09
7.91448e+09
1.09797e+10
)
;

boundaryField
{
    inlet
    {
        type            calculated;
        value           nonuniform 0();
    }
    outlet
    {
        type            calculated;
        value           nonuniform 0();
    }
    bottom
    {
        type            calculated;
        value           nonuniform List<scalar> 
40
(
1.16004e-14
2.62704e-14
8.54609e-15
2.18604e-14
1.83174e-14
1.0492e-14
2.0895e-14
9.6419e-15
1.48517e-14
1.61607e-14
1.21906e-14
1.44022e-14
1.57549e-14
1.51658e-14
1.40054e-14
1.17403e-14
1.44043e-14
1.49091e-14
1.25162e-14
1.30448e-14
1.53066e-14
1.1474e-14
1.20567e-14
9.61271e-15
1.05675e-14
1.15779e-14
9.19457e-15
1.50191e-14
1.31684e-14
8.5121e-15
1.23331e-14
7.12594e-15
8.63587e-15
1.18051e-14
7.04393e-15
1.66969e-14
1.38502e-14
6.61987e-15
1.54484e-14
5.62035e-15
)
;
    }
    top
    {
        type            symmetryPlane;
    }
    side1
    {
        type            symmetryPlane;
    }
    side2
    {
        type            symmetryPlane;
    }
    procBoundary9to1
    {
        type            processor;
        value           nonuniform List<scalar> 
50
(
1.28202e+10
7.58928e+09
8.70673e+09
1.21636e+10
1.20399e+10
1.12629e+10
1.0346e+10
1.07791e+10
7.34759e+09
1.08617e+10
3.02483e+10
1.62072e+10
1.95725e+10
7.17737e+09
9.96897e+09
6.64771e+09
6.99682e+09
5.27972e+09
7.93433e+09
4.20833e+09
2.98848e+10
4.96536e+10
2.73867e+10
2.88421e+10
1.45309e+10
2.19582e+10
5.49275e+09
7.57537e+09
4.27112e+09
1.50522e+09
4.90533e+10
7.14258e+10
6.46971e+10
5.37541e+10
1.84023e+10
8.38183e+09
6.72423e+10
7.19106e+09
7.49482e+09
4.69779e+09
8.69103e+10
6.52259e+10
4.53281e+10
3.55541e+10
5.17258e+10
7.32365e+10
2.92727e+10
5.71862e+10
1.04864e+10
7.19555e+09
)
;
    }
    procBoundary9to8
    {
        type            processor;
        value           nonuniform List<scalar> 
20
(
1.0283e+10
7.71334e+09
1.41308e+10
9.26843e+09
1.54752e+10
2.02095e+10
6.71734e+09
1.13862e+10
4.70138e+10
1.52375e+10
2.55497e+10
6.33812e+09
4.89864e+10
2.91226e+10
1.98767e+10
2.24829e+10
2.79703e+10
5.30732e+10
2.7361e+10
1.48102e+10
)
;
    }
    procBoundary9to10
    {
        type            processor;
        value           nonuniform List<scalar> 
20
(
7.87333e+09
8.66485e+09
6.81594e+09
7.97828e+09
5.31696e+09
6.22433e+09
6.35192e+09
6.72553e+09
4.92219e+09
5.02793e+09
6.09851e+09
7.39104e+09
6.46175e+09
6.49864e+09
4.65856e+09
1.73561e+10
5.96797e+09
7.27912e+09
7.97078e+09
4.97762e+09
)
;
    }
    procBoundary9to17
    {
        type            processor;
        value           nonuniform List<scalar> 
50
(
1.78045e+10
1.06256e+10
9.39608e+09
8.02925e+09
8.64427e+09
9.10018e+09
6.50329e+09
8.94358e+09
6.14503e+09
9.39203e+09
1.31765e+10
1.24257e+10
7.60793e+09
4.52827e+09
3.55174e+09
8.84241e+09
8.69412e+09
5.12638e+09
1.00688e+10
8.2573e+09
9.56203e+09
1.74869e+10
6.72948e+09
1.25101e+10
2.6012e+09
4.38971e+09
3.49934e+09
5.98688e+09
7.66697e+09
8.88133e+09
2.14801e+10
1.86609e+09
1.77053e+10
5.26275e+09
3.39506e+09
4.29825e+09
4.04572e+09
1.00912e+10
1.046e+10
1.81531e+10
1.75313e+10
2.53774e+10
1.33273e+10
9.5729e+09
4.83001e+09
1.1801e+10
5.56724e+09
1.06434e+10
9.0018e+09
4.31292e+09
)
;
    }
}


// ************************************************************************* //
