/*--------------------------------*- C++ -*----------------------------------*\
| =========                 |                                                 |
| \\      /  F ield         | OpenFOAM: The Open Source CFD Toolbox           |
|  \\    /   O peration     | Version:  2.4.0                                 |
|   \\  /    A nd           | Web:      www.OpenFOAM.org                      |
|    \\/     M anipulation  |                                                 |
\*---------------------------------------------------------------------------*/
FoamFile
{
    version     2.0;
    format      ascii;
    class       volVectorField;
    location    "0.01";
    object      Ur;
}
// * * * * * * * * * * * * * * * * * * * * * * * * * * * * * * * * * * * * * //

dimensions      [0 1 -1 0 0 0 0];

internalField   nonuniform List<vector> 
200
(
(-3.01648 0.959337 1.01362)
(-4.0759 -0.406014 -4.79762)
(-4.78545 0.757963 -0.339749)
(-4.17448 1.0136 0.274345)
(-3.77904 1.02479 0.504153)
(-4.28636 1.02216 0.390952)
(-2.39255 1.01531 -0.401629)
(-8.18267 1.4358 -0.698522)
(-2.27968 1.05307 0.852208)
(-3.1744 0.964343 0.124636)
(-2.99767 1.01147 0.63635)
(-3.58207 -1.03602 -13.1283)
(-4.39936 0.806325 -0.594534)
(-4.06886 0.989818 0.35712)
(-3.73579 1.00633 0.5274)
(-4.26226 1.07072 0.389935)
(-2.44653 1.00574 -0.358452)
(-8.03498 1.88978 -0.76443)
(-2.33442 1.15996 0.785975)
(-3.22715 0.968578 0.113844)
(-2.67762 0.77599 1.10735)
(-4.75248 2.9821 -14.5656)
(-4.8753 1.75717 -1.49146)
(-4.26943 1.12736 0.671173)
(-3.73597 1.08053 0.752529)
(-4.12768 1.2278 0.359487)
(-2.64746 1.07797 -0.284422)
(-7.85977 2.37544 -0.786667)
(-2.48845 1.5013 0.671348)
(-3.23782 1.02099 0.0972841)
(-3.6278 1.29633 0.684518)
(-4.02151 1.34676 -1.03726)
(-5.39336 1.43872 -0.78393)
(-3.80462 1.10168 0.0270926)
(-3.5394 1.03358 0.433062)
(-3.6554 1.20157 0.262813)
(-3.39454 1.35293 0.0416366)
(-5.31008 1.57415 -0.140273)
(-2.93486 1.35001 -0.0642411)
(-3.41193 1.02039 0.0112939)
(-3.47172 1.29846 4.58606)
(-3.77652 1.40497 6.38135)
(-3.67138 1.19369 3.28314)
(-3.83965 1.12963 -4.79746)
(-4.1028 1.12853 -1.79029)
(-3.96335 1.08682 1.82445)
(-4.37088 1.03927 0.991024)
(-3.60443 1.05834 1.72303)
(-3.26498 0.83178 -9.65562)
(-3.32373 0.929778 -1.30329)
(-2.98145 1.2576 3.92958)
(-3.51663 1.43679 5.07701)
(-4.01846 1.26487 3.14685)
(-4.17083 1.20375 -3.64851)
(-4.20958 1.17547 -1.27299)
(-4.04073 1.11422 1.88468)
(-4.40428 1.09535 1.07822)
(-3.69004 1.12992 1.74013)
(-3.33963 0.897153 -9.23774)
(-3.40356 0.934668 -1.30407)
(-2.80582 1.16462 5.25932)
(-3.54531 1.30578 6.18315)
(-4.02023 1.20403 5.76329)
(-4.4269 1.11247 -8.77653)
(-4.31499 1.08479 -2.86406)
(-4.03684 1.0823 1.86205)
(-4.3935 1.16675 0.98118)
(-3.75379 1.34212 1.91654)
(-3.45107 0.974514 -8.97562)
(-3.51661 0.970152 -1.40111)
(-2.76587 0.87762 4.55234)
(-3.56351 1.11456 7.48688)
(-4.03188 1.02574 2.19666)
(-4.31371 0.96854 -4.81437)
(-4.23764 0.925954 -2.40542)
(-4.0406 0.999217 2.60883)
(-4.10394 1.11016 3.74287)
(-3.92708 1.21893 -0.270365)
(-3.82501 1.04146 -2.42042)
(-3.78004 0.970348 -0.332734)
(-4.28239 0.752496 0.778385)
(1.86532 0.330998 -7.51172)
(-2.70235 1.58692 -2.85547)
(-3.9712 1.57984 -0.535459)
(-4.50827 1.30972 -0.224264)
(-4.02857 1.14921 -0.226498)
(-5.19019 1.11797 -0.370716)
(0.139078 1.12271 -10.1455)
(-4.57187 0.871155 0.881742)
(-4.76334 0.903658 0.137706)
(-4.32439 0.877932 -1.60325)
(0.175192 2.16884 -5.11123)
(-1.17091 1.6281 -1.48905)
(-3.62791 1.86844 -2.19611)
(-5.82792 1.60514 -1.10068)
(-4.60706 1.18009 -0.220089)
(-5.52307 1.14195 -0.25593)
(-0.423035 1.24239 -9.70431)
(-4.67956 0.814785 0.729639)
(-4.81107 0.863953 0.10078)
(-4.96052 0.255999 -1.00263)
(0.999787 1.42041 -3.90041)
(-0.408302 1.61049 -1.30788)
(-3.57833 1.32999 -1.912)
(-6.30246 1.21465 -1.00536)
(-4.966 0.815045 -0.254117)
(-5.6049 0.951737 -0.119926)
(-0.839298 1.04892 -8.94708)
(-4.58393 0.522375 0.42734)
(-4.78733 0.766659 0.0246139)
(-2.79417 0.659311 -0.475109)
(-1.83037 0.558694 4.07604)
(1.06571 0.297375 0.22018)
(-3.88322 0.460462 -2.58706)
(-6.35025 0.728299 -1.15062)
(-5.48291 0.608376 -0.230438)
(-4.59582 0.745844 -0.155883)
(-3.23889 0.690827 -0.441771)
(-4.42259 0.542608 -0.172271)
(-4.33153 0.737984 -0.133146)
(-3.39733 1.35622 -3.41931)
(-4.01079 0.548625 2.84805)
(-5.88373 -3.15224 27.576)
(-3.25611 1.00487 -1.651)
(-3.50801 0.843202 -1.79972)
(-2.83671 0.961841 -1.82926)
(-2.7939 0.974864 -1.74786)
(-3.5878 0.897273 -0.33413)
(-4.2185 0.905079 -0.266848)
(-4.08145 0.995705 -0.423164)
(-3.82058 0.903039 -0.465245)
(-4.09551 0.91859 -7.3236)
(-7.12328 2.93367 16.3928)
(-1.6725 -0.33407 28.6482)
(-4.24157 0.421683 -0.582076)
(-2.82817 0.960073 -1.58841)
(-3.01329 0.939846 -1.24827)
(-3.67311 0.879158 -0.309073)
(-4.22043 0.90219 -0.299126)
(-4.08683 1.00236 -0.470585)
(-3.92468 0.880512 -0.825718)
(-4.48027 0.0698695 -6.98235)
(-7.32754 1.57731 23.178)
(0.21881 1.6319 32.198)
(-4.47015 0.653252 -0.234862)
(-2.77749 0.969534 -1.40989)
(-3.14989 0.848295 -1.15754)
(-3.66981 0.595493 -0.340091)
(-4.13195 0.81115 -0.291334)
(-4.03062 0.995373 -0.529593)
(-4.01781 0.911339 0.62237)
(-3.84159 1.26243 -3.58095)
(-4.29305 0.583522 15.0798)
(-1.66416 -1.54727 37.6942)
(-4.38605 1.10596 0.173848)
(-2.83461 1.11654 -2.01717)
(-3.54862 0.926998 -1.47699)
(-3.58035 0.61876 -0.362574)
(-3.8353 0.809343 0.18233)
(-3.91005 0.953244 -0.476643)
(-4.62191 0.617483 -0.502068)
(-5.17333 1.26468 -0.54261)
(-3.09343 3.0726 -5.77689)
(-0.981155 -1.46774 -3.7453)
(-1.56378 -1.28298 -2.47593)
(-2.49847 0.547934 -1.01537)
(-2.91926 0.811762 -0.539305)
(-3.14582 0.863777 -0.412324)
(-3.24266 0.910224 -0.208872)
(-3.39334 0.931589 -0.0860841)
(-4.18442 0.715349 -0.761973)
(-6.598 -1.06999 2.72746)
(-4.08777 -1.80517 -12.654)
(-1.00885 -0.369471 -12.3232)
(-0.651121 -0.286571 -3.54508)
(-2.52751 0.784998 -0.789023)
(-2.8144 0.934884 -0.460135)
(-3.09007 0.939049 -0.466135)
(-3.17492 0.962037 -0.207888)
(-3.35878 0.963932 -0.0737751)
(-4.45453 0.955607 -0.635358)
(-5.87076 -0.882152 1.28463)
(-8.10836 -9.96056 -10.7203)
(-2.25473 -0.580896 -12.2528)
(-2.30275 0.740145 -1.77699)
(-2.74224 1.01748 -0.552549)
(-2.95373 1.03455 -0.375733)
(-3.21327 0.979344 -0.426864)
(-3.18987 0.985343 -0.176729)
(-3.36423 0.992645 -0.0517761)
(-4.48617 1.3387 -0.506623)
(-4.76225 0.554737 -0.875695)
(-5.95795 0.747835 -0.712522)
(-3.30705 0.706443 -6.64895)
(-1.71336 1.06089 -1.77883)
(-2.70166 1.05692 -0.598422)
(-2.91896 1.06047 -0.373921)
(-3.27461 0.98863 -0.367267)
(-3.16856 1.01392 -0.173402)
(-3.31292 1.0474 -0.0760391)
)
;

boundaryField
{
    inlet
    {
        type            calculated;
        value           nonuniform 0();
    }
    outlet
    {
        type            calculated;
        value           nonuniform List<vector> 
20
(
(-5.49973 0.0254818 0.234167)
(-5.55255 0.0296078 0.223406)
(-5.56329 0.0819313 0.206872)
(-5.73744 0.081252 0.120902)
(-5.64902 -0.00904566 -1.19377)
(-5.72893 -0.00426783 -1.19452)
(-5.84205 0.0311244 -1.29153)
(-6.10553 0.0312441 -0.223137)
(-7.0886 -0.0351283 0.247213)
(-7.1364 -0.074947 0.210319)
(-7.11273 -0.172336 0.134179)
(-6.65699 -0.201089 -0.0235583)
(-6.40667 0.0569565 -0.31367)
(-6.41213 0.0634993 -0.361057)
(-6.35599 0.0564114 -0.420039)
(-6.23547 0.0142018 -0.367066)
(-5.71852 -0.00712101 0.0223585)
(-5.68404 0.0251021 0.0346836)
(-5.68956 0.0537163 0.0566925)
(-5.63831 0.108388 0.0324345)
)
;
    }
    bottom
    {
        type            calculated;
        value           uniform (0 0 0);
    }
    top
    {
        type            symmetryPlane;
    }
    side1
    {
        type            symmetryPlane;
    }
    side2
    {
        type            symmetryPlane;
    }
    procBoundary23to15
    {
        type            processor;
        value           nonuniform List<vector> 
50
(
(-2.96845 0.995704 0.950593)
(-3.86421 0.456512 -3.61976)
(-5.03259 0.733145 -0.275629)
(-4.2997 0.886723 0.320941)
(-3.75154 0.927803 0.550455)
(-4.257 0.940925 0.394997)
(-2.35846 1.02192 -0.419271)
(-8.17911 0.937942 -0.606887)
(-2.26874 0.90693 0.891086)
(-3.14415 0.945635 0.127098)
(-3.69699 1.09957 4.48006)
(-3.786 0.934376 5.48327)
(-3.71958 0.89863 3.72961)
(-3.73217 0.620312 -6.73188)
(-4.13623 0.905955 -2.5169)
(-3.92722 0.989085 1.81929)
(-4.35855 0.957158 0.907444)
(-3.56212 0.970876 1.63246)
(-3.21472 0.793492 -9.93141)
(-3.28578 0.921667 -1.34981)
(-3.69457 0.915345 -0.499048)
(-2.38408 0.923179 -2.59544)
(-2.35122 0.681003 -2.83208)
(-4.10438 0.849659 -0.311489)
(-4.19929 0.956257 -0.0127891)
(-3.93182 0.947186 -0.118793)
(-5.13159 1.01183 -0.308241)
(0.153047 0.817091 -10.3798)
(-4.49864 0.868818 0.997923)
(-4.75141 0.956402 0.087104)
(-3.78499 1.02621 -1.23274)
(-3.95355 1.44368 -1.27378)
(-5.43161 1.71045 14.6555)
(-2.85008 0.487945 0.0861275)
(-3.41146 0.801648 -1.55815)
(-3.07832 0.853717 -1.14504)
(-2.94318 0.961117 -1.2717)
(-3.71598 0.898911 -0.198648)
(-4.3061 0.91318 -0.277136)
(-4.10312 0.965733 -0.281142)
(-3.68016 1.02135 0.347512)
(-6.0954 -1.76971 2.46242)
(-3.99923 1.4186 -5.58178)
(-2.87058 1.23954 -4.39553)
(-1.70269 0.935872 -2.87537)
(-2.64374 0.698316 -0.850566)
(-3.00531 0.755058 -0.422772)
(-3.20767 0.809223 -0.396792)
(-3.31622 0.866108 -0.195997)
(-3.44319 0.927189 -0.105101)
)
;
    }
    procBoundary23to22
    {
        type            processor;
        value           nonuniform List<vector> 
20
(
(-3.22201 0.959292 1.01436)
(-3.27719 0.905005 0.398611)
(-3.34006 1.03188 0.398046)
(-3.11705 1.02448 0.761747)
(-3.70142 1.00976 -2.15464)
(-3.50516 1.03363 -2.18173)
(-3.42875 0.879746 -2.23131)
(-3.47139 0.787379 -2.2134)
(-3.11961 0.97424 -0.945929)
(-2.93264 1.0996 -1.00581)
(-2.8566 1.08691 -1.35428)
(-3.17234 0.635919 -0.819682)
(-3.85693 1.27711 -2.62028)
(-3.78376 1.00868 -1.25178)
(-3.95132 0.951561 -1.05337)
(-3.74904 1.00453 -1.10114)
(-4.13508 0.981986 -0.521808)
(-4.98666 0.759046 -0.339026)
(-4.84324 1.13568 -0.539214)
(-4.48703 1.38105 -0.481735)
)
;
    }
    procBoundary23to31
    {
        type            processor;
        value           nonuniform List<vector> 
50
(
(-3.7488 0.985983 0.989798)
(-4.07665 1.11529 -1.75545)
(-5.96157 1.00114 -0.89948)
(-4.02517 0.697847 0.119118)
(-3.43766 0.825415 0.511195)
(-3.4171 0.942534 0.226836)
(-3.41766 0.946962 -0.00630717)
(-4.63126 1.0278 -0.105014)
(-3.20915 0.964784 -0.073687)
(-3.37193 0.917667 0.000901191)
(-3.14151 0.978447 3.9528)
(-3.71264 0.993314 7.38895)
(-3.97636 0.740522 3.90256)
(-4.37192 0.503971 -8.80202)
(-4.18031 0.814617 -3.95982)
(-3.93878 0.919208 2.47903)
(-4.04842 0.968602 3.7408)
(-3.94011 0.941709 0.0957794)
(-3.87528 0.911009 -2.40448)
(-3.80891 0.930816 -0.538701)
(-2.45835 0.716009 -0.0590399)
(-3.16303 1.28144 0.253)
(4.63298 -0.956291 2.50937)
(-2.7203 -0.40567 -2.20413)
(-5.6223 0.576956 -0.65852)
(-5.02041 0.769046 -0.171866)
(-4.36303 0.931034 -0.0131857)
(-3.27534 0.951134 -0.444187)
(-4.37622 0.816769 -0.198479)
(-4.32079 0.852062 -0.164799)
(-3.59706 1.16502 -0.807321)
(-3.81451 1.11385 -1.21741)
(-4.11777 1.63997 -1.9308)
(-3.07063 0.721426 33.0471)
(-4.32901 1.33262 0.611576)
(-3.30736 1.13547 -1.75597)
(-3.66366 1.1279 -1.31417)
(-3.74316 1.0455 -0.297459)
(-3.8196 1.00532 -0.207153)
(-3.9561 1.04637 -1.05247)
(-4.75451 0.989188 -0.489125)
(-4.13372 0.835627 -0.00166876)
(-6.66378 -1.24188 -0.510989)
(-3.74129 3.03426 -6.53995)
(-1.99811 1.72745 -1.75697)
(-2.71114 1.19353 -0.520496)
(-3.01093 1.07625 -0.307238)
(-3.27916 1.0345 -0.256344)
(-3.16548 1.03327 -0.154028)
(-3.35111 1.02426 -0.0478331)
)
;
    }
}


// ************************************************************************* //
