/*--------------------------------*- C++ -*----------------------------------*\
| =========                 |                                                 |
| \\      /  F ield         | OpenFOAM: The Open Source CFD Toolbox           |
|  \\    /   O peration     | Version:  2.4.0                                 |
|   \\  /    A nd           | Web:      www.OpenFOAM.org                      |
|    \\/     M anipulation  |                                                 |
\*---------------------------------------------------------------------------*/
FoamFile
{
    version     2.0;
    format      ascii;
    class       volSymmTensorField;
    location    "0.04";
    object      B;
}
// * * * * * * * * * * * * * * * * * * * * * * * * * * * * * * * * * * * * * //

dimensions      [0 2 -2 0 0 0 0];

internalField   nonuniform List<symmTensor> 
200
(
(0.977776 -0.0286373 -0.414432 0.853648 -0.00670713 0.902733)
(1.40001 0.0268856 -0.481804 1.20347 -0.0108643 1.27486)
(0.222837 -0.202364 -0.330155 0.28445 0.03415 0.366182)
(1.3004 -0.108382 -0.420559 0.971881 -0.0735867 1.17469)
(3.84758 0.0759771 -0.616809 3.25765 0.0685147 3.63072)
(3.02849 -0.017803 -0.681788 3.13497 -0.149081 3.86331)
(-0.216708 -0.0898963 0.494276 0.509873 -0.325954 1.03724)
(1.71959 -1.04231 -2.39869 2.00776 -0.849853 2.21468)
(16.6502 -2.15472 8.36121 12.2331 0.880778 12.5145)
(26.6648 1.96485 2.23003 25.3791 -4.18968 31.9551)
(0.777341 -0.0546489 -0.48787 0.775441 -0.0105946 0.804235)
(0.675589 -0.0590698 -0.369531 0.645581 -0.0120168 0.733039)
(1.56905 -0.00280982 -0.475904 1.8953 -0.0480599 1.73022)
(1.57759 -0.345281 -0.518416 0.223864 -0.201745 1.16495)
(1.53717 -0.119197 -0.502514 0.949778 -0.0920648 1.25175)
(1.6139 0.166214 -0.277142 1.74062 0.0201198 1.73583)
(1.51953 0.150086 -0.925354 2.17645 0.240897 1.91899)
(-0.131686 -0.3416 -0.287429 0.19189 -0.27255 -0.106869)
(3.84389 -0.843975 -1.3292 4.13929 0.325347 3.29051)
(7.16033 -0.787892 -1.66321 8.2995 -2.47379 7.54152)
(0.704444 -0.0811163 -0.438033 0.740615 -0.0119047 0.769788)
(1.77822 0.239026 -0.435643 1.58848 -0.0243899 1.68607)
(3.06552 -1.17339 -0.916773 3.2828 0.128922 3.23839)
(1.59938 -0.548436 -0.366428 1.63495 -0.257068 1.53967)
(5.96162 0.98292 -0.226739 5.08822 -0.291704 5.24598)
(1.99578 0.682375 -1.09654 0.853307 0.0632952 0.619375)
(9.3075 0.0899806 -0.397912 10.1131 -0.391059 10.944)
(4.91758 -0.179893 -1.10564 8.01208 0.491657 6.85703)
(5.53252 -0.112449 -0.725918 5.16756 2.0235 5.41206)
(3.6323 -0.714305 -1.48012 1.97739 -0.105411 2.13382)
(0.708062 -0.107336 -0.371199 0.70401 -0.0220514 0.751623)
(1.13208 -0.0105625 -0.462806 1.05056 -0.0404166 1.09883)
(0.495479 0.0556517 -0.653537 0.158993 -0.0664152 0.694974)
(1.90395 -0.354114 -0.679332 3.73217 0.0488222 2.86652)
(5.52825 -0.452901 -0.919354 8.47071 -0.360338 6.23003)
(8.71309 0.641074 -0.246449 3.72486 -0.403738 7.5004)
(9.95345 2.28341 -0.651775 6.68226 0.737106 8.33869)
(12.8889 -0.923434 4.57644 14.5216 1.64269 14.5119)
(19.7195 -1.88774 -1.22925 22.3624 0.160121 23.5604)
(49.6346 0.0885451 -4.75369 51.8414 1.08307 52.3479)
(0.0540993 -0.0141017 0.0246338 0.0510544 0.00167423 0.0789938)
(-0.0231305 0.0125548 0.0192165 0.00907768 -0.00142582 0.068895)
(0.749235 0.0853551 -0.0650359 0.715351 0.00405086 0.818105)
(-0.208479 0.0908851 0.0652208 0.541069 0.0517065 0.454022)
(4.5637 -0.338069 0.772219 4.82017 -0.0628149 4.66997)
(20.6311 -0.826953 0.296779 18.1764 -0.463784 18.9288)
(5.15349 0.351593 -1.64662 5.56871 -0.191606 6.42716)
(2.82716 1.15163 -1.21652 5.54796 0.0897851 6.31588)
(3.6068 0.631413 0.0968838 5.04401 0.0425178 6.17747)
(7.05309 -0.0690744 -3.41698 7.17964 0.294089 -0.31677)
(0.0483295 -0.0108657 0.0282039 0.0581988 0.00223719 0.0721901)
(0.0316648 0.00124125 0.0272317 0.0567062 -0.00600228 0.0821414)
(0.0576464 0.0180016 -0.0141152 0.0916235 0.00191816 0.137472)
(0.198281 -0.00332396 -0.101182 0.101427 0.0165916 0.252002)
(-0.163526 0.0472341 -0.021174 -0.151019 0.038637 -0.0190652)
(4.88777 0.234854 0.433143 5.7312 -1.42471 5.50418)
(2.77526 0.228712 -0.362692 0.738763 0.848305 2.53993)
(4.32132 -0.132887 -1.32444 6.74762 1.35686 7.75876)
(0.9073 0.124445 -0.0685146 2.13303 0.302492 2.52132)
(13.018 0.291479 9.76622 12.2019 -1.44051 14.4885)
(0.039783 -0.0145259 0.0304562 0.0317561 -0.00250403 0.0478251)
(0.0385681 0.00656066 0.00844343 0.0471568 -0.00654626 0.0807946)
(0.130573 0.057599 -0.0624241 0.037539 -0.0511616 0.26114)
(0.912312 -0.0485395 0.16317 0.535994 0.560426 1.27718)
(1.20216 -0.142865 -0.800897 1.59019 0.104007 1.742)
(39.8243 -3.90206 3.67503 39.5831 -0.0171595 39.5744)
(5.48698 0.636497 1.28449 6.18758 -0.132839 6.33866)
(26.5061 4.22271 -3.50995 29.1535 0.649607 29.1383)
(6.19041 -0.194692 -2.13151 7.28461 0.477274 7.51445)
(30.2976 -1.92545 5.35128 27.8245 2.35436 28.7552)
(0.0996002 -0.0196451 0.0295675 0.0784888 -0.00187281 0.0957464)
(0.358819 -0.0323417 0.0284733 0.305044 -0.0143978 0.370187)
(0.142981 -0.032804 -0.0344775 0.108391 -0.0128722 0.212178)
(0.107589 0.114543 -0.0714099 0.000880504 0.0469083 0.293611)
(1.65414 0.346414 0.333636 1.04811 0.506755 1.91583)
(0.935847 0.238442 0.0211181 0.78202 0.247771 1.09826)
(32.54 0.0802552 0.0724172 35.1649 -0.758231 33.451)
(0.456229 0.135735 -0.213892 0.678969 -0.452061 1.08111)
(8.65099 -0.742458 2.14002 7.66205 0.971702 5.46197)
(6.46427 0.428071 1.08532 8.45469 1.29395 8.93934)
(0.247365 -0.00909422 0.0681921 0.233618 -0.00134154 0.239319)
(0.199962 -0.00518816 0.0569171 0.175075 0.00317251 0.231308)
(-0.00684541 0.0112399 0.0356568 0.0766951 -0.0244852 0.149759)
(0.452796 0.0471408 -0.170645 0.590701 -0.042327 0.666139)
(0.214395 0.0430359 -0.097207 0.251053 -0.0476043 0.243259)
(0.904444 -0.0278523 0.996027 1.4867 0.69594 0.239672)
(5.4675 -0.162749 1.47727 6.02508 -0.0885897 5.47402)
(9.35472 1.91178 0.865217 15.7228 -1.16756 20.7288)
(0.905185 0.279855 -1.86298 4.31068 -0.327711 2.02061)
(46.3035 -0.408728 -14.7281 45.4999 0.967662 40.4766)
(0.22926 -0.0301618 0.0694981 0.212723 -0.0126149 0.244583)
(0.157152 0.0001797 0.0595137 0.123985 -0.00101351 0.208885)
(0.0438797 0.0456905 0.0276343 0.131422 -0.0221631 0.172508)
(-0.151111 0.0773252 -0.260125 0.26814 -0.0135805 0.459344)
(1.32821 0.460442 0.572994 -0.111716 0.399103 0.964851)
(-0.604672 0.654506 -0.0397395 0.0145802 0.783 0.421445)
(10.4663 0.3684 1.78084 9.49565 -0.138503 8.35872)
(3.3672 0.670002 3.11784 6.00096 -1.0518 2.94212)
(1.36447 0.572661 -1.03244 7.23619 0.153463 8.1258)
(12.8573 0.0434707 -2.26259 14.8745 0.222608 15.3225)
(0.272931 -0.0767356 0.0668111 0.267295 -0.0155907 0.273754)
(0.171303 0.0178272 0.04389 0.134396 0.00800657 0.217975)
(0.127179 0.131889 0.0661967 0.183707 0.00721683 0.337167)
(0.134701 -0.0999367 0.0243443 0.0959422 0.0375768 0.324644)
(0.369619 0.0514811 0.61125 0.218175 0.385694 0.705953)
(3.51461 0.444679 0.179499 3.36907 0.0205463 4.4357)
(4.38198 0.583638 -0.128412 4.74536 0.793173 4.33384)
(0.506679 0.0632744 0.264476 0.566022 -0.0466544 0.795737)
(-0.00708918 0.295973 0.0132422 0.576671 -0.0328655 0.719476)
(4.1867 0.205316 0.258601 5.01714 0.532035 5.55137)
(0.514764 -0.105693 0.0973438 0.475911 0.0194698 0.485086)
(0.158419 -0.00684589 0.0776132 0.196824 -0.0672092 0.152165)
(-0.0216639 0.143434 0.0387581 -0.0477964 0.0342451 0.282865)
(0.781476 -0.0294532 0.156569 0.699428 -0.122904 0.983334)
(4.6611 -0.368021 0.0996702 1.18442 0.382611 4.06779)
(2.77397 0.570726 0.108445 2.53453 0.250291 2.86831)
(3.34661 0.915009 0.562219 4.01552 -0.0783083 4.62638)
(1.77183 0.265878 0.354925 1.85644 0.286809 2.76864)
(5.72374 0.453746 0.84939 5.17792 0.648921 8.20492)
(5.18315 1.09782 -0.0933638 3.96251 2.0424 3.74967)
(0.219213 0.012061 0.0718832 0.205516 0.0140208 0.190385)
(0.382979 -0.0176666 0.0736453 0.372529 0.00999059 0.368329)
(0.185109 -0.0366353 0.0277992 0.0696331 0.01914 0.0520278)
(0.110664 0.0811613 0.0449417 0.0339216 0.0190506 0.0486365)
(-0.158999 0.0767779 0.388123 0.485074 -0.0766341 0.488715)
(2.50803 0.530251 -0.130907 1.43923 -0.599715 1.70935)
(5.59465 -1.06748 6.02763 11.1816 -0.194257 9.76723)
(30.7735 -1.68562 -1.70705 28.5222 -4.06407 25.4461)
(47.6036 1.3823 -9.73346 46.9673 3.08247 44.2737)
(14.5983 1.84677 2.02041 24.1627 2.44581 22.8341)
(0.592435 -0.034724 0.158086 0.52558 0.0145689 0.535531)
(0.145918 0.015149 0.0506913 0.0977873 0.00317437 0.126494)
(0.0378726 0.0358346 0.0659567 0.137842 0.0207964 0.0289774)
(0.211828 0.00187908 -0.172874 0.289322 0.181947 0.122439)
(0.0541276 0.177908 -0.0662879 -0.601733 0.0981822 0.150541)
(1.48882 0.822702 -0.364078 0.301654 0.615105 -0.160491)
(4.18066 3.05415 -3.43118 7.89464 2.86428 7.79698)
(21.1468 1.47551 1.06167 22.5549 -0.670271 21.0115)
(39.5875 -1.08064 5.34996 44.5072 1.40815 39.5285)
(2.1605 -0.477376 -0.408004 5.79428 1.25837 4.49189)
(0.697244 -0.072873 0.140068 0.712317 -0.0202263 0.69356)
(0.564304 0.0265251 0.109938 0.276747 -0.0523316 0.498899)
(0.178725 0.0988037 0.0399336 0.0472885 0.0555223 0.141065)
(0.22079 -0.166824 0.202227 0.316744 0.186536 -0.00231445)
(1.94824 -0.12963 0.827751 1.94023 0.604269 2.04392)
(9.69968 1.09937 2.40773 8.69617 -0.374805 6.93428)
(3.90535 0.600013 0.200382 3.5848 0.174731 3.57943)
(13.5283 1.6722 -0.808022 15.1648 2.47219 15.4908)
(2.07304 0.847884 -0.112227 2.9545 0.926483 3.58445)
(12.1362 2.7323 4.32254 17.4495 2.01942 16.8326)
(1.08528 -0.270936 -0.0257958 1.09607 0.0109048 1.12944)
(1.51953 -0.0670483 0.151958 1.30283 -0.0229154 1.41891)
(2.97535 0.369168 0.349089 2.68399 -0.0296153 2.87525)
(0.0522055 0.181727 0.266797 -0.0497779 0.0407672 0.269665)
(2.36826 0.448701 0.839506 2.41997 0.758198 1.98933)
(5.37466 0.196727 0.7572 0.761149 0.533732 3.83295)
(10.7525 1.28864 1.5527 8.56843 -0.541447 9.76713)
(14.5485 1.85871 1.88716 12.4629 0.459366 13.9067)
(16.5215 1.91426 1.97754 16.3914 1.89828 17.5296)
(3.35168 1.48397 0.873921 4.91325 1.1562 6.44989)
(0.0952406 0.00447365 0.0279727 0.0844729 -0.00483468 0.0774055)
(0.427067 0.0230319 0.0578603 0.310826 -0.000302016 0.269098)
(0.417133 0.0438839 0.0438717 0.388663 0.0306225 0.13664)
(0.447061 0.0579298 0.00104853 0.540497 0.0135638 0.277159)
(0.493787 -0.022505 0.00782967 0.507388 -0.0139258 0.189981)
(0.624494 -0.00230306 0.323435 0.953005 -0.11758 0.152611)
(2.76035 0.440111 -0.066009 4.22733 -0.0800939 2.58886)
(5.26907 1.02585 0.110116 6.4977 0.647549 2.28977)
(12.0629 0.285604 1.1535 15.837 0.933562 14.1641)
(9.76605 -0.416817 0.762309 15.3088 -0.797925 12.78)
(0.00465057 -0.023758 0.0277342 0.00546372 0.011759 -0.00468831)
(1.45603 0.0134535 0.0571824 1.25904 0.00293569 1.2024)
(2.45534 0.426806 0.130379 2.02348 0.0201854 1.61496)
(-0.147511 0.0594364 -0.0236859 0.0511444 0.00650842 -0.173862)
(2.37076 0.336555 -0.227713 2.96017 0.060977 2.16034)
(5.07623 1.50749 0.466522 1.3012 -0.795352 3.60396)
(2.37383 0.865376 0.915705 2.22031 -0.108861 2.22132)
(17.1979 1.11953 0.818373 24.8057 0.900095 20.8533)
(6.43282 0.966446 -0.988716 10.3945 0.476714 6.97965)
(32.1168 5.67762 4.12178 40.0497 0.262864 31.375)
(0.516329 -0.0321183 0.113684 0.340971 0.0296383 0.377323)
(1.77474 0.275194 0.178616 1.39014 0.110884 1.02591)
(1.43942 0.263173 -0.199375 0.414232 0.156635 0.0258803)
(4.86737 0.820618 0.165041 3.30484 0.140289 3.59095)
(5.96393 -3.10307 -2.44526 5.48414 1.48318 3.86066)
(0.662152 -0.59123 -0.496048 0.723903 -0.419545 0.907635)
(76.1644 10.4454 4.9783 72.6368 0.0558544 70.5358)
(27.6914 5.96692 3.07806 27.5043 1.16652 25.069)
(23.3732 9.83778 1.02888 32.6043 3.71775 21.9565)
(6.45407 4.2084 -0.960984 14.973 3.81246 8.7892)
(1.19502 -0.0216664 0.0593676 1.12954 -0.00285799 1.13818)
(1.67863 0.0490492 0.228785 0.900865 0.179138 0.962584)
(1.84316 -0.0674354 0.0695719 1.11222 0.0308502 1.09484)
(13.5839 1.04349 0.765002 7.60473 0.103799 7.45472)
(5.35929 1.28665 0.348787 1.1135 0.275341 2.02998)
(17.255 3.37633 1.11346 18.7137 2.35974 14.6196)
(16.3037 6.12028 4.66824 7.40059 4.20906 6.11802)
(134.109 3.44396 1.29906 127.931 0.1079 127.567)
(39.6994 8.47084 5.99467 26.3097 0.608194 25.5766)
(560.312 25.1277 1.1353 580.046 0.385577 555.283)
)
;

boundaryField
{
    inlet
    {
        type            calculated;
        value           nonuniform List<symmTensor> 
20
(
(0.0117816 -0.00584613 -0.0466166 -0.00400924 -0.000734927 0.00136922)
(-0.00163592 -0.0117219 -0.0453551 -0.000404561 -0.000987585 0.0022795)
(0.000701295 -0.0063665 -0.0443251 -0.000210056 -0.0012327 0.0028107)
(0.00251253 -0.011675 -0.0442283 -0.00282118 -0.00263166 0.0028611)
(0.00221233 -0.00841804 0.0102643 -0.00346097 0.000633979 0.00711878)
(-0.00708036 -0.00604273 0.0144489 -0.000526739 0.000883591 0.00499921)
(0.00163478 -0.00919196 0.0171788 -0.00355476 -0.000865249 0.00199777)
(0.0049555 -0.0202203 0.0178317 -0.00622092 -0.000843047 0.00154759)
(-0.00516273 -0.002803 0.0438928 -0.00321538 -0.000524867 -0.000985092)
(-0.00559112 -0.0100805 0.0325834 -0.00502221 -0.00402967 0.00515498)
(-0.00508594 -0.0223575 0.0126549 -0.00161749 -0.00430233 0.000164967)
(0.00253012 -0.0160035 0.00934213 -0.00431424 0.0049806 -0.00196723)
(0.0149039 0.00330214 0.00414206 -0.00145777 0.00494532 -0.00679443)
(0.00835984 -0.0115148 0.0471303 -0.00854298 0.00372668 -0.00599754)
(-0.0166572 -0.0323414 0.0190261 0.00477195 -0.00519037 -4.1209e-05)
(-0.0217309 0.013469 0.00601532 -0.00324547 0.00232508 0.00386796)
(-0.0174386 -0.00823769 -0.00135072 0.00180994 -0.00172279 -0.000708477)
(-0.0174965 0.0171507 -0.00741394 -0.0033251 0.00360351 -0.00643616)
(0.00939065 -0.0190435 0.0141231 -0.0121569 0.0058903 -0.00493223)
(0.0223585 -0.0320389 0.0368618 -0.0121296 -0.00192582 -0.00630942)
)
;
    }
    outlet
    {
        type            calculated;
        value           nonuniform 0();
    }
    bottom
    {
        type            calculated;
        value           nonuniform List<symmTensor> 
40
(
(0.00959196 -0.0031379 -0.0891167 -0.00400924 -0.00129628 -0.001352)
(-0.000227459 -0.00509416 -0.0903925 -0.000404561 -0.00310333 -9.1414e-06)
(-0.00395549 -0.00839936 -0.0903387 -0.000210056 -0.00200873 0.000364777)
(-0.00233761 -0.0128097 -0.0891989 -0.00282118 -0.00383348 0.000300005)
(0.016492 0.00262435 -0.0884672 -0.00269172 -0.00116752 -0.00104191)
(-0.00230122 -0.00719191 -0.0894916 -0.00595477 -0.00214407 -0.000333093)
(0.0149775 0.02944 -0.100407 -0.00839259 -0.00854185 -0.00148544)
(0.00890472 -0.00101413 -0.0911446 0.0010777 -0.012105 0.000721375)
(-0.00984506 -0.0183234 -0.0637065 -0.00426619 0.00551258 -0.00790514)
(-0.00827363 -0.000291582 -0.0939084 0.0255816 -0.0113273 0.000978185)
(-0.0124844 -0.079104 -0.0991526 0.00216331 0.0359318 -0.0191983)
(-0.003846 0.0038372 -0.0873016 -0.0270467 -0.00326739 0.00207242)
(0.0196856 -0.0113436 -0.0911605 -0.0146987 -0.0253305 0.0343209)
(0.0329781 -0.0276257 -0.0873372 -0.075333 -0.0175537 -0.00586937)
(-0.0056797 -0.0600421 -0.0921581 -0.00178541 -0.11177 -0.0480431)
(-0.0741816 -0.0274621 -0.101114 0.0675992 0.00481905 -0.00742778)
(0.040167 0.0101519 -0.0931572 -0.0386579 -0.00369675 -0.00580867)
(0.0287319 -0.0108347 -0.0751298 -0.0246604 -0.0379728 0.0202792)
(0.0575293 0.0668289 -0.0564151 -0.0018529 -0.0468097 0.0013677)
(-0.0331006 -0.0210287 -0.118186 0.103521 -0.0473645 -0.01507)
(-0.0150143 -0.00154823 -0.0855446 -0.00575517 0.00190761 -0.034702)
(-0.0281148 0.0406253 -0.0952781 0.00285928 0.00580517 -0.0159875)
(0.0326068 0.0359258 -0.0767769 -0.0275423 0.00956027 0.0211173)
(0.107395 0.0500928 -0.0857097 -0.28238 -0.0645213 0.0231197)
(-0.0235572 -0.0033495 -0.0266476 0.00351489 -0.000293364 -0.0524335)
(-0.0147008 0.00881218 -0.0949121 0.0238695 0.0147267 -0.0251658)
(-0.0786154 0.0112516 -0.0814536 0.0221159 0.0407269 -0.0295028)
(0.0830776 0.102114 -0.0508991 -0.0632096 0.0488989 0.0580187)
(-0.00706735 -0.0281069 -0.0919395 0.000703627 -0.0226893 0.0860092)
(-0.0186399 -0.0216031 -0.0562685 0.00182326 -0.0218146 -0.0316321)
(-0.0918951 -0.0108042 -0.115839 0.0939582 0.0202608 -0.0232666)
(-0.0280198 -0.0326712 0.151041 0.0297437 0.134768 0.0540815)
(0.062767 -0.0460087 0.154403 -0.0315488 -0.0129213 -0.0782373)
(0.0165089 -0.0385372 -0.102433 0.0299975 0.00771851 0.0498834)
(0.00816813 -0.00648298 -0.0965619 -0.0128731 0.10761 -0.0351917)
(-0.18364 -0.158354 -0.134071 0.0380637 -0.0119638 0.593175)
(-0.01387 0.0685846 0.0836914 -0.0587461 -0.187663 0.67039)
(-0.0321651 -0.0396506 -0.0981938 0.0251636 -0.153683 -0.0369544)
(0.0469445 -0.0405382 -0.122725 -0.0469751 -0.0231701 0.0381649)
(-0.133933 0.00681018 -0.472577 0.0357966 0.0230394 -0.0791064)
)
;
    }
    top
    {
        type            symmetryPlane;
    }
    side1
    {
        type            symmetryPlane;
    }
    side2
    {
        type            symmetryPlane;
    }
    procBoundary0to1
    {
        type            processor;
        value           nonuniform List<symmTensor> 
20
(
(-1.93066 0.837341 -4.82762 0.507898 -0.380312 0.189782)
(-0.653843 2.5404 1.95628 -2.44576 -2.6186 4.28391)
(-1.38028 0.332825 -1.3893 0.300585 -1.2758 3.41734)
(0.752977 1.34632 -1.08578 -1.43099 -0.0488092 -0.187038)
(3.90304 -1.25417 5.69642 2.30728 4.57814 -10.0185)
(-0.0319281 0.0949367 -0.376317 -1.3573 2.57513 -0.196955)
(-0.937666 0.159808 7.04599 0.423692 -1.57392 2.12017)
(-1.58203 1.28667 -1.63843 0.919888 0.0974337 0.81833)
(-5.17852 -0.0103944 -7.46203 3.02849 6.27926 3.85457)
(-2.65335 0.544661 3.71587 2.67219 8.73063 -3.08031)
(-0.325339 1.85879 -0.691019 0.663907 1.89113 -1.3803)
(-0.864059 0.592307 -0.350865 -0.16622 0.735327 1.65062)
(-2.34694 -0.431146 1.80803 1.09515 0.25354 2.2421)
(-2.69873 0.558325 -1.57596 2.02999 1.89162 2.12777)
(-1.98969 0.0889141 0.487769 1.12336 1.31624 -0.16825)
(-4.32364 1.53104 2.69362 5.29891 4.45169 0.810769)
(-1.59462 0.00802641 -0.755196 2.74266 0.653534 -0.656224)
(-1.22851 0.420571 1.43318 2.70012 0.515747 -2.13818)
(-14.4173 10.3652 2.21482 29.0392 -0.0603983 -4.85227)
(-8.69974 0.372133 1.77985 -0.524706 4.12112 -2.39032)
)
;
    }
    procBoundary0to8
    {
        type            processor;
        value           nonuniform List<symmTensor> 
50
(
(0.0129877 -0.107147 -0.458539 -0.0265939 -0.0458883 0.0211717)
(1.01378e-05 0.0873839 -0.55676 0.0176822 -0.090133 0.0236935)
(-0.252706 -0.279467 -0.902422 0.129402 -0.0597089 -0.0106166)
(0.645774 1.0883 -0.90318 -0.381824 -0.252746 0.134102)
(0.00395343 -5.46111 -1.85609 -0.527422 0.384938 0.583459)
(-1.32847 -1.40283 -0.378418 0.755904 -1.65845 -0.0242478)
(0.252031 3.67985 0.119999 0.0808615 -0.285249 0.100363)
(0.452661 1.15095 -1.43759 -1.89001 0.245196 0.497775)
(-2.67305 -1.30065 6.86498 1.68864 -4.14262 2.15323)
(-1.71317 -2.18457 -2.19571 1.39743 0.629126 2.96033)
(0.0105828 -0.0811457 0.0203406 -0.0214098 -0.0112169 0.01786)
(-0.00996418 -0.00510036 -0.00814823 -0.0321232 -0.0140854 0.0229974)
(-0.104152 -0.129187 0.13042 0.0901327 -0.119804 0.156766)
(-0.111904 -0.208122 0.627095 -0.00715165 0.0728895 -0.118339)
(0.00547261 -0.63198 0.228297 -0.532743 -0.967236 0.645451)
(-0.0676373 0.212129 -0.318518 -0.37495 0.650132 0.594853)
(-0.355029 0.951924 -0.202724 -0.123399 0.275481 0.255271)
(-1.8057 1.73689 4.32878 0.282887 -0.699274 0.705555)
(0.36984 0.427271 0.0786807 -0.719068 0.184219 1.23677)
(0.592045 -3.4932 7.55301 2.95796 -2.56189 -5.31789)
(-0.00423515 -0.0729523 0.0769462 -0.0222416 0.000698115 0.0160809)
(-0.0627592 -0.13201 0.172635 0.0894293 -0.187323 0.0345943)
(0.00304822 0.113462 -0.431264 -0.105055 -0.174619 0.174994)
(0.412266 -2.89837 0.991046 -0.535819 -0.158564 0.355228)
(0.020178 -0.0955864 1.11785 -0.163978 -0.0416462 0.193061)
(-0.257478 1.61175 -0.0291603 0.0892775 -0.228734 0.317128)
(-0.129179 0.275764 -0.255657 -0.359506 -0.102227 0.256157)
(-0.329549 -0.459233 0.776016 -0.50059 -0.299021 1.08129)
(-0.209734 0.642945 2.27079 -1.18553 0.151977 1.787)
(-0.264593 0.308082 0.257823 -0.726875 -0.306516 0.855737)
(0.0301138 -0.208729 0.0849927 -0.0963213 0.00147063 -0.00678187)
(-0.0455153 -0.215088 0.132975 0.472533 0.0519028 -0.00235888)
(0.524551 -0.000998979 0.639598 -0.941284 -0.379571 -0.010169)
(0.653422 0.355539 0.81964 -0.706782 -0.0960543 0.285597)
(1.13884 -3.75806 1.78833 -1.24388 1.12447 -0.462383)
(0.536871 -0.489806 0.138111 -0.473765 0.00995804 -0.173598)
(0.477472 1.44497 0.739678 -1.00572 -0.243757 0.182021)
(2.18996 2.13239 4.15304 -2.11997 -0.18091 0.825569)
(1.86397 0.537651 1.49337 -2.42432 -0.756071 -0.263853)
(1.35398 9.96415 4.69082 2.92063 6.32895 -0.104802)
(0.168714 -0.205433 0.0973258 -0.0826911 -0.0272132 -0.0549406)
(0.216234 -0.0371493 0.0840084 -0.131411 -0.0189729 -0.0540282)
(1.21519 -0.243542 0.292638 -0.546872 -0.00161894 -0.363344)
(1.76568 -0.228596 0.399378 -0.726392 -0.110625 -0.640866)
(1.66738 -0.0598778 0.492407 -0.759567 -0.0151547 -0.635203)
(4.64481 -0.828875 2.30876 -4.08104 1.64298 -2.8283)
(11.5985 4.4198 2.14857 -2.68858 0.342002 -1.9384)
(4.28924 5.26148 3.74633 -5.44007 1.40105 -7.95568)
(12.2815 55.4211 -2.34085 31.2964 -5.10628 -10.0779)
(-6.09222 -0.207455 2.79564 -1.8665 2.6659 -1.56839)
)
;
    }
}


// ************************************************************************* //
