/*--------------------------------*- C++ -*----------------------------------*\
| =========                 |                                                 |
| \\      /  F ield         | OpenFOAM: The Open Source CFD Toolbox           |
|  \\    /   O peration     | Version:  2.4.0                                 |
|   \\  /    A nd           | Web:      www.OpenFOAM.org                      |
|    \\/     M anipulation  |                                                 |
\*---------------------------------------------------------------------------*/
FoamFile
{
    version     2.0;
    format      ascii;
    class       volVectorField;
    location    "0.04";
    object      Ua;
}
// * * * * * * * * * * * * * * * * * * * * * * * * * * * * * * * * * * * * * //

dimensions      [0 1 -1 0 0 0 0];

internalField   nonuniform List<vector> 
200
(
(1.42408e-12 -1.62213e-12 2.74877e-13)
(2.35129e-12 -2.67552e-12 4.53847e-13)
(3.68108e-12 -4.18429e-12 7.10522e-13)
(5.50894e-12 -6.25413e-12 1.06318e-12)
(7.94378e-12 -9.00263e-12 1.5316e-12)
(1.23381e-11 -4.89653e-11 -4.45851e-12)
(1.76252e-08 -5.20458e-07 -9.42248e-08)
(0.000246942 -0.00730188 -0.00132133)
(0.929715 -27.5054 -4.97469)
(1.29754 -38.4075 -6.9428)
(2.34349e-08 -2.69782e-08 4.52341e-09)
(2.99776e-08 -3.45103e-08 5.78629e-09)
(3.73871e-08 -4.304e-08 7.21646e-09)
(4.56245e-08 -5.25232e-08 8.80645e-09)
(5.46821e-08 -6.29794e-08 1.0545e-08)
(8.46985e-08 -6.74428e-07 -9.53533e-08)
(0.000282879 -0.00842444 -0.00151322)
(0.976546 -29.09 -5.22533)
(1.29753 -38.6517 -6.94286)
(1.29756 -38.6527 -6.94302)
(6.02955e-08 -6.94122e-08 1.16382e-08)
(7.49986e-08 -8.63385e-08 1.44762e-08)
(9.14716e-08 -1.05303e-07 1.76559e-08)
(1.09616e-07 -1.26239e-07 2.11405e-08)
(1.61649e-07 -1.10946e-06 -1.47586e-07)
(0.000431428 -0.0128474 -0.00230768)
(1.06756 -31.8013 -5.71235)
(1.29753 -38.652 -6.94291)
(1.29755 -38.6526 -6.94301)
(1.29755 -38.6526 -6.94301)
(1.13071e-07 -1.30168e-07 2.1825e-08)
(1.37529e-07 -1.58324e-07 2.65459e-08)
(1.64704e-07 -1.89688e-07 3.17632e-08)
(2.37322e-07 -1.50251e-06 -1.9222e-07)
(0.000517359 -0.0154051 -0.00276707)
(1.0917 -32.5206 -5.84156)
(1.29752 -38.6518 -6.94288)
(1.29754 -38.6523 -6.94298)
(1.29754 -38.6524 -6.94298)
(1.29754 -38.6524 -6.94298)
(4.61444e-07 -5.26174e-07 8.90679e-08)
(5.90323e-07 -6.72435e-07 1.13944e-07)
(7.36292e-07 -8.3783e-07 1.42119e-07)
(8.98594e-07 -1.02144e-06 1.73447e-07)
(1.07705e-06 -1.22275e-06 2.07862e-07)
(1.27157e-06 -1.44135e-06 2.45305e-07)
(1.51973e-06 -2.32629e-06 1.689e-07)
(0.000504078 -0.0078593 -0.00141018)
(1.93781 -26.5036 -4.74273)
(3.29598 -37.2543 -6.63369)
(0.00728671 -0.00838845 0.00140648)
(0.00728157 -0.00838254 0.00140549)
(0.00727639 -0.00837658 0.00140449)
(0.00727121 -0.00837062 0.00140349)
(0.00726604 -0.00836466 0.00140249)
(0.00726091 -0.00835946 0.00140136)
(0.00769088 -0.0173604 -0.000211329)
(1.47642 -28.2858 -5.05325)
(2.20051 -38.1368 -6.80324)
(2.54115 -37.9432 -6.75071)
(0.0144951 -0.0166867 0.00279784)
(0.0144873 -0.0166778 0.00279634)
(0.0144794 -0.0166687 0.00279482)
(0.0144716 -0.0166597 0.0027933)
(0.0144638 -0.0166518 0.00279156)
(0.0149882 -0.0302858 0.000341366)
(1.26743 -31.2024 -5.59256)
(1.62311 -38.4668 -6.89266)
(1.71771 -38.4133 -6.87809)
(1.87387 -38.3239 -6.85389)
(0.0216155 -0.0248838 0.00417223)
(0.0216058 -0.0248726 0.00417035)
(0.0215959 -0.0248612 0.00416844)
(0.0215861 -0.0248514 0.00416625)
(0.0221131 -0.0410897 0.0012418)
(1.07878 -32.0277 -5.75158)
(1.29763 -38.6524 -6.943)
(1.29764 -38.6529 -6.94306)
(1.29764 -38.6527 -6.943)
(1.29763 -38.6525 -6.94298)
(0.165173 -0.188543 0.0318817)
(0.16508 -0.188241 0.0318637)
(0.164986 -0.187936 0.0318456)
(0.164891 -0.187632 0.0318274)
(0.164797 -0.187327 0.0318091)
(0.164703 -0.187022 0.0317908)
(0.165369 -0.186749 0.031805)
(9.82668 -0.581651 0.444614)
(64.0485 -2.7884 2.76391)
(64.0893 -2.78192 2.76751)
(1.17016 -1.34709 0.225865)
(1.17004 -1.34695 0.225841)
(1.16989 -1.34678 0.225813)
(1.16973 -1.3466 0.225782)
(1.16956 -1.3464 0.225749)
(1.16937 -1.34618 0.225712)
(1.17839 -1.34616 0.226043)
(46.2732 -2.42122 2.0425)
(64.053 -2.82684 2.7622)
(64.0783 -2.81348 2.76588)
(1.17032 -1.34728 0.225896)
(1.17025 -1.34719 0.225882)
(1.17017 -1.3471 0.225867)
(1.17008 -1.347 0.22585)
(1.16999 -1.34689 0.225832)
(1.17262 -1.34685 0.225921)
(27.5765 -2.01433 1.28225)
(63.9357 -2.88958 2.74519)
(64.0004 -2.85659 2.7543)
(64.0455 -2.83152 2.76105)
(1.17037 -1.34733 0.225905)
(1.17032 -1.34727 0.225895)
(1.17026 -1.3472 0.225884)
(1.1702 -1.34713 0.225872)
(1.17013 -1.34706 0.225857)
(1.1746 -1.42777 0.211484)
(3.57021 -34.0048 -5.57471)
(4.4275 -34.867 -5.71553)
(5.54235 -34.4144 -5.60781)
(7.27839 -33.6189 -5.41085)
(1.17059 -1.33763 0.225947)
(1.17058 -1.33623 0.225946)
(1.17057 -1.33482 0.225944)
(1.17057 -1.3334 0.225943)
(1.17056 -1.33199 0.225941)
(1.17054 -1.33058 0.225939)
(1.17053 -1.32916 0.225937)
(1.17293 -1.32785 0.226088)
(21.8788 -2.03543 1.39179)
(51.7674 -2.83648 2.78498)
(1.17061 -1.34761 0.225951)
(1.17061 -1.34761 0.225951)
(1.17061 -1.34761 0.225951)
(1.17061 -1.34761 0.225951)
(1.17061 -1.34761 0.225951)
(1.17061 -1.34761 0.225951)
(1.17061 -1.34761 0.225951)
(1.17391 -1.34784 0.226331)
(22.654 -2.4643 2.09059)
(40.9794 -2.93374 2.94792)
(1.17061 -1.34761 0.225951)
(1.17061 -1.34761 0.225951)
(1.17061 -1.34761 0.225951)
(1.17061 -1.34761 0.225951)
(1.17061 -1.34761 0.225951)
(1.17061 -1.34761 0.225951)
(1.16997 -1.34779 0.226302)
(0.378962 -2.4217 2.2849)
(6.75228 -3.15243 3.72891)
(15.8637 -3.06736 3.59105)
(1.17061 -1.34761 0.225951)
(1.17061 -1.34761 0.225951)
(1.17061 -1.34761 0.225951)
(1.17061 -1.34761 0.225951)
(1.17061 -1.34761 0.225952)
(1.1672 -1.34786 0.226673)
(-14.7078 -2.50574 3.61118)
(-23.5161 -3.14132 5.53126)
(-23.3189 -3.1189 5.53891)
(-23.0812 -3.09202 5.54772)
(1.1706 -1.33623 0.225203)
(1.1706 -1.33484 0.225111)
(1.1706 -1.33343 0.225018)
(1.1706 -1.33203 0.224926)
(1.17059 -1.33062 0.224832)
(1.17059 -1.32922 0.224739)
(1.16951 -1.3279 0.224603)
(-8.04075 -2.03503 -0.149786)
(-39.9441 -4.44712 -1.453)
(-38.4498 -4.28254 -1.3998)
(1.17061 -1.34761 0.225298)
(1.17061 -1.34761 0.225206)
(1.17061 -1.34761 0.225114)
(1.17061 -1.34761 0.225022)
(1.17061 -1.34761 0.224929)
(1.17061 -1.34761 0.224836)
(1.1666 -1.34793 0.224583)
(-22.8992 -3.26183 -0.747031)
(-43.3545 -4.85216 -1.57858)
(-42.0218 -4.70315 -1.5313)
(1.17061 -1.34761 0.225205)
(1.17061 -1.34761 0.225113)
(1.17061 -1.34761 0.225021)
(1.17061 -1.34761 0.224929)
(1.17061 -1.34761 0.224836)
(1.16562 -1.34802 0.224545)
(-26.9283 -3.66396 -0.899662)
(-48.2489 -5.3994 -1.75694)
(-47.3617 -5.30011 -1.72606)
(-46.2933 -5.18068 -1.68852)
(1.17061 -1.34761 0.225112)
(1.17061 -1.34761 0.225021)
(1.17061 -1.34761 0.224929)
(1.1706 -1.34761 0.224837)
(1.16198 -1.34835 0.224403)
(-34.8949 -4.40839 -1.20765)
(-53.1393 -5.94656 -1.93509)
(-52.6969 -5.89698 -1.92059)
(-52.1632 -5.83728 -1.90271)
(-51.5106 -5.76429 -1.88047)
)
;

boundaryField
{
    inlet
    {
        type            calculated;
        value           uniform (0 0 0);
    }
    outlet
    {
        type            calculated;
        value           nonuniform 0();
    }
    bottom
    {
        type            calculated;
        value           uniform (0 0 0);
    }
    top
    {
        type            symmetryPlane;
    }
    side1
    {
        type            symmetryPlane;
    }
    side2
    {
        type            symmetryPlane;
    }
    procBoundary0to1
    {
        type            processor;
        value           nonuniform List<vector> 
20
(
(1.29758 -38.429 -6.94302)
(1.29756 -38.6527 -6.94302)
(1.29755 -38.6526 -6.94301)
(1.29754 -38.6525 -6.94299)
(4.32032 -36.6938 -6.47557)
(3.17795 -37.5792 -6.65222)
(2.16671 -38.1564 -6.80859)
(1.29763 -38.6524 -6.94296)
(64.1012 -2.77701 2.76938)
(64.0954 -2.80378 2.7685)
(64.0778 -2.81352 2.76589)
(10.2629 -32.1347 -5.03149)
(56.3669 -2.80237 2.78353)
(48.7958 -2.87085 2.89474)
(27.4796 -2.97539 3.40681)
(-22.7885 -3.0592 5.55893)
(-36.6655 -4.08638 -1.33589)
(-40.4181 -4.52409 -1.47407)
(-44.987 -5.03476 -1.64228)
(-50.6926 -5.67302 -1.85231)
)
;
    }
    procBoundary0to8
    {
        type            processor;
        value           nonuniform List<vector> 
50
(
(1.8426e-07 -2.11988e-07 3.55505e-08)
(2.20051e-07 -2.52504e-07 4.2379e-08)
(2.59544e-07 -2.97278e-07 4.97123e-08)
(5.02366e-07 -6.3022e-06 -1.01247e-06)
(0.00206337 -0.0614522 -0.0110385)
(1.13894 -33.9258 -6.09406)
(1.18835 -35.3977 -6.3584)
(1.17841 -35.1015 -6.30512)
(1.16647 -34.746 -6.24115)
(1.15187 -34.3114 -6.163)
(0.0286472 -0.0329792 0.0055295)
(0.0286364 -0.0329385 0.0055242)
(0.0286259 -0.032878 0.0055163)
(0.0286159 -0.0328103 0.00550519)
(0.0306741 -0.0955049 -0.0058709)
(1.13823 -33.7644 -6.09364)
(1.19213 -35.4798 -6.39359)
(1.18094 -35.2463 -6.33897)
(1.16704 -34.9723 -6.27591)
(1.14965 -34.647 -6.20529)
(1.17039 -1.34737 0.22591)
(1.17036 -1.34732 0.225902)
(1.17032 -1.34728 0.225893)
(1.17027 -1.34722 0.225883)
(1.16747 -1.34731 0.228125)
(-6.79636 -1.77142 6.73736)
(-9.73548 -1.92247 9.14236)
(-9.73546 -1.91701 9.14519)
(-9.73469 -1.91158 9.14767)
(-9.73316 -1.90624 9.15003)
(1.1706 -1.34762 0.225953)
(1.17059 -1.34762 0.225953)
(1.17059 -1.34762 0.225954)
(1.17059 -1.34763 0.225955)
(1.16607 -1.34793 0.22783)
(-12.2915 -2.22166 5.81352)
(-16.5625 -2.49888 7.58762)
(-16.5604 -2.49866 7.58815)
(-16.5579 -2.49842 7.58849)
(-16.5554 -2.49818 7.58882)
(0.804981 -1.62997 0.273178)
(0.812222 -1.69424 0.283832)
(0.818219 -1.74763 0.292633)
(0.816207 -1.79191 0.299613)
(-33.6546 -4.56129 -1.11016)
(-58.0181 -6.49297 -2.1126)
(-58.0221 -6.49331 -2.11464)
(-58.0227 -6.49337 -2.11652)
(-58.0233 -6.49343 -2.11839)
(-58.0238 -6.49349 -2.12026)
)
;
    }
}


// ************************************************************************* //
