/*--------------------------------*- C++ -*----------------------------------*\
| =========                 |                                                 |
| \\      /  F ield         | OpenFOAM: The Open Source CFD Toolbox           |
|  \\    /   O peration     | Version:  2.4.0                                 |
|   \\  /    A nd           | Web:      www.OpenFOAM.org                      |
|    \\/     M anipulation  |                                                 |
\*---------------------------------------------------------------------------*/
FoamFile
{
    version     2.0;
    format      ascii;
    class       volVectorField;
    location    "0.04";
    object      Uc;
}
// * * * * * * * * * * * * * * * * * * * * * * * * * * * * * * * * * * * * * //

dimensions      [0 1 -1 0 0 0 0];

internalField   nonuniform List<vector> 
200
(
(7.02516e-14 -8.00214e-14 1.356e-14)
(2.90898e-15 -3.31011e-15 5.61492e-16)
(6.70969e-17 -7.62691e-17 1.2951e-17)
(1.12917e-18 -1.28191e-18 2.17921e-19)
(1.546e-20 -1.75207e-20 2.98076e-21)
(2.02732e-22 -8.0457e-22 -7.32597e-23)
(2.24183e-21 -6.61994e-20 -1.19849e-20)
(2.27425e-19 -6.72477e-18 -1.2169e-18)
(2.07232e-17 -6.1309e-16 -1.10885e-16)
(1.63658e-15 -4.84431e-14 -8.75691e-15)
(7.33021e-12 -8.43853e-12 1.41488e-12)
(2.73625e-13 -3.14997e-13 5.28152e-14)
(5.73881e-15 -6.60652e-15 1.10771e-15)
(8.85177e-17 -1.01902e-16 1.70857e-17)
(1.11841e-18 -1.28811e-18 2.15676e-19)
(1.60776e-20 -1.28021e-19 -1.81001e-20)
(4.53261e-19 -1.34986e-17 -2.42466e-18)
(4.95606e-17 -1.47634e-15 -2.6519e-16)
(4.89357e-15 -1.45773e-13 -2.61846e-14)
(4.21698e-13 -1.25618e-11 -2.25643e-12)
(6.98815e-14 -8.04476e-14 1.34885e-14)
(2.89216e-15 -3.32946e-15 5.58246e-16)
(6.66743e-17 -7.67558e-17 1.28695e-17)
(1.1215e-18 -1.29158e-18 2.16292e-19)
(1.91708e-20 -1.31577e-19 -1.7503e-20)
(5.18037e-19 -1.54266e-17 -2.77094e-18)
(6.60774e-17 -1.96837e-15 -3.53571e-16)
(7.82914e-15 -2.33221e-13 -4.18927e-14)
(8.43309e-13 -2.51212e-11 -4.51243e-12)
(7.9937e-11 -2.38123e-09 -4.27732e-10)
(3.7013e-16 -4.26094e-16 7.14425e-17)
(1.68141e-17 -1.93564e-17 3.24545e-18)
(4.22559e-19 -4.86657e-19 8.14908e-20)
(9.39658e-21 -5.94905e-20 -7.6108e-21)
(2.59055e-19 -7.71373e-18 -1.38555e-18)
(3.77597e-17 -1.12482e-15 -2.02048e-16)
(5.21948e-15 -1.55483e-13 -2.79288e-14)
(6.74637e-13 -2.00967e-11 -3.6099e-12)
(7.99332e-11 -2.38113e-09 -4.27714e-10)
(8.41854e-09 -2.5078e-07 -4.50467e-08)
(5.6509e-11 -6.44359e-11 1.09074e-11)
(2.11024e-12 -2.40377e-12 4.07319e-13)
(4.42766e-14 -5.03826e-14 8.54628e-15)
(6.83218e-16 -7.76623e-16 1.31875e-16)
(8.63562e-18 -9.80383e-18 1.66661e-18)
(9.46522e-20 -1.07291e-19 1.82599e-20)
(9.55005e-22 -1.46185e-21 1.06137e-22)
(2.48404e-21 -3.87297e-20 -6.9492e-21)
(2.39815e-19 -3.27996e-18 -5.86938e-19)
(2.11842e-17 -2.39444e-16 -4.26367e-17)
(6.63755e-09 -7.64114e-09 1.28118e-09)
(2.20688e-10 -2.54056e-10 4.25973e-11)
(4.1683e-12 -4.79855e-12 8.04566e-13)
(5.8464e-14 -6.73038e-14 1.12847e-14)
(6.77186e-16 -7.79577e-16 1.3071e-16)
(6.84901e-18 -7.88523e-18 1.32186e-18)
(6.63202e-20 -1.49703e-19 -1.82234e-21)
(4.12032e-19 -7.89387e-18 -1.41024e-18)
(4.15302e-17 -7.19754e-16 -1.28397e-16)
(3.81016e-15 -5.68913e-14 -1.01219e-14)
(5.62409e-11 -6.47445e-11 1.08556e-11)
(2.09915e-12 -2.41654e-12 4.05178e-13)
(4.40209e-14 -5.0677e-14 8.49693e-15)
(6.78918e-16 -7.81571e-16 1.31045e-16)
(8.5768e-18 -9.87428e-18 1.65536e-18)
(9.74525e-20 -1.96917e-19 2.21955e-21)
(4.27302e-19 -1.05196e-17 -1.88548e-18)
(4.85558e-17 -1.15074e-15 -2.06195e-16)
(5.08246e-15 -1.13659e-13 -2.03512e-14)
(4.79095e-13 -9.79831e-12 -1.75234e-12)
(2.68062e-13 -3.08594e-13 5.17415e-14)
(1.10931e-14 -1.27703e-14 2.14118e-15)
(2.55706e-16 -2.94369e-16 4.93563e-17)
(4.30058e-18 -4.95112e-18 8.30036e-19)
(6.03327e-20 -1.12108e-19 3.38808e-21)
(2.02427e-19 -6.00981e-18 -1.07925e-18)
(2.57457e-17 -7.66887e-16 -1.37753e-16)
(3.05107e-15 -9.08821e-14 -1.63248e-14)
(3.28708e-13 -9.79124e-12 -1.75875e-12)
(3.11645e-11 -9.28298e-10 -1.66746e-10)
(3.41269e-08 -3.89554e-08 6.58718e-09)
(1.13524e-09 -1.29452e-09 2.19125e-10)
(2.14531e-11 -2.44374e-11 4.14089e-12)
(3.01053e-13 -3.42571e-13 5.81092e-14)
(3.48886e-15 -3.96583e-15 6.7342e-16)
(3.53039e-17 -4.0088e-17 6.81433e-18)
(3.24096e-19 -3.65998e-19 6.23326e-20)
(1.91535e-19 -1.13371e-20 8.66611e-21)
(2.23727e-17 -9.74012e-19 9.65459e-19)
(2.44706e-15 -1.0622e-16 1.05669e-16)
(4.58366e-06 -5.2767e-06 8.84738e-07)
(1.33635e-07 -1.5384e-07 2.57942e-08)
(2.24523e-09 -2.58471e-09 4.33374e-10)
(2.83524e-11 -3.26393e-11 5.47259e-12)
(2.98615e-13 -3.43766e-13 5.76388e-14)
(2.76888e-15 -3.18754e-15 5.3445e-16)
(2.35337e-17 -2.68843e-17 4.51431e-18)
(2.5626e-17 -1.34086e-18 1.13113e-18)
(3.2478e-15 -1.43334e-16 1.40057e-16)
(3.84968e-13 -1.69028e-14 1.66168e-14)
(3.39829e-08 -3.91211e-08 6.55939e-09)
(1.12987e-09 -1.30071e-09 2.18088e-10)
(2.13404e-11 -2.45671e-11 4.11914e-12)
(2.99315e-13 -3.44571e-13 5.77738e-14)
(3.46691e-15 -3.99111e-15 6.69184e-16)
(3.51468e-17 -4.03689e-17 6.77151e-18)
(1.3043e-17 -9.52729e-19 6.06474e-19)
(1.85601e-15 -8.38824e-17 7.96908e-17)
(2.56655e-13 -1.14555e-14 1.10453e-14)
(3.31868e-11 -1.46722e-12 1.43071e-12)
(1.43975e-10 -1.65744e-10 2.779e-11)
(5.37372e-12 -6.18623e-12 1.03724e-12)
(1.12691e-13 -1.2973e-13 2.17517e-14)
(1.73799e-15 -2.00077e-15 3.35467e-16)
(2.19559e-17 -2.52758e-17 4.23792e-18)
(2.42037e-19 -2.94204e-19 4.3578e-20)
(2.16224e-19 -2.05944e-18 -3.37623e-19)
(2.86519e-17 -2.25637e-16 -3.69872e-17)
(3.6003e-15 -2.23556e-14 -3.64283e-15)
(4.18422e-13 -1.93269e-12 -3.1106e-13)
(1.17774e-05 -1.34579e-05 2.27327e-06)
(3.43539e-07 -3.92153e-07 6.631e-08)
(5.77485e-09 -6.58512e-09 1.11466e-09)
(7.29615e-11 -8.31113e-11 1.40831e-11)
(7.68845e-13 -8.74878e-13 1.48403e-13)
(7.13268e-15 -8.10783e-15 1.37675e-15)
(6.01702e-17 -6.83244e-17 1.16141e-17)
(4.72401e-19 -5.34795e-19 9.1058e-20)
(1.19514e-19 -1.11186e-20 7.60273e-21)
(1.22541e-17 -6.71436e-19 6.59246e-19)
(0.00184647 -0.00212566 0.000356406)
(4.62412e-05 -5.32328e-05 8.92548e-06)
(6.80285e-07 -7.83144e-07 1.31309e-07)
(7.63881e-09 -8.79379e-09 1.47444e-09)
(7.24243e-11 -8.33748e-11 1.39794e-11)
(6.10586e-13 -7.02906e-13 1.17855e-13)
(4.71965e-15 -5.43326e-15 9.10988e-16)
(3.4218e-17 -3.92877e-17 6.59725e-18)
(1.3827e-17 -1.5041e-18 1.276e-18)
(1.63294e-15 -1.16903e-16 1.17468e-16)
(1.17339e-05 -1.3508e-05 2.26487e-06)
(3.42093e-07 -3.93818e-07 6.60309e-08)
(5.74754e-09 -6.61656e-09 1.10939e-09)
(7.25784e-11 -8.35522e-11 1.40091e-11)
(7.64407e-13 -8.79985e-13 1.47546e-13)
(7.0878e-15 -8.15947e-15 1.36809e-15)
(5.97334e-17 -6.88121e-17 1.15539e-17)
(3.53393e-19 -2.25831e-18 2.13073e-18)
(3.66192e-16 -1.70964e-16 2.02228e-16)
(8.03819e-14 -1.55424e-14 1.81959e-14)
(4.34978e-08 -5.00747e-08 8.39596e-09)
(1.44622e-09 -1.66489e-09 2.7915e-10)
(2.73155e-11 -3.14455e-11 5.27243e-12)
(3.83118e-13 -4.41045e-13 7.39494e-14)
(4.43757e-15 -5.10853e-15 8.5654e-16)
(4.47557e-17 -5.16827e-17 8.69163e-18)
(-1.42589e-17 -2.42925e-18 3.50095e-18)
(-1.59346e-15 -2.12856e-16 3.74799e-16)
(-1.56059e-13 -2.08729e-14 3.70685e-14)
(-1.33155e-11 -1.78378e-12 3.20047e-12)
(3.41834e-08 -3.90198e-08 6.57627e-09)
(1.13735e-09 -1.29692e-09 2.18718e-10)
(2.14974e-11 -2.44878e-11 4.13234e-12)
(3.01736e-13 -3.43347e-13 5.79774e-14)
(3.4975e-15 -3.97564e-15 6.71755e-16)
(3.53985e-17 -4.01955e-17 6.7961e-18)
(3.23244e-19 -3.67022e-19 6.20786e-20)
(-2.39542e-20 -6.06255e-21 -4.46227e-22)
(-2.18731e-18 -2.43521e-19 -7.95654e-20)
(-1.53455e-16 -1.70919e-17 -5.58668e-18)
(4.5903e-06 -5.28435e-06 8.83457e-07)
(1.33855e-07 -1.54094e-07 2.57516e-08)
(2.2494e-09 -2.5895e-09 4.3257e-10)
(2.84109e-11 -3.27066e-11 5.4613e-12)
(2.99292e-13 -3.44545e-13 5.7508e-14)
(2.77573e-15 -3.19541e-15 5.33127e-16)
(2.33303e-17 -2.69565e-17 4.49131e-18)
(-7.585e-18 -1.08043e-18 -2.47442e-19)
(-6.90079e-16 -7.72324e-17 -2.51265e-17)
(-5.2835e-14 -5.91337e-15 -1.92534e-15)
(3.40392e-08 -3.91859e-08 6.54853e-09)
(1.13197e-09 -1.30312e-09 2.17683e-10)
(2.13845e-11 -2.46178e-11 4.11064e-12)
(2.99994e-13 -3.45352e-13 5.76427e-14)
(3.47548e-15 -4.00097e-15 6.67527e-16)
(3.5011e-17 -4.04894e-17 6.74447e-18)
(-1.6791e-17 -2.28465e-18 -5.6098e-19)
(-1.84285e-15 -2.06228e-16 -6.71055e-17)
(-1.78609e-13 -1.99876e-14 -6.50926e-15)
(-1.50447e-11 -1.68365e-12 -5.48745e-13)
(1.44243e-10 -1.66053e-10 2.77384e-11)
(5.38482e-12 -6.19905e-12 1.0351e-12)
(1.12947e-13 -1.30026e-13 2.17025e-14)
(1.74229e-15 -2.00574e-15 3.3464e-16)
(2.18561e-17 -2.53615e-17 4.22087e-18)
(-2.11162e-17 -2.66768e-18 -7.30797e-19)
(-2.70601e-15 -3.02817e-16 -9.85406e-17)
(-3.17939e-13 -3.55786e-14 -1.15876e-14)
(-3.38999e-11 -3.79354e-12 -1.23654e-12)
(-3.17321e-09 -3.55098e-10 -1.15843e-10)
)
;

boundaryField
{
    inlet
    {
        type            calculated;
        value           uniform (0 0 0);
    }
    outlet
    {
        type            calculated;
        value           nonuniform 0();
    }
    bottom
    {
        type            calculated;
        value           uniform (0 0 0);
    }
    top
    {
        type            symmetryPlane;
    }
    side1
    {
        type            symmetryPlane;
    }
    side2
    {
        type            symmetryPlane;
    }
    procBoundary0to1
    {
        type            processor;
        value           nonuniform List<vector> 
20
(
(1.05752e-13 -3.13193e-12 -5.6585e-13)
(2.9981e-11 -8.93095e-10 -1.60423e-10)
(6.3145e-09 -1.88102e-07 -3.37881e-08)
(7.48116e-07 -2.22857e-05 -4.00309e-06)
(1.67334e-15 -1.42121e-14 -2.5081e-15)
(3.11272e-13 -3.68079e-12 -6.51568e-13)
(3.95798e-11 -6.97011e-10 -1.24374e-10)
(2.46231e-09 -7.33445e-08 -1.31746e-08)
(2.41634e-13 -1.04681e-14 1.04394e-14)
(4.14833e-11 -1.81464e-12 1.79181e-12)
(3.93366e-09 -1.72719e-10 1.69795e-10)
(4.40805e-11 -1.38022e-10 -2.16109e-11)
(1.14991e-15 -5.71697e-17 5.67852e-17)
(1.72466e-13 -1.01469e-14 1.02313e-14)
(1.17809e-11 -1.2756e-12 1.46055e-12)
(-9.35074e-10 -1.25527e-10 2.28098e-10)
(-8.66929e-15 -9.66193e-16 -3.1586e-16)
(-3.28483e-12 -3.67679e-13 -1.198e-13)
(-1.03949e-09 -1.16336e-10 -3.79474e-11)
(-2.46698e-07 -2.76081e-08 -9.01436e-09)
)
;
    }
    procBoundary0to8
    {
        type            processor;
        value           nonuniform List<vector> 
50
(
(1.43767e-18 -1.65401e-18 2.77379e-19)
(7.10936e-20 -8.15786e-20 1.36917e-20)
(1.93409e-21 -2.21527e-21 3.70449e-22)
(6.29996e-23 -7.90332e-22 -1.2697e-22)
(3.54878e-21 -1.05691e-19 -1.89851e-20)
(4.7758e-19 -1.42258e-17 -2.55537e-18)
(6.051e-17 -1.80242e-15 -3.23765e-16)
(7.10953e-15 -2.11773e-13 -3.80398e-14)
(7.58046e-13 -2.25801e-11 -4.05589e-12)
(7.09571e-11 -2.11364e-09 -3.7965e-10)
(9.46447e-16 -1.08957e-15 1.82684e-16)
(4.29903e-17 -4.94489e-17 8.29319e-18)
(1.08026e-18 -1.24072e-18 2.0817e-19)
(1.96751e-20 -2.2559e-20 3.78514e-21)
(3.11352e-22 -9.69406e-22 -5.95916e-23)
(2.71146e-21 -8.04328e-20 -1.45161e-20)
(3.19378e-19 -9.50519e-18 -1.71287e-18)
(3.47358e-17 -1.03672e-15 -1.86453e-16)
(3.40605e-15 -1.02068e-13 -1.83165e-14)
(2.90964e-13 -8.76877e-12 -1.57049e-12)
(4.57491e-13 -5.26669e-13 8.83055e-14)
(1.8932e-14 -2.17947e-14 3.65426e-15)
(4.36402e-16 -5.02388e-16 8.42336e-17)
(7.33957e-18 -8.44933e-18 1.41666e-18)
(1.00213e-19 -1.15651e-19 1.95818e-20)
(-2.55256e-20 -6.65306e-21 2.5304e-20)
(-3.16546e-18 -6.25085e-19 2.97261e-18)
(-3.46285e-16 -6.81868e-17 3.25289e-16)
(-3.41978e-14 -6.71535e-15 3.21356e-14)
(-2.94728e-12 -5.77224e-13 2.7707e-12)
(1.22859e-10 -1.41437e-10 2.37146e-11)
(4.58559e-12 -5.27905e-12 8.85131e-13)
(9.61634e-14 -1.10707e-13 1.8562e-14)
(1.48309e-15 -1.70739e-15 2.86275e-16)
(1.86682e-17 -2.15797e-17 3.64746e-18)
(-8.94357e-18 -1.61653e-18 4.23004e-18)
(-1.1676e-15 -1.76162e-16 5.349e-16)
(-1.38369e-13 -2.08774e-14 6.34022e-14)
(-1.49072e-11 -2.24935e-12 6.83199e-12)
(-1.41333e-09 -2.1327e-10 6.47857e-10)
(5.17426e-13 -1.04771e-12 1.75594e-13)
(2.1611e-14 -4.50791e-14 7.55199e-15)
(5.01978e-16 -1.07217e-15 1.79531e-16)
(8.42064e-18 -1.84867e-17 3.09105e-18)
(-1.1463e-17 -1.55361e-18 -3.7813e-19)
(-1.68862e-15 -1.88978e-16 -6.14874e-17)
(-2.33416e-13 -2.61218e-14 -8.50692e-15)
(-3.01698e-11 -3.37633e-12 -1.10052e-12)
(-3.57462e-09 -4.00039e-10 -1.30507e-10)
(-3.76478e-07 -4.2132e-08 -1.3757e-08)
)
;
    }
}


// ************************************************************************* //
