/*--------------------------------*- C++ -*----------------------------------*\
| =========                 |                                                 |
| \\      /  F ield         | OpenFOAM: The Open Source CFD Toolbox           |
|  \\    /   O peration     | Version:  2.4.0                                 |
|   \\  /    A nd           | Web:      www.OpenFOAM.org                      |
|    \\/     M anipulation  |                                                 |
\*---------------------------------------------------------------------------*/
FoamFile
{
    version     2.0;
    format      ascii;
    class       volScalarField;
    location    "0.09";
    object      nut;
}
// * * * * * * * * * * * * * * * * * * * * * * * * * * * * * * * * * * * * * //

dimensions      [0 2 -1 0 0 0 0];

internalField   nonuniform List<scalar> 
200
(
113.616
167.808
41.4179
194.077
73.1631
289.239
154.824
161.184
72.2042
381.51
146.28
51.0864
183.324
81.5126
272.5
141.501
235.308
142.093
550.027
648.53
117.139
104.84
75.2974
220.256
158.797
347.715
236.342
693.123
1190.99
586.418
29.3582
151.157
196.195
190.127
366.735
283.35
798.682
1739.57
1187.26
721.879
19.2162
92.5785
100.911
19.8227
155.417
55.0019
209.325
152.877
97.8651
78.6279
61.9746
70.7256
37.2637
170.601
47.712
186.337
169.255
87.0785
158.987
351.544
49.6778
57.282
130.446
29.7409
112.898
195.137
131.897
238.889
549.683
596.569
32.2809
23.3108
74.4718
200.824
226.94
261.812
254.122
659.998
927.092
621.147
72.8344
49.7189
66.7352
62.0155
30.5693
92.0847
61.3986
134.015
138.754
93.1578
39.6583
56.3679
53.1729
43.1056
103.187
47.528
149.842
157.488
105.095
84.5884
44.5653
41.5186
49.3262
95.3733
42.6204
137.32
167.728
121.328
141.651
329.171
43.5008
46.4945
39.2552
63.4429
151.468
190.08
160.81
122.396
471.654
413.393
53.6304
47.4249
125.012
60.9929
66.732
76.7727
67.1852
46.3825
64.1458
101.353
15.4913
88.3344
51.6212
54.3929
65.2906
66.0108
43.2823
75.6323
123.832
81.0642
55.8377
56.4161
49.9254
70.5904
68.0951
64.5197
83.3964
125.363
102.662
91.761
63.0266
63.7818
71.5875
49.2474
45.2931
91.3363
128.317
118.857
76.6004
213.522
69.9216
81.2304
44.5
34.3559
67.3116
59.6308
59.2156
118.625
112.236
138.114
62.6043
68.0682
57.9005
78.8162
69.3734
65.7105
94.6877
92.0982
126.27
218.023
67.135
56.2067
78.6616
78.9854
122.54
101.726
92.6387
104.843
115.306
138.442
68.3965
113.546
123.211
140.383
157.372
201.15
127.741
65.9566
161.974
115.636
)
;

boundaryField
{
    inlet
    {
        type            calculated;
        value           nonuniform 0();
    }
    outlet
    {
        type            calculated;
        value           nonuniform 0();
    }
    bottom
    {
        type            calculated;
        value           nonuniform List<scalar> 
40
(
1.1254e-22
1.51828e-22
1.06967e-22
6.25728e-23
1.88365e-22
1.23512e-22
1.22587e-22
1.27887e-22
1.18051e-22
1.35909e-22
1.00676e-22
1.79869e-22
1.48471e-22
1.13806e-22
1.69547e-22
1.78596e-22
1.19458e-22
2.06137e-22
1.6673e-22
3.05724e-22
2.2589e-22
2.15545e-22
2.79436e-22
2.98647e-22
2.49329e-22
1.88232e-22
2.46335e-22
6.10343e-22
1.33968e-22
2.2724e-22
4.82489e-22
1.74821e-21
2.17312e-22
3.70323e-22
1.25806e-21
2.92845e-21
2.65625e-22
7.85846e-22
1.69022e-21
1.68908e-22
)
;
    }
    top
    {
        type            symmetryPlane;
    }
    side1
    {
        type            symmetryPlane;
    }
    side2
    {
        type            symmetryPlane;
    }
    procBoundary26to18
    {
        type            processor;
        value           nonuniform List<scalar> 
50
(
56.1435
129.438
136.186
41.6305
253.15
105.102
270.873
179.754
145.337
54.6413
150.601
31.4587
87.5079
80.5415
26.9923
176.003
49.334
182.178
141.352
103.543
54.3639
94.3585
43.8481
102.86
74.4624
38.8761
78.6401
36.1449
121.425
119.94
263.404
25.6921
68.4693
96.3468
66.1695
59.4184
108.17
106.3
131.955
83.8547
29.7593
105.491
43.7933
16.0043
56.3676
62.3777
72.1028
40.8183
116.839
167.217
)
;
    }
    procBoundary26to25
    {
        type            processor;
        value           nonuniform List<scalar> 
20
(
57.6688
81.2014
75.9423
65.3863
48.1185
31.3753
53.8238
22.0444
26.1663
60.0493
33.1928
18.0426
229.969
41.2841
52.2744
62.2471
29.7955
55.0527
56.9738
70.3134
)
;
    }
    procBoundary26to27
    {
        type            processor;
        value           nonuniform List<scalar> 
20
(
320.057
275.975
386.557
725.553
238.913
330.815
138.229
695.722
74.9275
248.561
309.11
191.655
73.2289
101.49
190.417
205.643
136.406
115.827
118.655
145.838
)
;
    }
}


// ************************************************************************* //
