/*--------------------------------*- C++ -*----------------------------------*\
| =========                 |                                                 |
| \\      /  F ield         | OpenFOAM: The Open Source CFD Toolbox           |
|  \\    /   O peration     | Version:  2.4.0                                 |
|   \\  /    A nd           | Web:      www.OpenFOAM.org                      |
|    \\/     M anipulation  |                                                 |
\*---------------------------------------------------------------------------*/
FoamFile
{
    version     2.0;
    format      ascii;
    class       surfaceScalarField;
    location    "0.09";
    object      phib;
}
// * * * * * * * * * * * * * * * * * * * * * * * * * * * * * * * * * * * * * //

dimensions      [0 3 -1 0 0 0 0];

internalField   nonuniform List<scalar> 
490
(
-2.5204
-3.2559
-0.0380589
-4.60216
-1.76334
-0.350821
-4.88138
-0.675842
-0.635566
-3.46215
-3.61776
0.0582953
-3.29795
-4.14578
-0.203304
-1.06462
-7.72581
0.540739
-3.95743
-6.64531
1.01501
-6.46704
-6.30436
1.98033
-6.71114
-8.11328
1.94737
-4.59838
2.59234
-6.34901
-1.68688
0.0362238
-6.59956
-1.15586
-0.356932
-4.71091
-3.05158
0.487086
-4.91025
-3.3368
-0.0816208
-3.6997
-5.97548
0.619135
-6.65797
-5.7084
0.940865
-9.50688
-5.98989
2.19349
-8.81905
-9.3274
2.3352
-14.721
-5.57672
3.36538
3.28909
1.36726
-7.52512
-0.00692912
-0.0834677
-6.84241
-2.40838
0.569813
-7.22252
-2.85045
0.178977
-8.43031
-2.98559
0.85659
-12.362
-2.97044
0.926618
-15.9535
-4.5456
2.42877
-15.9164
-8.67849
2.65145
-21.6436
-7.90631
4.30618
-36.9184
7.10444
2.59364
-0.42614
-7.53988
-8.38804
-0.0221779
-10.986
0.189599
-14.3298
0.493361
-18.1381
0.822649
-23.1977
2.08914
-30.4722
2.72897
-44.3396
5.18893
-57.2205
4.97457
-37.7399
-12.3762
-8.93668
-3.34109
-2.229
0.0286817
-4.6963
-2.35903
-0.0554221
-6.17168
-2.98643
-0.109736
-6.78471
-3.2009
-0.222171
-5.74718
-5.01873
0.0423559
-6.88734
-4.45503
0.448352
-4.0147
-6.79826
-0.158677
-5.86966
-4.65475
0.829479
-5.85792
-4.24904
1.32103
-4.02757
1.07896
-4.8199
-1.3323
0.0281564
-6.3768
-1.19358
0.0345226
-6.9726
-1.91561
0.0120557
-6.33604
-4.12814
0.209056
-7.34402
-3.90829
0.516688
-4.94404
-5.78395
-0.130195
-6.25016
-4.31825
1.0196
-6.20842
-3.93634
1.57505
-3.46286
-5.11271
1.48349
0.200846
1.75671
-6.15268
-0.418722
0.040342
-6.83884
0.0787403
-0.0163467
-7.38309
-1.2799
0.0875141
-7.54278
-3.48831
0.376459
-6.4333
-3.93501
-0.156145
-7.54878
-3.27091
1.03121
-7.81002
-3.16079
1.75523
-3.42445
-6.01159
1.99585
-6.57201
-1.81254
2.44103
8.68647
-0.0402948
-4.97559
-0.216135
-4.41998
-0.287272
-4.84241
-0.364117
-7.1341
-0.373963
-9.58784
0.607863
-11.758
1.62821
-12.1159
2.38606
-17.0515
3.89859
-33.4261
2.18586
-10.5017
-2.56033
-2.10208
-0.270898
-3.50756
-2.31393
0.276253
-4.5415
-2.50109
-0.0265873
-5.54267
-2.98483
-0.0312512
-6.12027
-3.17436
-0.130178
-5.60118
-4.40705
-0.420754
-7.31191
-3.89782
0.0258166
-5.56049
-5.54267
-0.243014
-7.64819
-3.13142
0.267079
-3.72099
0.791368
-4.60077
-1.40464
-0.0448623
-5.32346
-1.4663
-0.0904268
-6.32936
-1.50341
0.0202894
-7.16592
-1.83154
-0.10768
-6.82791
-2.975
-0.0206843
-8.15281
-3.09143
-0.120922
-6.02567
-4.67388
-0.331471
-7.90996
-2.39905
0.315701
-7.64306
-2.80189
0.887063
-2.96821
0.588975
-5.28274
-0.561829
-0.189601
-5.97215
-0.648653
-0.144586
-6.85497
-0.286119
-0.246964
-7.32462
-0.818501
-0.166934
-8.18746
-2.00598
-0.262323
-6.36313
-3.35496
-0.529583
-7.83298
-1.70565
0.25685
-7.33348
-1.77649
0.873796
-4.96367
-3.52748
0.796817
0.752582
0.762314
-5.63615
-0.532209
-5.8957
-0.676377
-5.79538
-0.750561
-5.93965
-1.04819
-6.41621
-0.921549
-7.94956
-0.193416
-7.87963
0.610475
-6.91327
1.15575
-10.1902
1.93531
0.285391
-4.40566
-3.19853
-0.693958
-3.95649
-3.24093
-0.204318
-5.47024
-2.86885
-2.86272e-05
-6.41189
-3.01231
-0.081497
-7.6619
-3.18509
0.0440283
-8.80619
-3.50695
-0.484058
-9.61942
-3.48952
-0.199007
-10.2137
-3.9534
-0.306838
-9.99467
-4.91549
-0.245407
-3.58301
0.421728
-4.60254
-2.33202
-0.283446
-5.81654
-1.97481
-0.142544
-6.67408
-1.81918
-0.171838
-7.78186
-1.87605
-0.136157
-8.6853
-1.98197
-0.320368
-9.51533
-2.3676
-0.430245
-10.4137
-2.57866
-0.343932
-10.1628
-3.55169
-0.336896
-12.2691
-2.03447
0.112344
-3.34573
0.640907
-6.05321
-1.15253
-0.28827
-6.74422
-1.11729
-0.311102
-7.66219
-0.833923
-0.314254
-8.64395
-0.586489
-0.474737
-9.62195
-0.73017
-0.536121
-10.813
-1.12791
-0.578218
-10.5489
-2.18197
-0.40393
-12.399
-0.767924
-0.0599188
-12.8034
-1.47612
0.642929
-2.22314
0.168784
-9.19601
-0.534149
-10.2448
-0.744896
-10.7487
-1.08056
-11.0624
-1.32097
-11.3649
-1.34923
-11.5124
-1.17385
-12.5843
-0.499606
-12.8771
0.680689
-13.5829
1.16493
0.943251
-3.21272
-2.82249
-4.04692
-3.34685
-5.03104
-3.5276
-5.68005
-3.67307
-6.09066
-3.98435
-7.02868
-4.30016
-8.0221
-4.3676
-9.8443
-4.12969
-11.3641
-4.73334
-6.22879
-4.81186
-2.11458
-5.9376
-2.36365
-7.15966
-2.47738
-8.34434
-2.62455
-9.47346
-3.1756
-10.7459
-3.45801
-12.4422
-3.01521
-14.4618
-2.44698
-16.5776
-2.50519
-2.68885
-6.62363
-1.24615
-7.77584
-1.52254
-8.98248
-1.585
-10.5072
-1.57455
-12.2845
-1.93448
-13.6947
-2.62601
-15.388
-1.72585
-16.65
-1.24483
-19.1
0.587728
-1.72653
-9.26167
-11.5291
-14.1947
-17.0902
-20.3739
-24.1737
-26.3992
-26.9633
-25.2107
)
;

boundaryField
{
    inlet
    {
        type            fixedValue;
        value           nonuniform 0();
    }
    outlet
    {
        type            calculated;
        value           nonuniform 0();
    }
    bottom
    {
        type            fixedValue;
        value           uniform 0;
    }
    top
    {
        type            symmetryPlane;
        value           nonuniform List<scalar> 
40
(
-3.96486e-15
-4.11133e-15
-3.6169e-15
-2.87362e-15
-6.64485e-15
-4.04057e-15
-2.85994e-15
-2.58343e-15
-7.03736e-15
-3.43598e-15
-2.49185e-15
-3.7007e-15
-3.74887e-15
-3.08887e-15
-2.10949e-15
-3.26606e-15
-2.44254e-15
-2.42202e-15
-1.72463e-15
-3.22178e-15
-2.05418e-15
-2.07671e-15
-1.86165e-15
-2.72125e-15
-1.46935e-15
-1.63749e-15
-1.45097e-15
-2.38154e-15
-1.5974e-15
-1.68894e-15
-1.07413e-15
-1.33524e-15
-2.02019e-15
-1.47536e-15
-9.40121e-16
-1.1993e-15
-1.96081e-15
-1.70997e-15
-9.15401e-16
-9.36105e-16
)
;
    }
    side1
    {
        type            symmetryPlane;
        value           nonuniform 0();
    }
    side2
    {
        type            symmetryPlane;
        value           uniform 0;
    }
    procBoundary26to18
    {
        type            processor;
        value           nonuniform List<scalar> 
50
(
3.29602
4.19592
1.59063
2.14024
4.18488
4.95174
8.52312
6.83363
6.41002
6.86411
2.65243
3.41885
3.93598
4.0944
3.73555
5.68757
5.09931
7.66056
4.86364
4.95465
2.95327
2.92949
3.45188
3.79508
3.9245
4.75706
5.42405
4.86375
6.27307
4.22458
2.94903
3.27233
4.35604
4.00421
4.2609
4.71454
4.52758
4.61152
5.20894
5.57978
3.23649
3.97673
4.51169
4.24058
4.43899
4.75412
5.16201
5.64506
6.00777
7.3033
)
;
    }
    procBoundary26to25
    {
        type            processor;
        value           nonuniform List<scalar> 
20
(
2.51834
4.74378
5.92863
8.40328
2.85092
3.93127
5.11529
4.75083
2.00872
3.97636
4.66987
5.3904
5.07822
3.97462
4.97239
8.04542
2.10476
3.82051
5.46692
7.48138
)
;
    }
    procBoundary26to27
    {
        type            processor;
        value           nonuniform List<scalar> 
20
(
-11.5692
-23.9757
-25.6633
-29.2294
-5.27162
-8.08072
-22.5572
-23.1746
-7.86417
-7.22812
-9.48707
-20.2247
-11.6218
-12.5584
-13.3325
-16.4639
-12.0169
-19.4766
-19.8936
-25.994
)
;
    }
}


// ************************************************************************* //
