/*--------------------------------*- C++ -*----------------------------------*\
| =========                 |                                                 |
| \\      /  F ield         | OpenFOAM: The Open Source CFD Toolbox           |
|  \\    /   O peration     | Version:  2.4.0                                 |
|   \\  /    A nd           | Web:      www.OpenFOAM.org                      |
|    \\/     M anipulation  |                                                 |
\*---------------------------------------------------------------------------*/
FoamFile
{
    version     2.0;
    format      ascii;
    class       volScalarField;
    location    "0.1";
    object      alpha;
}
// * * * * * * * * * * * * * * * * * * * * * * * * * * * * * * * * * * * * * //

dimensions      [0 0 0 0 0 0 0];

internalField   nonuniform List<scalar> 
200
(
7.43091e-163
3.16533e-165
1.34826e-167
5.74251e-170
2.44573e-172
1.04158e-174
4.43559e-177
1.88882e-179
8.04278e-182
3.43911e-184
5.62514e-164
2.42681e-166
1.04674e-168
4.51385e-171
1.94608e-173
8.38844e-176
3.61503e-178
1.55759e-180
6.7098e-183
2.90233e-185
2.21385e-165
9.67494e-168
4.22646e-170
1.8456e-172
8.05627e-175
3.51537e-177
1.53339e-179
6.68622e-182
2.91447e-184
1.2755e-186
5.92381e-167
2.62218e-169
1.16007e-171
5.12938e-174
2.26681e-176
1.00125e-178
4.42025e-181
1.95046e-183
8.60232e-186
3.80889e-188
2.25136e-164
9.71593e-167
4.19203e-169
1.80829e-171
7.79862e-174
3.3626e-176
1.44958e-178
6.24771e-181
2.69224e-183
1.1649e-185
1.72595e-165
7.54254e-168
3.29484e-170
1.43875e-172
6.28015e-175
2.74029e-177
1.19527e-179
5.21175e-182
2.27171e-184
9.94175e-187
6.88028e-167
3.04521e-169
1.34706e-171
5.95552e-174
2.63161e-176
1.16224e-178
5.13041e-181
2.26356e-183
9.98211e-186
4.41933e-188
1.86459e-168
8.35768e-171
3.74348e-173
1.67557e-175
7.49463e-178
3.35003e-180
1.49646e-182
6.68043e-185
2.98039e-187
1.33478e-189
3.49145e-166
1.52647e-168
6.67114e-171
2.91437e-173
1.2727e-175
5.55581e-178
2.42445e-180
1.05761e-182
4.612e-185
2.01928e-187
2.71057e-167
1.19983e-169
5.30806e-172
2.34702e-174
1.03721e-176
4.5813e-179
2.02251e-181
8.92441e-184
3.93602e-186
1.74277e-188
1.09442e-168
4.90561e-171
2.19731e-173
9.83527e-176
4.39931e-178
1.96649e-180
8.7845e-183
3.92162e-185
1.74962e-187
7.83591e-190
3.00381e-170
1.36333e-172
6.18234e-175
2.80113e-177
1.2681e-179
5.73616e-182
2.59265e-184
1.17093e-186
5.28432e-189
2.39375e-191
3.66696e-168
1.62396e-170
7.18789e-173
3.17974e-175
1.40589e-177
6.21274e-180
2.74408e-182
1.21142e-184
5.34544e-187
2.36797e-189
2.88252e-169
1.29225e-171
5.78903e-174
2.59157e-176
1.15937e-178
5.18315e-181
2.31569e-183
1.03393e-185
4.61353e-188
2.06653e-190
1.17865e-170
5.34979e-173
2.42611e-175
1.0993e-177
4.9769e-180
2.25139e-182
1.01765e-184
4.5963e-187
2.07439e-189
9.39735e-192
3.27587e-172
1.50533e-174
6.91022e-177
3.16897e-179
1.45184e-181
6.6452e-184
3.03873e-186
1.3883e-188
6.33704e-191
2.90328e-193
2.94835e-170
1.32252e-172
5.9281e-175
2.65536e-177
1.1886e-179
5.31689e-182
2.37682e-184
1.06184e-186
4.74082e-189
2.12479e-191
2.34652e-171
1.06532e-173
4.83237e-176
2.19012e-178
9.91783e-181
4.48758e-183
2.02891e-185
9.16598e-188
4.13777e-190
1.87493e-192
9.71613e-173
4.46543e-175
2.05016e-177
9.40327e-180
4.3087e-182
1.97243e-184
9.02092e-187
4.12199e-189
1.88182e-191
8.62275e-194
2.73441e-174
1.27209e-176
5.91104e-179
2.74355e-181
1.27197e-183
5.8907e-186
2.72518e-188
1.25943e-190
5.81444e-193
2.69407e-195
)
;

boundaryField
{
    inlet
    {
        type            zeroGradient;
    }
    outlet
    {
        type            zeroGradient;
    }
    bottom
    {
        type            fixedValue;
        value           uniform 0;
    }
    top
    {
        type            symmetryPlane;
    }
    side1
    {
        type            symmetryPlane;
    }
    side2
    {
        type            symmetryPlane;
    }
    procBoundary7to6
    {
        type            processor;
        value           nonuniform List<scalar> 
20
(
7.34978e-160
5.53259e-161
2.16512e-162
5.76108e-164
2.21402e-161
1.68799e-162
6.69156e-164
1.80349e-165
3.414e-163
2.63611e-164
1.05854e-165
2.88965e-167
3.5655e-165
2.78787e-166
1.13382e-167
3.13454e-169
2.85085e-167
2.25706e-168
9.29632e-170
2.60259e-171
)
;
    }
    procBoundary7to15
    {
        type            processor;
        value           nonuniform List<scalar> 
50
(
1.15564e-169
5.13007e-172
2.28598e-174
1.02218e-176
4.58494e-179
2.06222e-181
9.29774e-184
4.20056e-186
1.901e-188
8.65432e-191
3.645e-171
1.63845e-173
7.39183e-176
3.3459e-178
1.51902e-180
6.9143e-183
3.15437e-185
1.44181e-187
6.60068e-190
3.03956e-192
5.88393e-173
2.67809e-175
1.22322e-177
5.60487e-180
2.57546e-182
1.18636e-184
5.4765e-187
2.53256e-189
1.17286e-191
5.46312e-194
6.42965e-175
2.9629e-177
1.36996e-179
6.35353e-182
2.95456e-184
1.37717e-186
6.43202e-189
3.009e-191
1.40952e-193
6.64045e-196
5.37748e-177
2.50873e-179
1.17417e-181
5.51145e-184
2.59366e-186
1.22327e-188
5.78012e-191
2.73536e-193
1.29602e-195
6.17525e-198
)
;
    }
}


// ************************************************************************* //
