/*--------------------------------*- C++ -*----------------------------------*\
| =========                 |                                                 |
| \\      /  F ield         | OpenFOAM: The Open Source CFD Toolbox           |
|  \\    /   O peration     | Version:  2.4.0                                 |
|   \\  /    A nd           | Web:      www.OpenFOAM.org                      |
|    \\/     M anipulation  |                                                 |
\*---------------------------------------------------------------------------*/
FoamFile
{
    version     2.0;
    format      ascii;
    class       volVectorField;
    location    "0.01";
    object      Ub;
}
// * * * * * * * * * * * * * * * * * * * * * * * * * * * * * * * * * * * * * //

dimensions      [0 1 -1 0 0 0 0];

internalField   nonuniform List<vector> 
40
(
(-1.04587e+11 -1.20463e+11 1.0511e+11)
(-1.05871e+11 -1.66153e+11 6.23326e+10)
(-1.03735e+11 -7.89139e+10 4.52467e+10)
(-1.0266e+11 -5.56232e+10 5.14022e+10)
(-9.99456e+10 -5.2353e+10 5.73113e+10)
(-8.88452e+10 -7.89227e+10 7.19515e+10)
(-1.04639e+11 -8.33518e+10 7.13699e+10)
(-1.2255e+11 -7.65708e+10 8.14506e+10)
(-1.43823e+11 -2.67736e+10 5.9231e+10)
(-1.51801e+11 -2.65052e+10 7.17687e+10)
(-1.14591e+11 -3.99218e+10 8.01103e+10)
(-1.40642e+11 -5.63253e+10 1.04896e+11)
(-1.39457e+11 -5.09052e+10 8.87935e+10)
(-1.18262e+11 -1.31862e+10 5.82642e+10)
(-1.11115e+11 -1.821e+10 6.37007e+10)
(-7.54558e+10 -6.89102e+09 4.84378e+10)
(-8.20071e+10 -1.11399e+10 5.48679e+10)
(-8.48599e+10 -1.10495e+10 4.36709e+10)
(-9.17378e+10 -1.51799e+10 4.12415e+10)
(-1.14113e+11 -2.05494e+10 4.0235e+10)
(-7.50242e+10 -1.09183e+11 2.41169e+10)
(-1.22863e+11 -3.08729e+11 3.37338e+10)
(-1.42035e+11 -1.21727e+11 1.51783e+10)
(-1.39498e+11 -3.80679e+10 8.23188e+09)
(-1.38054e+11 -4.9362e+10 1.45729e+10)
(-1.25067e+11 -7.87652e+10 1.70718e+10)
(-1.5227e+11 -1.67142e+11 2.92066e+10)
(-1.85917e+11 -1.24656e+11 1.38055e+10)
(-1.48592e+11 -3.60835e+10 2.22258e+10)
(-1.34067e+11 -2.04443e+10 3.22181e+10)
(-1.35468e+11 -6.35468e+10 3.03422e+10)
(-1.26247e+11 -5.55731e+10 3.7332e+10)
(-1.38909e+11 -5.07359e+10 3.02568e+10)
(-1.48745e+11 -4.55146e+10 2.87177e+10)
(-1.28129e+11 -1.91556e+10 3.05036e+10)
(-6.33972e+10 -1.71641e+10 1.99383e+10)
(-6.62187e+10 -1.30225e+10 1.94712e+10)
(-7.36543e+10 -1.18753e+10 1.74523e+10)
(-7.7957e+10 -1.38493e+10 2.03675e+10)
(-7.85969e+10 -1.88919e+10 2.19372e+10)
)
;

boundaryField
{
    inlet
    {
        type            fixedValue;
        value           nonuniform 0();
    }
    outlet
    {
        type            zeroGradient;
    }
    bottom
    {
        type            fixedValue;
        value           nonuniform 0();
    }
    top
    {
        type            symmetryPlane;
    }
    side1
    {
        type            symmetryPlane;
    }
    side2
    {
        type            symmetryPlane;
    }
    procBoundary113to49
    {
        type            processor;
        value           nonuniform List<vector> 
20
(
(-7.82199e+10 -4.06987e+10 1.43291e+11)
(-8.60583e+10 -4.0177e+10 5.39852e+10)
(-8.49346e+10 -1.86144e+10 3.92514e+10)
(-8.9988e+10 -1.21886e+10 7.00379e+10)
(-8.77576e+10 5.68023e+08 9.63346e+10)
(-5.9104e+10 -1.92059e+10 8.9101e+10)
(-6.89564e+10 -2.54376e+10 6.23205e+10)
(-7.96729e+10 -1.97596e+10 6.88734e+10)
(-9.55991e+10 9.37211e+09 7.70675e+10)
(-1.06259e+11 1.47802e+10 8.00753e+10)
(-7.97069e+10 -1.77488e+10 6.96285e+10)
(-8.95349e+10 -1.66568e+10 7.40764e+10)
(-1.3552e+11 -2.33851e+10 1.58231e+11)
(-1.26174e+11 2.34571e+09 7.58088e+10)
(-9.56344e+10 1.15728e+09 4.00744e+10)
(-6.00287e+10 -3.83662e+09 4.83238e+10)
(-6.57235e+10 -4.14951e+09 6.66535e+10)
(-7.81952e+10 -7.24764e+09 6.43218e+10)
(-8.24237e+10 -7.22015e+09 2.62095e+10)
(-9.23448e+10 -1.17018e+10 3.19174e+10)
)
;
    }
    procBoundary113to97
    {
        type            processor;
        value           nonuniform List<vector> 10((-1.38384e+11 -1.93056e+11 1.27274e+11) (-1.54706e+11 -2.2494e+11 1.37787e+11) (-2.00052e+11 -2.18462e+11 1.21751e+11) (-1.89559e+11 -8.14281e+10 6.78631e+10) (-1.68089e+11 -6.23376e+10 8.05455e+10) (-8.13202e+10 -1.76497e+11 3.08264e+10) (-1.53614e+11 -4.84327e+11 7.62714e+10) (-1.24913e+11 -1.39237e+11 4.58928e+10) (-1.23409e+11 -7.25885e+10 1.92164e+10) (-1.32466e+11 -7.21903e+10 7.52567e+09));
    }
    procBoundary113to112
    {
        type            processor;
        value           nonuniform List<vector> 8((-1.08218e+11 -1.38535e+11 9.64036e+10) (-8.3541e+10 -6.92465e+10 6.07072e+10) (-9.23087e+10 -5.06026e+10 8.57113e+10) (-7.11951e+10 -1.23041e+10 5.76045e+10) (-7.87595e+10 -1.25599e+11 2.14173e+10) (-1.36714e+11 -1.25005e+11 2.69013e+10) (-1.20434e+11 -7.72417e+10 3.49018e+10) (-5.23522e+10 -1.80411e+10 2.29739e+10));
    }
    procBoundary113to114
    {
        type            processor;
        value           nonuniform List<vector> 8((-9.45655e+10 -7.01209e+10 8.38603e+10) (-1.77229e+11 -4.60676e+10 1.05642e+11) (-1.02322e+11 -2.13611e+10 3.49416e+10) (-1.27702e+11 -1.99594e+10 4.3561e+10) (-1.55102e+11 -1.23617e+11 3.84495e+10) (-1.35625e+11 -5.29779e+10 4.26238e+10) (-1.02987e+11 -1.22711e+10 1.83707e+10) (-8.11914e+10 -1.75931e+10 2.20315e+10));
    }
}


// ************************************************************************* //
