/*--------------------------------*- C++ -*----------------------------------*\
| =========                 |                                                 |
| \\      /  F ield         | OpenFOAM: The Open Source CFD Toolbox           |
|  \\    /   O peration     | Version:  2.4.0                                 |
|   \\  /    A nd           | Web:      www.OpenFOAM.org                      |
|    \\/     M anipulation  |                                                 |
\*---------------------------------------------------------------------------*/
FoamFile
{
    version     2.0;
    format      ascii;
    class       volScalarField;
    location    "0.01";
    object      p;
}
// * * * * * * * * * * * * * * * * * * * * * * * * * * * * * * * * * * * * * //

dimensions      [1 -1 -2 0 0 0 0];

internalField   nonuniform List<scalar> 
40
(
-1.94129e+15
-1.79264e+15
-1.6171e+15
-1.37135e+15
-1.15991e+15
-1.99339e+15
-1.81414e+15
-1.64293e+15
-1.456e+15
-1.22403e+15
-2.03991e+15
-1.81048e+15
-1.65596e+15
-1.51086e+15
-1.30436e+15
-2.21472e+15
-1.8906e+15
-1.67554e+15
-1.46338e+15
-1.19693e+15
-2.04324e+15
-1.83593e+15
-1.57318e+15
-1.27868e+15
-1.00575e+15
-2.06738e+15
-1.93215e+15
-1.68324e+15
-1.41161e+15
-1.13966e+15
-2.1318e+15
-1.91252e+15
-1.66949e+15
-1.41847e+15
-1.11877e+15
-2.17637e+15
-1.89286e+15
-1.63414e+15
-1.36337e+15
-1.08954e+15
)
;

boundaryField
{
    inlet
    {
        type            zeroGradient;
    }
    outlet
    {
        type            fixedValue;
        value           nonuniform 0();
    }
    bottom
    {
        type            zeroGradient;
    }
    top
    {
        type            symmetryPlane;
    }
    side1
    {
        type            symmetryPlane;
    }
    side2
    {
        type            symmetryPlane;
    }
    procBoundary61to45
    {
        type            processor;
        value           nonuniform List<scalar> 10(-1.88713e+15 -1.70097e+15 -1.50694e+15 -1.28583e+15 -1.05315e+15 -1.82198e+15 -1.61844e+15 -1.35357e+15 -1.03846e+15 -8.51607e+14);
    }
    procBoundary61to60
    {
        type            processor;
        value           nonuniform List<scalar> 8(-2.09516e+15 -2.15552e+15 -2.32755e+15 -2.52203e+15 -2.14856e+15 -2.17656e+15 -2.2965e+15 -2.40031e+15);
    }
    procBoundary61to62
    {
        type            processor;
        value           nonuniform List<scalar> 8(-1.01518e+15 -1.02701e+15 -1.01141e+15 -9.23991e+14 -8.14598e+14 -9.05337e+14 -8.92862e+14 -9.00697e+14);
    }
    procBoundary61to125
    {
        type            processor;
        value           nonuniform List<scalar> 
20
(
-1.96301e+15
-1.73281e+15
-1.40947e+15
-1.02633e+15
-7.73354e+14
-2.02325e+15
-1.84468e+15
-1.55777e+15
-1.24891e+15
-8.96668e+14
-2.06821e+15
-1.81431e+15
-1.52753e+15
-1.20838e+15
-8.78296e+14
-2.27861e+15
-1.88479e+15
-1.46046e+15
-1.0387e+15
-8.20194e+14
)
;
    }
}


// ************************************************************************* //
