/*--------------------------------*- C++ -*----------------------------------*\
| =========                 |                                                 |
| \\      /  F ield         | OpenFOAM: The Open Source CFD Toolbox           |
|  \\    /   O peration     | Version:  2.4.0                                 |
|   \\  /    A nd           | Web:      www.OpenFOAM.org                      |
|    \\/     M anipulation  |                                                 |
\*---------------------------------------------------------------------------*/
FoamFile
{
    version     2.0;
    format      ascii;
    class       volVectorField;
    location    "0.06";
    object      A_Source;
}
// * * * * * * * * * * * * * * * * * * * * * * * * * * * * * * * * * * * * * //

dimensions      [1 -2 -2 0 0 0 0];

internalField   nonuniform List<vector> 
200
(
(9.05271e-31 -1.17648e-30 -6.2839e-31)
(8.57393e-33 -1.11399e-32 -5.95155e-33)
(7.88345e-35 -1.02406e-34 -5.47226e-35)
(6.86223e-37 -8.9123e-37 -4.76338e-37)
(5.66789e-39 -7.35968e-39 -3.93434e-39)
(4.47819e-41 -5.81361e-41 -3.10851e-41)
(3.41151e-43 -4.42779e-43 -2.36809e-43)
(2.52206e-45 -3.27252e-45 -1.75067e-45)
(1.81833e-47 -2.35873e-47 -1.26219e-47)
(1.28319e-49 -1.66404e-49 -8.9072e-50)
(2.9669e-33 -3.85717e-33 -2.05946e-33)
(2.58202e-35 -3.3561e-35 -1.79229e-35)
(2.27936e-37 -2.96206e-37 -1.5822e-37)
(1.98454e-39 -2.57841e-39 -1.37756e-39)
(1.67829e-41 -2.18007e-41 -1.16498e-41)
(1.372e-43 -1.78186e-43 -9.52369e-44)
(1.08495e-45 -1.40876e-45 -7.5311e-46)
(8.32226e-48 -1.08038e-47 -5.77685e-48)
(6.21297e-50 -8.06367e-50 -4.3127e-50)
(4.52837e-52 -5.87582e-52 -3.14334e-52)
(8.82986e-36 -1.14824e-35 -6.1292e-36)
(7.67064e-38 -9.97342e-38 -5.32454e-38)
(6.6475e-40 -8.64152e-40 -4.61433e-40)
(5.72727e-42 -7.44377e-42 -3.97555e-42)
(4.86254e-44 -6.31863e-44 -3.37531e-44)
(4.03939e-46 -5.24796e-46 -2.80392e-46)
(3.27122e-48 -4.24913e-48 -2.2707e-48)
(2.58025e-50 -3.35094e-50 -1.79107e-50)
(1.9839e-52 -2.57594e-52 -1.37711e-52)
(1.48926e-54 -1.93328e-54 -1.03376e-54)
(2.38049e-38 -3.0962e-38 -1.6524e-38)
(2.14374e-40 -2.78795e-40 -1.48807e-40)
(1.88105e-42 -2.44597e-42 -1.30572e-42)
(1.62489e-44 -2.11252e-44 -1.12791e-44)
(1.38394e-46 -1.79893e-46 -9.60654e-47)
(1.15946e-48 -1.50686e-48 -8.04834e-49)
(9.52724e-51 -1.23795e-50 -6.61329e-51)
(7.66248e-53 -9.95462e-53 -5.31887e-53)
(6.02713e-55 -7.82859e-55 -4.1837e-55)
(4.63713e-57 -6.02197e-57 -3.21884e-57)
(8.77155e-33 -1.13969e-32 -6.08873e-33)
(8.66905e-35 -1.1261e-34 -6.01758e-35)
(8.30488e-37 -1.07857e-36 -5.76479e-37)
(7.51673e-39 -9.76023e-39 -5.2177e-39)
(6.44372e-41 -8.3653e-41 -4.47288e-41)
(5.27578e-43 -6.84759e-43 -3.66216e-43)
(4.15918e-45 -5.39703e-45 -2.88707e-45)
(3.17809e-47 -4.12287e-47 -2.20606e-47)
(2.3657e-49 -3.0681e-49 -1.64214e-49)
(1.72193e-51 -2.23251e-51 -1.19527e-51)
(3.00798e-35 -3.90983e-35 -2.08797e-35)
(2.71924e-37 -3.53379e-37 -1.88755e-37)
(2.49299e-39 -3.23905e-39 -1.7305e-39)
(2.2522e-41 -2.9256e-41 -1.56336e-41)
(1.97391e-43 -2.56359e-43 -1.37018e-43)
(1.67023e-45 -2.16876e-45 -1.15938e-45)
(1.36539e-47 -1.77257e-47 -9.47782e-48)
(1.0815e-49 -1.4037e-49 -7.50716e-50)
(8.32841e-52 -1.08071e-51 -5.78112e-52)
(6.25549e-54 -8.11526e-54 -4.34222e-54)
(9.33653e-38 -1.21391e-37 -6.48091e-38)
(8.40745e-40 -1.09295e-39 -5.83599e-40)
(7.54831e-42 -9.81085e-42 -5.23963e-42)
(6.73342e-44 -8.74995e-44 -4.67397e-44)
(5.91434e-46 -7.68405e-46 -4.10541e-46)
(5.07819e-48 -6.59642e-48 -3.525e-48)
(4.24644e-50 -5.51492e-50 -2.94764e-50)
(3.45517e-52 -4.4864e-52 -2.39839e-52)
(2.73782e-54 -3.55422e-54 -1.90045e-54)
(2.11613e-56 -2.74656e-56 -1.4689e-56)
(2.61805e-40 -3.40465e-40 -1.81731e-40)
(2.44085e-42 -3.17385e-42 -1.6943e-42)
(2.21532e-44 -2.88017e-44 -1.53775e-44)
(1.97793e-46 -2.5711e-46 -1.37297e-46)
(1.74e-48 -2.26141e-48 -1.20781e-48)
(1.50458e-50 -1.95507e-50 -1.0444e-50)
(1.27499e-52 -1.65643e-52 -8.85026e-53)
(1.05665e-54 -1.37251e-54 -7.33467e-55)
(8.55726e-57 -1.11132e-56 -5.93998e-57)
(6.77305e-59 -8.79433e-59 -4.70148e-59)
(4.44507e-35 -5.77426e-35 -3.08553e-35)
(4.57686e-37 -5.94401e-37 -3.17701e-37)
(4.56154e-39 -5.92289e-39 -3.16637e-39)
(4.28717e-41 -5.56556e-41 -2.97592e-41)
(3.8098e-43 -4.94487e-43 -2.64456e-43)
(3.22879e-45 -4.18984e-45 -2.24125e-45)
(2.63144e-47 -3.41387e-47 -1.8266e-47)
(2.07631e-49 -2.69297e-49 -1.44126e-49)
(1.59435e-51 -2.06727e-51 -1.10671e-51)
(1.19598e-53 -1.55027e-53 -8.30186e-54)
(1.59218e-37 -2.06915e-37 -1.1052e-37)
(1.49315e-39 -1.94005e-39 -1.03646e-39)
(1.41984e-41 -1.84439e-41 -9.85574e-42)
(1.32936e-43 -1.72649e-43 -9.22767e-44)
(1.20612e-45 -1.56613e-45 -8.37224e-46)
(1.05524e-47 -1.36994e-47 -7.32492e-48)
(8.9094e-50 -1.1564e-49 -6.18442e-50)
(7.2806e-52 -9.44784e-52 -5.05379e-52)
(5.77867e-54 -7.49706e-54 -4.01123e-54)
(4.46946e-56 -5.79708e-56 -3.10245e-56)
(5.1463e-40 -6.68994e-40 -3.57228e-40)
(4.79804e-42 -6.23628e-42 -3.33053e-42)
(4.45777e-44 -5.79295e-44 -3.09434e-44)
(4.11276e-46 -5.34352e-46 -2.85485e-46)
(3.73353e-48 -4.84983e-48 -2.59161e-48)
(3.31026e-50 -4.29917e-50 -2.2978e-50)
(2.85573e-52 -3.70812e-52 -1.98229e-52)
(2.39496e-54 -3.1092e-54 -1.66245e-54)
(1.95426e-56 -2.53655e-56 -1.35654e-56)
(1.55416e-58 -2.01681e-58 -1.07881e-58)
(1.49892e-42 -1.94896e-42 -1.04047e-42)
(1.44521e-44 -1.87891e-44 -1.00318e-44)
(1.35534e-46 -1.76182e-46 -9.40803e-47)
(1.24955e-48 -1.62402e-48 -8.67367e-49)
(1.13433e-50 -1.47401e-50 -7.87393e-51)
(1.01148e-52 -1.31412e-52 -7.02112e-53)
(8.83235e-55 -1.14729e-54 -6.13093e-55)
(7.53692e-57 -9.78834e-57 -5.23172e-57)
(6.27991e-59 -8.15428e-59 -4.35917e-59)
(5.11006e-61 -6.63396e-61 -3.54712e-61)
(1.56449e-37 -2.03188e-37 -1.08599e-37)
(1.67561e-39 -2.17565e-39 -1.16311e-39)
(1.73484e-41 -2.2521e-41 -1.20423e-41)
(1.69084e-43 -2.19456e-43 -1.17369e-43)
(1.5557e-45 -2.01876e-45 -1.07988e-45)
(1.36319e-47 -1.76857e-47 -9.46254e-48)
(1.14733e-49 -1.48816e-49 -7.96415e-50)
(9.33911e-52 -1.21102e-51 -6.4827e-52)
(7.39085e-54 -9.58106e-54 -5.13032e-54)
(5.70886e-56 -7.39834e-56 -3.96278e-56)
(5.8433e-40 -7.59234e-40 -4.0561e-40)
(5.67724e-42 -7.37502e-42 -3.94083e-42)
(5.59213e-44 -7.26285e-44 -3.88175e-44)
(5.4196e-46 -7.0373e-46 -3.76199e-46)
(5.08455e-48 -6.60092e-48 -3.52942e-48)
(4.5948e-50 -5.96392e-50 -3.18946e-50)
(4.00266e-52 -5.19427e-52 -2.77843e-52)
(3.37147e-54 -4.37421e-54 -2.34029e-54)
(2.75568e-56 -3.57443e-56 -1.91284e-56)
(2.19296e-58 -2.8438e-58 -1.52223e-58)
(1.96379e-42 -2.55238e-42 -1.36315e-42)
(1.89339e-44 -2.46052e-44 -1.31428e-44)
(1.81831e-46 -2.36251e-46 -1.26217e-46)
(1.73315e-48 -2.25142e-48 -1.20306e-48)
(1.62438e-50 -2.10969e-50 -1.12755e-50)
(1.48575e-52 -1.92926e-52 -1.03133e-52)
(1.32111e-54 -1.71514e-54 -9.1704e-55)
(1.14098e-56 -1.481e-56 -7.92009e-57)
(9.57984e-59 -1.2432e-58 -6.6498e-59)
(7.83282e-61 -1.01627e-60 -5.43711e-61)
(5.93308e-45 -7.7132e-45 -4.11842e-45)
(5.90942e-47 -7.68161e-47 -4.102e-47)
(5.7205e-49 -7.43497e-49 -3.97086e-49)
(5.44046e-51 -7.0698e-51 -3.77647e-51)
(5.09167e-53 -6.61534e-53 -3.53436e-53)
(4.67772e-55 -6.07636e-55 -3.24701e-55)
(4.20543e-57 -5.46182e-57 -2.91918e-57)
(3.69207e-59 -4.79418e-59 -2.56283e-59)
(3.16266e-61 -4.10596e-61 -2.19535e-61)
(2.64384e-63 -3.43171e-63 -1.83521e-63)
(4.30347e-40 -5.58791e-40 -2.97365e-40)
(4.78763e-42 -6.21504e-42 -3.30764e-42)
(5.14271e-44 -6.67461e-44 -3.55234e-44)
(5.19162e-46 -6.73682e-46 -3.58553e-46)
(4.94025e-48 -6.40938e-48 -3.41135e-48)
(4.47144e-50 -5.7999e-50 -3.08711e-50)
(3.88292e-52 -5.03531e-52 -2.68035e-52)
(3.25778e-54 -4.2235e-54 -2.24844e-54)
(2.65499e-56 -3.44102e-56 -1.83211e-56)
(2.11012e-58 -2.73398e-58 -1.45588e-58)
(1.67348e-42 -2.17397e-42 -1.15614e-42)
(1.68252e-44 -2.18526e-44 -1.16221e-44)
(1.7148e-46 -2.22669e-46 -1.18431e-46)
(1.71841e-48 -2.23091e-48 -1.18661e-48)
(1.66539e-50 -2.16164e-50 -1.1498e-50)
(1.55303e-52 -2.01539e-52 -1.07205e-52)
(1.39468e-54 -1.80953e-54 -9.62582e-55)
(1.20989e-56 -1.56943e-56 -8.34908e-57)
(1.01761e-58 -1.31969e-58 -7.02101e-59)
(8.32632e-61 -1.07953e-60 -5.74382e-61)
(5.83989e-45 -7.58892e-45 -4.03386e-45)
(5.81668e-47 -7.55766e-47 -4.0172e-47)
(5.76821e-49 -7.49328e-49 -3.98309e-49)
(5.67478e-51 -7.37042e-51 -3.91794e-51)
(5.48616e-53 -7.124e-53 -3.78709e-53)
(5.17213e-55 -6.71489e-55 -3.56973e-55)
(4.73644e-57 -6.14803e-57 -3.26848e-57)
(4.20948e-59 -5.46292e-59 -2.90436e-59)
(3.63409e-61 -4.71522e-61 -2.50695e-61)
(3.05291e-63 -3.96028e-63 -2.10568e-63)
(1.828e-47 -2.37607e-47 -1.26246e-47)
(1.87904e-49 -2.44216e-49 -1.29751e-49)
(1.87585e-51 -2.43767e-51 -1.2951e-51)
(1.83874e-53 -2.38903e-53 -1.26927e-53)
(1.77264e-55 -2.30273e-55 -1.22345e-55)
(1.67652e-57 -2.17746e-57 -1.15692e-57)
(1.55067e-59 -2.01362e-59 -1.0699e-59)
(1.39965e-61 -1.81716e-61 -9.65539e-62)
(1.23179e-63 -1.59893e-63 -8.49607e-64)
(1.05721e-65 -1.37203e-65 -7.29068e-66)
)
;

boundaryField
{
    inlet
    {
        type            zeroGradient;
    }
    outlet
    {
        type            zeroGradient;
    }
    bottom
    {
        type            zeroGradient;
    }
    top
    {
        type            symmetryPlane;
    }
    side1
    {
        type            symmetryPlane;
    }
    side2
    {
        type            symmetryPlane;
    }
    procBoundary17to9
    {
        type            processor;
        value           nonuniform List<vector> 
50
(
(5.93726e-28 -7.7115e-28 -4.12132e-28)
(4.88422e-30 -6.34285e-30 -3.39036e-30)
(3.84115e-32 -4.98741e-32 -2.66632e-32)
(2.91923e-34 -3.78956e-34 -2.02637e-34)
(2.16054e-36 -2.80395e-36 -1.49973e-36)
(1.56541e-38 -2.03098e-38 -1.08662e-38)
(1.11419e-40 -1.44507e-40 -7.73408e-41)
(7.80667e-43 -1.01213e-42 -5.41896e-43)
(5.39121e-45 -6.98699e-45 -3.74228e-45)
(3.67203e-47 -4.75707e-47 -2.54892e-47)
(5.59102e-30 -7.25998e-30 -3.88098e-30)
(4.79403e-32 -6.22421e-32 -3.32775e-32)
(3.92343e-34 -5.09302e-34 -2.72343e-34)
(3.09848e-36 -4.02129e-36 -2.1508e-36)
(2.37988e-38 -3.08787e-38 -1.65198e-38)
(1.78738e-40 -2.3184e-40 -1.2407e-40)
(1.31721e-42 -1.70796e-42 -9.14336e-43)
(9.54581e-45 -1.2373e-44 -6.62618e-45)
(6.81152e-47 -8.82544e-47 -4.72818e-47)
(4.78909e-49 -6.20257e-49 -3.32432e-49)
(2.75572e-32 -3.57743e-32 -1.91287e-32)
(2.45909e-34 -3.19192e-34 -1.70697e-34)
(2.09133e-36 -2.7141e-36 -1.45168e-36)
(1.71399e-38 -2.22393e-38 -1.18976e-38)
(1.36457e-40 -1.77009e-40 -9.4721e-41)
(1.0611e-42 -1.37602e-42 -7.3656e-43)
(8.08808e-45 -1.04848e-44 -5.6143e-45)
(6.05652e-47 -7.84829e-47 -4.20411e-47)
(4.46134e-49 -5.7789e-49 -3.09682e-49)
(3.23511e-51 -4.18883e-51 -2.24564e-51)
(9.44089e-35 -1.22529e-34 -6.55335e-35)
(8.75436e-37 -1.13604e-36 -6.0768e-37)
(7.72577e-39 -1.0024e-38 -5.36281e-39)
(6.56241e-41 -8.51279e-41 -4.55526e-41)
(5.40877e-43 -7.01445e-43 -3.75447e-43)
(4.34971e-45 -5.63924e-45 -3.01933e-45)
(3.42552e-47 -4.4395e-47 -2.37781e-47)
(2.64779e-49 -3.43025e-49 -1.83795e-49)
(2.0115e-51 -2.60488e-51 -1.39627e-51)
(1.50302e-53 -1.94561e-53 -1.04332e-53)
(2.52953e-37 -3.28216e-37 -1.74808e-37)
(2.43412e-39 -3.15796e-39 -1.68187e-39)
(2.22634e-41 -2.88793e-41 -1.53806e-41)
(1.9577e-43 -2.53893e-43 -1.35225e-43)
(1.66863e-45 -2.16347e-45 -1.15239e-45)
(1.38638e-47 -1.79695e-47 -9.57305e-48)
(1.12697e-49 -1.46021e-49 -7.78059e-50)
(8.98384e-52 -1.16357e-51 -6.20139e-52)
(7.03281e-54 -9.10508e-54 -4.85383e-54)
(5.41075e-56 -7.00215e-56 -3.73372e-56)
)
;
    }
    procBoundary17to16
    {
        type            processor;
        value           nonuniform List<vector> 
20
(
(1.93179e-28 -2.51046e-28 -1.34094e-28)
(5.08865e-31 -6.61512e-31 -3.53226e-31)
(1.25707e-33 -1.63459e-33 -8.72587e-34)
(2.93801e-36 -3.82121e-36 -2.03941e-36)
(1.8203e-30 -2.36504e-30 -1.26355e-30)
(5.00108e-33 -6.49997e-33 -3.47148e-33)
(1.28636e-35 -1.67237e-35 -8.92919e-36)
(3.1255e-38 -4.06436e-38 -2.16955e-38)
(8.9773e-33 -1.16612e-32 -6.23155e-33)
(2.56836e-35 -3.33744e-35 -1.78281e-35)
(6.86851e-38 -8.92798e-38 -4.76775e-38)
(1.73261e-40 -2.25269e-40 -1.20269e-40)
(3.07725e-35 -3.99632e-35 -2.13606e-35)
(9.15348e-38 -1.1892e-37 -6.35385e-38)
(2.54144e-40 -3.30286e-40 -1.76413e-40)
(6.64695e-43 -8.64068e-43 -4.61395e-43)
(8.24922e-38 -1.07105e-37 -5.70076e-38)
(2.54774e-40 -3.3093e-40 -1.76037e-40)
(7.33473e-43 -9.53045e-43 -5.06713e-43)
(1.98664e-45 -2.58209e-45 -1.37223e-45)
)
;
    }
    procBoundary17to18
    {
        type            processor;
        value           nonuniform List<vector> 
20
(
(3.38051e-52 -4.38446e-52 -2.34657e-52)
(1.67505e-54 -2.17392e-54 -1.16273e-54)
(6.91481e-57 -8.97789e-57 -4.79988e-57)
(2.50423e-59 -3.25243e-59 -1.7383e-59)
(4.62866e-54 -6.00204e-54 -3.21296e-54)
(2.36771e-56 -3.07231e-56 -1.64354e-56)
(1.00651e-58 -1.30659e-58 -6.98663e-59)
(3.7481e-61 -4.86718e-61 -2.60173e-61)
(3.27911e-56 -4.25118e-56 -2.27618e-56)
(1.73023e-58 -2.24471e-58 -1.20103e-58)
(7.56866e-61 -9.82352e-61 -5.25375e-61)
(2.89624e-63 -3.7604e-63 -2.01041e-63)
(1.59587e-58 -2.06852e-58 -1.10776e-58)
(8.67838e-61 -1.12568e-60 -6.02405e-61)
(3.90343e-63 -5.06549e-63 -2.70955e-63)
(1.53384e-65 -1.99118e-65 -1.06471e-65)
(6.01204e-61 -7.79099e-61 -4.14753e-61)
(3.3669e-63 -4.36642e-63 -2.32231e-63)
(1.55612e-65 -2.01904e-65 -1.07315e-65)
(6.27529e-68 -8.1451e-68 -4.32691e-68)
)
;
    }
    procBoundary17to25
    {
        type            processor;
        value           nonuniform List<vector> 
50
(
(2.38999e-41 -3.10939e-41 -1.659e-41)
(2.66665e-43 -3.46879e-43 -1.85104e-43)
(2.8057e-45 -3.64917e-45 -1.94756e-45)
(2.75781e-47 -3.5864e-47 -1.91432e-47)
(2.56347e-49 -3.33321e-49 -1.77942e-49)
(2.27959e-51 -2.96367e-51 -1.58236e-51)
(1.95502e-53 -2.54133e-53 -1.35707e-53)
(1.6256e-55 -2.11279e-55 -1.1284e-55)
(1.31518e-57 -1.70907e-57 -9.12924e-58)
(1.03791e-59 -1.34854e-59 -7.20457e-60)
(2.68718e-43 -3.49553e-43 -1.8653e-43)
(3.11098e-45 -4.04618e-45 -2.15947e-45)
(3.39094e-47 -4.40971e-47 -2.35381e-47)
(3.44734e-49 -4.48245e-49 -2.39295e-49)
(3.30987e-51 -4.30312e-51 -2.29753e-51)
(3.03683e-53 -3.94759e-53 -2.108e-53)
(2.68456e-55 -3.48915e-55 -1.86347e-55)
(2.2988e-57 -2.98733e-57 -1.5957e-57)
(1.91371e-59 -2.4865e-59 -1.32839e-59)
(1.55276e-61 -2.01719e-61 -1.07784e-61)
(1.57204e-45 -2.04463e-45 -1.09122e-45)
(1.88617e-47 -2.45283e-47 -1.30928e-47)
(2.12758e-49 -2.76638e-49 -1.47685e-49)
(2.23493e-51 -2.90558e-51 -1.55136e-51)
(2.21443e-53 -2.87854e-53 -1.53714e-53)
(2.09455e-55 -2.72232e-55 -1.45392e-55)
(1.90705e-57 -2.47826e-57 -1.32377e-57)
(1.68053e-59 -2.18356e-59 -1.16653e-59)
(1.43856e-61 -1.86888e-61 -9.98572e-62)
(1.19933e-63 -1.55783e-63 -8.32509e-64)
(6.35475e-48 -8.26393e-48 -4.41112e-48)
(7.89253e-50 -1.02621e-49 -5.47856e-50)
(9.20281e-52 -1.19642e-51 -6.38809e-52)
(9.97866e-54 -1.29711e-53 -6.92664e-54)
(1.01938e-55 -1.3249e-55 -7.07595e-56)
(9.93116e-58 -1.29058e-57 -6.89367e-58)
(9.30538e-60 -1.20908e-59 -6.45928e-60)
(8.43207e-62 -1.09544e-61 -5.85308e-62)
(7.41667e-64 -9.6338e-64 -5.14825e-64)
(6.34892e-66 -8.24553e-66 -4.40707e-66)
(1.99859e-50 -2.59866e-50 -1.38014e-50)
(2.56677e-52 -3.33691e-52 -1.77219e-52)
(3.09081e-54 -4.01765e-54 -2.13364e-54)
(3.45631e-56 -4.49216e-56 -2.38556e-56)
(3.63732e-58 -4.72678e-58 -2.51007e-58)
(3.64714e-60 -4.73888e-60 -2.51644e-60)
(3.5143e-62 -4.5656e-62 -2.42438e-62)
(3.27239e-64 -4.25068e-64 -2.25712e-64)
(2.95569e-66 -3.8387e-66 -2.03834e-66)
(2.59641e-68 -3.37154e-68 -1.79027e-68)
)
;
    }
}


// ************************************************************************* //
