/*--------------------------------*- C++ -*----------------------------------*\
| =========                 |                                                 |
| \\      /  F ield         | OpenFOAM: The Open Source CFD Toolbox           |
|  \\    /   O peration     | Version:  2.4.0                                 |
|   \\  /    A nd           | Web:      www.OpenFOAM.org                      |
|    \\/     M anipulation  |                                                 |
\*---------------------------------------------------------------------------*/
FoamFile
{
    version     2.0;
    format      ascii;
    class       volScalarField;
    location    "0.06";
    object      alpha;
}
// * * * * * * * * * * * * * * * * * * * * * * * * * * * * * * * * * * * * * //

dimensions      [0 0 0 0 0 0 0];

internalField   nonuniform List<scalar> 
200
(
2.59399e-40
2.4568e-42
2.25895e-44
1.96632e-46
1.62409e-48
1.28319e-50
9.77545e-53
7.22678e-55
5.2103e-57
3.67689e-59
8.50145e-43
7.39858e-45
6.53134e-47
5.68657e-49
4.80902e-51
3.93138e-53
3.10884e-55
2.38468e-57
1.78028e-59
1.29757e-61
2.53013e-45
2.19797e-47
1.90479e-49
1.64111e-51
1.39333e-53
1.15746e-55
9.37345e-58
7.39353e-60
5.68472e-62
4.26736e-64
6.82111e-48
6.14273e-50
5.39001e-52
4.65601e-54
3.96558e-56
3.32235e-58
2.72996e-60
2.19563e-62
1.72703e-64
1.32874e-66
2.51343e-42
2.48405e-44
2.37971e-46
2.15386e-48
1.8464e-50
1.51174e-52
1.19178e-54
9.10659e-57
6.77875e-59
4.93407e-61
8.61915e-45
7.79178e-47
7.14348e-49
6.45353e-51
5.65611e-53
4.78593e-55
3.91244e-57
3.09895e-59
2.38645e-61
1.79247e-63
2.67532e-47
2.4091e-49
2.16292e-51
1.92941e-53
1.69471e-55
1.45512e-57
1.21679e-59
9.90055e-62
7.84504e-64
6.06362e-66
7.50184e-50
6.99409e-52
6.34783e-54
5.66761e-56
4.98585e-58
4.31126e-60
3.65339e-62
3.02775e-64
2.45202e-66
1.94077e-68
1.2737e-44
1.31147e-46
1.30708e-48
1.22846e-50
1.09167e-52
9.25186e-55
7.5402e-57
5.94953e-59
4.56849e-61
3.427e-63
4.56227e-47
4.27852e-49
4.06845e-51
3.80918e-53
3.45606e-55
3.02372e-57
2.55293e-59
2.08621e-61
1.65584e-63
1.28069e-65
1.47464e-49
1.37484e-51
1.27734e-53
1.17848e-55
1.06982e-57
9.48533e-60
8.18289e-62
6.86258e-64
5.59979e-66
4.45334e-68
4.29505e-52
4.14114e-54
3.88363e-56
3.58049e-58
3.25036e-60
2.89832e-62
2.53085e-64
2.15965e-66
1.79946e-68
1.46425e-70
4.48295e-47
4.80133e-49
4.97107e-51
4.84497e-53
4.45774e-55
3.90614e-57
3.2876e-59
2.67606e-61
2.1178e-63
1.63584e-65
1.67436e-49
1.62677e-51
1.60238e-53
1.55295e-55
1.45694e-57
1.31661e-59
1.14693e-61
9.66071e-64
7.8962e-66
6.28378e-68
5.62709e-52
5.42536e-54
5.21023e-56
4.96623e-58
4.65454e-60
4.25731e-62
3.78554e-64
3.26941e-66
2.74504e-68
2.24444e-70
1.70008e-54
1.6933e-56
1.63917e-58
1.55892e-60
1.45898e-62
1.34037e-64
1.20504e-66
1.05794e-68
9.06239e-71
7.57573e-73
1.23313e-49
1.37186e-51
1.47361e-53
1.48762e-55
1.4156e-57
1.28126e-59
1.11262e-61
9.33493e-64
7.60769e-66
6.04641e-68
4.79523e-52
4.82113e-54
4.91364e-56
4.92399e-58
4.77205e-60
4.45009e-62
3.99635e-64
3.46686e-66
2.91588e-68
2.38585e-70
1.67338e-54
1.66673e-56
1.65284e-58
1.62607e-60
1.57202e-62
1.48204e-64
1.35719e-66
1.2062e-68
1.04132e-70
8.7479e-73
5.238e-57
5.38425e-59
5.37513e-61
5.26877e-63
5.07938e-65
4.80396e-67
4.44335e-69
4.01059e-71
3.52962e-73
3.02935e-75
)
;

boundaryField
{
    inlet
    {
        type            zeroGradient;
    }
    outlet
    {
        type            zeroGradient;
    }
    bottom
    {
        type            fixedValue;
        value           uniform 0;
    }
    top
    {
        type            symmetryPlane;
    }
    side1
    {
        type            symmetryPlane;
    }
    side2
    {
        type            symmetryPlane;
    }
    procBoundary17to9
    {
        type            processor;
        value           nonuniform List<scalar> 
50
(
1.70128e-37
1.39954e-39
1.10066e-41
8.36485e-44
6.19087e-46
4.48558e-48
3.19263e-50
2.23695e-52
1.54481e-54
1.0522e-56
1.60207e-39
1.3737e-41
1.12423e-43
8.87849e-46
6.81938e-48
5.12161e-50
3.77438e-52
2.73528e-54
1.95179e-56
1.37228e-58
7.89632e-42
7.04636e-44
5.99255e-46
4.91132e-48
3.91008e-50
3.04052e-52
2.31758e-54
1.73545e-56
1.27836e-58
9.26998e-61
2.70522e-44
2.5085e-46
2.21377e-48
1.88041e-50
1.54985e-52
1.24638e-54
9.81559e-57
7.58705e-59
5.7638e-61
4.30681e-63
7.2482e-47
6.97481e-49
6.37943e-51
5.60965e-53
4.78134e-55
3.97257e-57
3.22927e-59
2.57426e-61
2.0152e-63
1.55041e-65
)
;
    }
    procBoundary17to16
    {
        type            processor;
        value           nonuniform List<scalar> 
20
(
5.53541e-38
1.45812e-40
3.60204e-43
8.41867e-46
5.21595e-40
1.43302e-42
3.68597e-45
8.95589e-48
2.57238e-42
7.35945e-45
1.96812e-47
4.96468e-50
8.81764e-45
2.62287e-47
7.28232e-50
1.90464e-52
2.36376e-47
7.30037e-50
2.10172e-52
5.69259e-55
)
;
    }
    procBoundary17to18
    {
        type            processor;
        value           nonuniform List<scalar> 
20
(
9.68662e-62
4.79973e-64
1.98139e-66
7.17569e-69
1.32631e-63
6.78452e-66
2.88408e-68
1.07399e-70
9.39607e-66
4.95785e-68
2.16875e-70
8.29898e-73
4.57285e-68
2.48673e-70
1.1185e-72
4.39511e-75
1.72271e-70
9.6476e-73
4.45896e-75
1.79814e-77
)
;
    }
    procBoundary17to25
    {
        type            processor;
        value           nonuniform List<scalar> 
50
(
6.84836e-51
7.6411e-53
8.03954e-55
7.9023e-57
7.34544e-59
6.53199e-61
5.60197e-63
4.65803e-65
3.76855e-67
2.97404e-69
7.69993e-53
8.91429e-55
9.71651e-57
9.87811e-59
9.48421e-61
8.70183e-63
7.69241e-65
6.58706e-67
5.48359e-69
4.44931e-71
4.50457e-55
5.4047e-57
6.09642e-59
6.40402e-61
6.3453e-63
6.00178e-65
5.46453e-67
4.81544e-69
4.1221e-71
3.43659e-73
1.82091e-57
2.26155e-59
2.637e-61
2.85931e-63
2.92095e-65
2.8457e-67
2.66639e-69
2.41615e-71
2.1252e-73
1.81924e-75
5.72683e-60
7.3549e-62
8.85649e-64
9.9038e-66
1.04225e-67
1.04506e-69
1.007e-71
9.3768e-74
8.46931e-76
7.43984e-78
)
;
    }
}


// ************************************************************************* //
