/*--------------------------------*- C++ -*----------------------------------*\
| =========                 |                                                 |
| \\      /  F ield         | OpenFOAM: The Open Source CFD Toolbox           |
|  \\    /   O peration     | Version:  2.4.0                                 |
|   \\  /    A nd           | Web:      www.OpenFOAM.org                      |
|    \\/     M anipulation  |                                                 |
\*---------------------------------------------------------------------------*/
FoamFile
{
    version     2.0;
    format      ascii;
    class       surfaceScalarField;
    location    "0.06";
    object      phib;
}
// * * * * * * * * * * * * * * * * * * * * * * * * * * * * * * * * * * * * * //

dimensions      [0 3 -1 0 0 0 0];

internalField   nonuniform List<scalar> 
490
(
0.00341471
0.0139915
-0.000723457
0.00284341
0.0120576
3.57896e-05
0.00193902
0.0137199
0.000302783
-0.000321605
0.0169357
3.65705e-05
-0.0069854
0.0148173
0.00119683
-0.0112138
0.0168437
0.00097353
-0.0153129
0.0145891
0.000425064
-0.022846
0.0202542
9.84654e-05
-0.0278054
0.0189121
-9.39707e-05
0.0174828
-0.00287134
0.00573335
0.0130295
-0.00167422
0.00822789
0.0100931
-0.000530038
0.0073834
0.0163057
-0.00174137
0.00585258
0.0184524
1.41059e-05
0.00668626
0.0148341
-0.000850512
0.00836879
0.0163511
-0.00118997
0.000299196
0.0248088
-0.00215011
0.00159863
0.021042
-0.00208729
0.00633762
0.0159587
-0.00178556
0.0134832
-0.000406134
0.00945535
0.00818369
-0.000487686
0.00901788
0.0114464
-0.000915799
0.0050402
0.0214641
-0.00118072
0.0120753
0.0116091
-0.000191776
0.0197551
0.00770072
-0.000546412
0.00847623
0.0301563
-0.00252639
0.0152746
0.0204379
-0.00242756
0.0248824
0.0114697
-3.54197e-05
0.0302306
0.0102079
0.000402492
0.0120122
0.00121027
0.0131675
-0.00191013
0.0124842
-0.00277874
0.0212398
0.00204524
0.0272567
0.00280948
0.035903
-0.00521169
0.0416657
-0.0034848
0.0353348
0.0162051
0.0376722
0.00292633
0.0386436
8.24449e-05
-0.00161722
0.00472205
0.0162749
-0.000236233
0.00443715
0.0105048
8.98224e-05
0.00472523
0.0114147
-0.000172635
0.00279876
0.0139615
-0.000589669
0.00564781
0.0115998
-0.000960396
0.00937534
0.0119333
-0.00173257
0.0102715
0.012378
-0.00138329
0.0146886
0.0114451
0.000520408
0.0113273
0.0122908
0.00763518
0.0157642
0.00165421
0.0118607
0.0116361
-9.3672e-05
0.0126035
0.00953803
-0.000306075
0.0102608
0.0127051
-0.000689017
0.0142365
0.0116189
-0.00161907
0.0181142
0.00997563
-0.00310395
0.0191663
0.0134222
-0.00373094
0.0201218
0.0126457
-0.00337329
0.0228453
0.0106524
-0.00401806
0.0241892
0.0112528
-0.0020915
0.0135
0.000682843
0.013874
0.00890234
0.000395309
0.0148764
0.0077787
-0.0001589
0.0146365
0.0120746
-0.0003103
0.0188392
0.00824836
-0.00102389
0.0262134
0.00403045
-0.00197542
0.0192659
0.0213944
-0.00355114
0.0211066
0.0135733
-0.00519585
0.0252432
0.0101057
-0.0036254
0.0297105
0.01128
-0.00409205
0.0123119
-0.00122243
0.0109905
-0.000280415
0.0078922
-0.00125647
0.0125793
-0.00043508
0.0215488
-0.000633192
0.0130519
-0.00346272
0.0049835
-0.0013084
0.0233857
0.00048835
0.029511
-0.00155198
0.0323772
-0.00154402
-0.0022592
0.00675225
0.0121804
-0.000683842
0.00732893
0.00896544
-0.00120433
0.00866263
0.00814393
-0.00184922
0.00921387
0.00691681
-0.00288778
0.0125504
0.00545176
-0.0022611
0.0152799
0.00699189
-0.00182374
0.0176812
0.00874663
-0.00396277
0.0136637
0.00985976
0.0132901
0.0131901
0.0272668
0.0107361
0.014794
0.00757332
0.0097053
0.00950036
-0.000196672
0.0104056
0.00928066
-0.00132159
0.0109522
0.00966544
-0.00275718
0.011808
0.00920497
-0.00476297
0.0117019
0.0077151
-0.00526123
0.0138595
0.00650048
-0.00539716
0.0127625
0.0129754
-0.00650502
0.00894494
0.0159812
-0.00632192
0.0171588
0.0138913
0.00307017
0.013891
0.00347493
0.00959753
0.00897288
0.000140154
0.00962974
0.00913349
-4.39427e-05
0.0100972
0.00974395
-0.000856243
0.0118121
0.00840324
-0.00193706
0.0129542
0.00830904
-0.00371145
0.0123125
0.0092839
-0.00569286
0.0117724
0.0169679
-0.00864833
0.0172755
0.0146422
-0.00778945
0.0224652
0.0106819
-0.0060723
0.00887096
-0.0010209
0.0133192
-0.000243226
0.0142856
-0.00038034
0.0164794
0.00019683
0.0185598
-0.000970622
0.017819
-0.00155551
0.0221773
-0.00530552
0.0241115
-0.00526174
0.0276285
-0.00421947
0.0327448
-0.00549213
-0.00250975
-0.000937999
0.00778768
-0.0013659
0.000101855
0.00425471
-0.00197349
0.00181114
0.00160745
-0.00211952
-0.00661472
0.00285269
-0.00225014
-0.0249604
0.00479983
0.00195681
-0.0359007
0.00118128
0.00151386
-0.000377316
0.00397113
-0.00782006
0.00828023
0.044983
0.0111542
0.00292808
0.0332948
0.00699803
0.0388012
0.0074212
0.00281798
0.00719436
-7.95616e-05
-0.000991106
0.00889927
-0.00215705
-0.00203671
0.00316844
-0.00327256
-0.00529151
0.00798943
-0.00664492
-0.00892459
0.00860782
-0.00543613
-0.0230597
0.0122003
-0.00228111
-0.0385012
0.0158092
-0.00290158
-0.00666033
0.0137196
-0.00689935
0.00243898
0.0237249
0.00354079
0.0348046
0.00638823
0.00641824
0.00870122
-0.000488909
0.00586711
0.0100882
-0.000681765
-0.0023533
0.0129478
-0.00241523
-0.00722811
0.0136644
-0.00273726
-0.00703654
0.0105529
-0.00584814
-0.00712989
0.012305
-0.00570416
-0.013128
0.0180563
-0.00489743
-0.0238297
0.0175028
-0.000870822
-0.00998769
0.00747535
-0.00366478
0.0200337
-0.000757105
0.00906704
-2.38269e-05
0.0102078
-0.00033681
0.00926704
-0.000452459
0.0138308
-0.00164125
0.016958
-0.00204129
0.0171885
-0.00446115
0.0187512
-0.00311782
0.0205977
-0.00174709
0.00928095
-0.00329658
-0.00288804
2.09493e-05
0.00614317
0.00251056
0.00715249
0.00128273
0.00240086
0.00229411
-0.00123401
-0.000628984
0.00525653
0.00706428
-0.00516622
0.0116339
0.0117513
0.0176673
0.0513509
9.14394e-05
0.0524678
0.0241611
8.04326e-05
0.00555678
-0.00287942
0.00795529
-0.0113624
0.00761128
-0.0215737
0.00233241
-0.0364363
0.0146829
-0.0501351
0.00625146
-0.0339676
-0.0073178
-0.00249027
0.0129743
-0.00369083
0.0572092
0.0389465
0.00571946
0.00697678
0.0028925
0.0101005
-0.00187241
0.00996096
-0.0126885
0.0104112
-0.015247
0.0113934
-0.0384767
0.023777
-0.0630302
0.0123382
-0.0421837
-0.008743
-0.0100567
0.0214173
0.034644
0.0123038
0.0129067
0.013508
0.0140183
0.0132888
0.0132662
0.00519539
-0.0267858
-0.0156594
)
;

boundaryField
{
    inlet
    {
        type            fixedValue;
        value           nonuniform 0();
    }
    outlet
    {
        type            calculated;
        value           nonuniform 0();
    }
    bottom
    {
        type            fixedValue;
        value           uniform 0;
    }
    top
    {
        type            symmetryPlane;
        value           nonuniform List<scalar> 
40
(
-1.82979e-12
-1.55177e-12
-8.27028e-13
-1.21625e-12
-2.43948e-12
-1.67065e-12
-8.32699e-13
-1.11946e-12
-1.41532e-12
-1.4964e-12
-7.62318e-13
-6.98581e-13
-1.16184e-12
-1.72564e-12
-1.03394e-12
-8.60068e-13
-7.06201e-13
-2.16922e-12
-1.74579e-12
-8.09756e-13
-4.17225e-13
-5.75473e-13
-1.60791e-12
-1.38248e-12
-7.10067e-13
-4.42824e-13
-6.99215e-13
-7.21858e-13
-9.75919e-13
-2.37573e-13
-5.98118e-13
-1.01351e-12
-2.42296e-13
-1.4346e-13
-3.64613e-13
-8.77269e-13
-1.39144e-13
-1.36112e-13
-2.79792e-13
-7.14753e-13
)
;
    }
    side1
    {
        type            symmetryPlane;
        value           nonuniform 0();
    }
    side2
    {
        type            symmetryPlane;
        value           nonuniform 0();
    }
    procBoundary17to9
    {
        type            processor;
        value           nonuniform List<scalar> 
50
(
-0.0137441
-0.0115221
-0.0131182
-0.0147116
-0.00935028
-0.0135888
-0.0109151
-0.0128196
-0.0138587
-0.0165732
-0.0173675
-0.0102739
-0.0112273
-0.0114088
-0.0122917
-0.0129548
-0.0114658
-0.0162842
-0.0166586
-0.0189979
-0.0135605
-0.00824796
-0.00780104
-0.00516993
-0.00748756
-0.00963021
-0.00856848
-0.018612
-0.0298941
-0.012771
-0.00660134
-0.00452541
-0.00304644
0.00493553
0.00932794
0.00642145
-0.0356372
-0.0515047
-0.0242047
-0.02904
-0.00773336
-0.0116156
-0.00329255
-0.00202751
-0.000376627
-0.00101318
-0.024141
-0.04623
-0.027894
-0.0171596
)
;
    }
    procBoundary17to16
    {
        type            processor;
        value           nonuniform List<scalar> 
20
(
-0.00293866
-0.00309707
-0.00412189
-0.00743683
-0.00411668
-0.00880242
-0.0120232
-0.009359
-0.00492457
-0.00692225
-0.0088149
-0.0109892
0.000433725
-0.00234178
-0.00729604
-0.00924334
0.000203345
0.000426394
-0.00762837
-0.0122816
)
;
    }
    procBoundary17to18
    {
        type            processor;
        value           nonuniform List<scalar> 
20
(
-0.0258437
0.0107433
0.0304914
0.0398931
0.0100354
0.0253644
0.0333314
0.024619
0.00524803
0.0152697
0.0272836
0.0317213
-0.00668105
0.00352233
0.0045194
0.0130933
0.000511167
-0.012088
-0.00651127
0.00715111
)
;
    }
    procBoundary17to25
    {
        type            processor;
        value           nonuniform List<scalar> 
50
(
0.00436318
0.0149084
0.0106633
0.00278271
0.00426612
0.0278784
0.0105637
0.00620597
0.00915411
0.0123799
0.00564115
0.00935469
0.00986779
0.00272153
0.0107784
0.0272864
0.0108879
0.0084588
0.0100403
0.020712
0.00660565
0.007291
0.00691819
0.00666031
0.0071426
0.00892276
0.0207838
0.0137926
0.00951367
0.010145
0.00865812
0.00890389
0.0145379
0.00977132
0.00791154
0.0112301
0.0143497
0.0131839
0.0165965
0.0165996
0.00693075
0.00916082
0.00890721
0.00825968
0.0100815
0.0193385
0.0172911
0.0214911
0.00699442
0.00894546
)
;
    }
}


// ************************************************************************* //
