/*--------------------------------*- C++ -*----------------------------------*\
| =========                 |                                                 |
| \\      /  F ield         | OpenFOAM: The Open Source CFD Toolbox           |
|  \\    /   O peration     | Version:  2.4.0                                 |
|   \\  /    A nd           | Web:      www.OpenFOAM.org                      |
|    \\/     M anipulation  |                                                 |
\*---------------------------------------------------------------------------*/
FoamFile
{
    version     2.0;
    format      ascii;
    class       surfaceScalarField;
    location    "0.1";
    object      phib;
}
// * * * * * * * * * * * * * * * * * * * * * * * * * * * * * * * * * * * * * //

dimensions      [0 3 -1 0 0 0 0];

internalField   nonuniform List<scalar> 
490
(
15.1644
-2.84951
0.778516
14.0962
-1.26397
0.0829252
17.2661
-4.24221
0.853225
16.3136
-1.75498
-0.132983
20.1267
-4.78308
0.66607
20.408
-1.62237
-0.282825
23.7321
-4.37143
0.494927
24.6245
-2.07893
-0.370449
28.4488
-4.80437
0.35002
-3.66964
-0.375104
13.3834
-2.68787
0.18679
15.5267
-4.52172
1.11451
14.8547
-3.69571
0.125519
18.1407
-6.0779
1.03689
17.4539
-4.3369
0.240596
21.1761
-6.1213
0.776748
21.1481
-4.40224
0.0588417
24.8556
-6.50729
0.720828
25.5211
-5.72639
0.256469
-7.88762
0.539419
13.8187
-5.14864
0.99327
13.9993
-4.99327
0.290947
16.0089
-6.74517
1.03988
15.6688
-6.59533
0.85752
17.5644
-7.04297
0.810393
17.5954
-6.90615
0.753853
19.9981
-7.50174
0.696875
20.4603
-7.99352
1.02398
22.2545
-8.56393
1.04338
-11.0868
1.51134
12.4284
0.650737
13.7244
0.854551
13.8644
1.18162
13.9725
0.715303
14.2081
1.37885
14.0061
0.758728
15.1281
1.68775
14.5291
1.05808
15.571
2.14365
1.8232
13.0505
-4.47985
0.269079
15.4061
-5.99214
0.423757
15.8968
-5.23122
0.369473
18.2703
-6.73522
0.183462
19.0114
-5.94774
0.302679
21.7808
-7.25504
0.13006
22.7692
-6.24925
0.391176
25.8313
-7.67015
0.0479085
27.6361
-7.18363
0.435172
-8.27168
-0.0127218
13.2218
-6.47719
0.487604
13.9145
-6.39817
0.827846
15.6728
-7.35219
0.488173
16.3242
-7.33131
0.981588
18.2922
-8.0099
0.334741
18.9912
-8.2011
1.02382
21.0272
-8.7566
0.530218
21.9114
-9.20044
1.36686
24.731
-10.2321
0.48534
-10.7643
1.22352
12.155
-7.62555
1.06817
13.3406
-7.93764
0.644782
14.0076
-8.39378
1.41443
15.4156
-8.51408
0.632345
16.0612
-9.3591
1.51401
17.1939
-9.30827
0.728321
17.9685
-10.492
1.65768
18.785
-10.3368
1.34385
19.9182
-12.4553
2.13342
-12.6617
1.09356
10.3225
0.694504
11.1486
1.68456
12.0891
0.869406
12.5336
1.96693
12.6256
1.17632
13.4468
2.19764
13.018
1.56207
14.0744
2.35054
12.7323
2.16979
2.529
13.4628
-7.78765
-0.407358
14.1603
-8.0682
0.547979
15.7549
-8.44371
-0.257564
16.4876
-8.8546
0.608581
18.3856
-8.96192
-0.417443
19.2216
-9.35123
0.683221
21.7121
-9.78197
-0.311645
23.6164
-10.2134
0.55302
26.5301
-10.0025
-0.241302
-10.5978
0.534898
12.3978
-8.77797
0.809343
13.8656
-8.77509
0.066977
14.2735
-9.40681
1.04331
15.7293
-9.54523
0.216431
16.144
-10.1491
1.10724
17.8581
-10.1504
0.108817
18.1851
-10.8293
1.25061
20.9838
-11.88
0.234678
22.8414
-12.2355
0.860747
-12.0779
0.329678
11.6352
-9.52768
0.282528
11.9871
-9.91106
1.42884
13.2171
-9.82865
0.606282
13.3115
-10.5497
1.54235
14.6033
-10.563
0.636121
15.0119
-11.2947
1.46402
15.949
-11.2056
1.09689
16.3024
-12.5945
1.70496
19.1613
-13.7569
0.795905
-13.6848
0.687176
8.70123
1.52573
10.646
0.404856
10.104
2.00288
10.9732
1.1358
11.2585
1.90494
11.9766
1.27966
13.1237
1.86721
11.9669
2.79524
14.7312
1.67678
0.923942
12.192
-9.73736
0.199756
13.6424
-9.67602
-0.243247
14.0184
-9.99798
0.361278
15.6536
-10.1756
-0.307565
16.4955
-10.7617
0.184775
18.6406
-10.8241
-0.259488
20.3719
-11.2717
-0.0873631
22.9105
-11.1885
-0.363634
25.4463
-11.5045
-0.468314
-12.7014
-0.808944
11.9243
-10.2151
0.00458198
12.2246
-10.5188
0.609388
13.4906
-10.4106
0.189988
13.6196
-10.6817
0.593592
15.2371
-11.0674
-0.204514
15.7245
-11.4228
0.220112
17.9744
-12.1241
-0.146839
19.916
-12.4265
-0.468921
21.7112
-12.7651
0.326195
-13.2409
-0.902865
9.78932
-10.5693
0.630477
11.1638
-10.96
0.495641
11.1769
-10.7174
0.899907
12.0912
-10.3095
0.255716
11.8977
-10.3882
0.150569
13.6173
-10.8659
-0.812501
13.5688
-10.9804
0.0016476
14.2002
-13.6242
2.2712
16.1538
-12.8334
-1.08938
-13.4184
1.33616
9.07753
-0.031902
8.72153
0.376988
9.52838
0.630931
7.78052
0.625168
8.47287
-0.176107
8.85605
-1.44918
5.85217
4.34583
6.80104
0.96519
6.37959
2.0015
-1.50477
12.4105
-10.7279
12.9666
-10.6609
13.8839
-10.6887
14.8213
-11.1007
16.2505
-11.2833
18.0635
-12.1946
20.1019
-11.1649
16.2935
-11.3017
14.7202
-18.6
-20.0534
11.9552
-11.2135
12.8
-10.8964
12.8824
-10.5811
13.4968
-11.1215
13.699
-11.69
14.4834
-12.759
15.4471
-12.2755
16.9096
-13.2331
11.585
-12.9492
-18.2316
11.0061
-11.0993
10.7101
-10.1047
10.1864
-9.15754
8.5134
-9.19278
7.30254
-10.3286
1.15079
-7.41974
0.554242
-11.6773
2.16104
-12.5687
2.45034
-14.3279
-17.9504
8.2704
8.30062
0.759621
-2.36311
-9.55632
-12.7964
-9.16642
-7.49566
-3.80822
)
;

boundaryField
{
    inlet
    {
        type            fixedValue;
        value           nonuniform 0();
    }
    outlet
    {
        type            calculated;
        value           nonuniform 0();
    }
    bottom
    {
        type            fixedValue;
        value           uniform 0;
    }
    top
    {
        type            symmetryPlane;
        value           nonuniform List<scalar> 
40
(
-6.09041e-16
-5.93411e-16
-5.70828e-16
-7.45282e-16
-5.83764e-16
-5.68726e-16
-5.63688e-16
-6.87812e-16
-5.62335e-16
-5.54012e-16
-5.43531e-16
-6.65858e-16
-5.39499e-16
-5.34155e-16
-5.46964e-16
-6.89823e-16
-5.13894e-16
-6.681e-16
-9.92656e-16
-1.10344e-15
-5.90628e-16
-7.31622e-16
-9.73812e-16
-2.06707e-15
-6.57887e-16
-5.60683e-16
-8.3984e-16
-1.41823e-15
-6.14488e-16
-5.53737e-16
-7.97448e-16
-9.02396e-16
-7.05333e-16
-5.27632e-16
-5.79059e-16
-7.46934e-16
-6.62563e-16
-5.83609e-16
-5.32148e-16
-7.30127e-16
)
;
    }
    side1
    {
        type            symmetryPlane;
        value           nonuniform 0();
    }
    side2
    {
        type            symmetryPlane;
        value           nonuniform 0();
    }
    procBoundary9to1
    {
        type            processor;
        value           nonuniform List<scalar> 
50
(
-0.0980812
2.24925
0.219121
2.84048
0.303909
1.6239
0.552422
1.55693
0.630111
1.47897
4.41918
3.2958
5.22428
4.04526
5.57004
4.07275
5.36456
4.18966
5.29374
4.95883
6.89828
7.24649
7.47611
7.69682
7.78399
7.96205
7.99434
7.80397
7.76524
7.923
8.66052
9.01682
9.0031
9.45657
9.31747
9.62176
9.31607
9.56654
9.19573
13.8121
10.0172
9.8615
10.1327
9.8557
10.0389
10.1222
9.03917
14.7464
19.705
13.4041
)
;
    }
    procBoundary9to8
    {
        type            processor;
        value           nonuniform List<scalar> 
20
(
-12.9954
-13.7319
-12.3512
-11.9871
-12.4804
-11.5253
-11.0815
-9.21628
-11.897
-11.7292
-10.0998
-8.64036
-11.7222
-10.6418
-9.78304
-6.62329
-11.5001
-11.465
-10.4898
-9.775
)
;
    }
    procBoundary9to10
    {
        type            processor;
        value           nonuniform List<scalar> 
20
(
31.0145
29.1997
23.9424
13.0869
30.5865
26.5395
22.2334
16.243
28.6573
25.2154
21.1746
15.9203
25.6794
23.4832
15.6823
9.17409
20.5606
8.86027
3.50531
-6.7036
)
;
    }
    procBoundary9to17
    {
        type            processor;
        value           nonuniform List<scalar> 
50
(
-6.24066
-7.14383
-8.06677
-7.41871
-8.65744
-7.46285
-10.3116
-8.45256
-11.7495
-10.4259
-8.77555
-9.59376
-9.02204
-10.2102
-9.24855
-11.5684
-9.93753
-12.6857
-11.1394
-16.8781
-10.4198
-10.5762
-10.4201
-10.5877
-11.5769
-11.0947
-12.6579
-11.8823
-16.0282
-13.2689
-11.4659
-10.5761
-10.1523
-8.05097
-8.99955
-8.52019
-10.4551
-12.743
-12.7367
-13.7841
-9.62665
-9.75791
-0.985611
-5.44489
-3.31145
-5.62888
-10.9614
-13.2742
-16.0138
-16.5598
)
;
    }
}


// ************************************************************************* //
