/*--------------------------------*- C++ -*----------------------------------*\
| =========                 |                                                 |
| \\      /  F ield         | OpenFOAM: The Open Source CFD Toolbox           |
|  \\    /   O peration     | Version:  2.4.0                                 |
|   \\  /    A nd           | Web:      www.OpenFOAM.org                      |
|    \\/     M anipulation  |                                                 |
\*---------------------------------------------------------------------------*/
FoamFile
{
    version     2.0;
    format      ascii;
    class       volVectorField;
    location    "0.09";
    object      gradp;
}
// * * * * * * * * * * * * * * * * * * * * * * * * * * * * * * * * * * * * * //

dimensions      [1 -2 -2 0 0 0 0];

internalField   nonuniform List<vector> 
200
(
(-6.00244e+17 6.46363e+16 -3.17956e+17)
(-8.78984e+17 7.91004e+16 -5.82506e+17)
(-9.81356e+17 2.22077e+17 -5.22671e+17)
(-9.33138e+17 2.30278e+17 -4.14397e+17)
(-6.71071e+17 2.58581e+17 -3.00708e+17)
(-8.99232e+17 1.10273e+17 -2.84475e+17)
(-1.10202e+18 2.24386e+17 -1.48422e+17)
(-8.36092e+17 1.78407e+17 -1.31899e+17)
(-9.24521e+17 1.83387e+17 -1.14412e+17)
(-1.24827e+18 1.35156e+17 -1.78618e+17)
(-4.55947e+17 1.72235e+17 -3.39525e+17)
(-6.91822e+17 2.71254e+17 -3.73806e+17)
(-8.30555e+17 4.27805e+17 -4.37164e+17)
(-8.07684e+17 3.90524e+17 -3.09178e+17)
(-1.06697e+18 5.74212e+17 -2.83358e+17)
(-1.00349e+18 2.78738e+17 -1.45886e+17)
(-7.26369e+17 4.48423e+17 -1.40963e+17)
(-8.66801e+17 4.75957e+17 -1.00473e+17)
(-9.28897e+17 6.81477e+17 -1.21052e+17)
(-1.22278e+18 6.05035e+17 -1.1838e+17)
(-2.37858e+17 2.43807e+17 -1.0744e+17)
(-3.67842e+17 3.26088e+17 -1.91034e+17)
(-7.42816e+17 3.34203e+17 -1.789e+17)
(-6.40325e+17 5.80932e+17 -7.11213e+16)
(-8.94643e+17 5.99855e+17 -1.40488e+17)
(-1.15081e+18 9.69203e+17 4.45074e+16)
(-7.07579e+17 8.0417e+17 -2.96251e+16)
(-3.69984e+17 9.21841e+17 -2.86564e+16)
(-6.66366e+17 1.11862e+18 -1.71913e+17)
(-1.13042e+18 9.37841e+17 -1.08506e+17)
(-1.88344e+17 2.94925e+17 -6.72186e+16)
(-5.1103e+17 4.41308e+17 -1.99515e+16)
(-3.20867e+17 4.77476e+17 1.23659e+17)
(-2.76379e+17 7.32076e+17 2.42677e+16)
(-2.90425e+17 8.16027e+17 1.15808e+17)
(-5.94863e+17 1.16468e+18 -1.42839e+17)
(-8.21094e+17 1.07142e+18 -4.84035e+16)
(-2.37906e+17 1.00629e+18 -2.18905e+17)
(-8.96896e+17 1.24288e+18 -3.37356e+17)
(-1.72936e+18 1.18863e+18 -2.06479e+17)
(-2.17038e+18 -2.94871e+17 -9.33961e+17)
(-1.53407e+18 7.02501e+16 -1.29508e+18)
(-4.43406e+17 -3.58233e+16 -1.45616e+18)
(-2.22859e+17 3.05803e+17 -1.18795e+18)
(-2.55321e+17 2.8349e+17 -7.69684e+17)
(-4.11916e+17 3.12576e+17 -7.59005e+17)
(-6.13773e+17 2.47429e+17 -6.02274e+17)
(-7.27259e+17 2.32381e+17 -5.19783e+17)
(-1.07402e+18 2.18999e+17 -4.83736e+17)
(-1.55077e+18 3.17929e+17 -4.66866e+17)
(-1.44828e+18 5.0906e+17 -4.32773e+17)
(-1.00427e+18 8.97609e+17 -6.54985e+17)
(-6.23743e+17 9.77838e+17 -6.11949e+17)
(-3.15504e+17 9.39765e+17 -7.90811e+17)
(-5.44436e+17 8.30565e+17 -7.79015e+17)
(-5.47828e+17 8.0511e+17 -5.42297e+17)
(-5.81047e+17 6.38498e+17 -4.12693e+17)
(-8.03084e+17 6.41145e+17 -3.0579e+17)
(-9.862e+17 5.89475e+17 -2.94247e+17)
(-1.37325e+18 7.17213e+17 -4.32612e+17)
(-5.61288e+17 6.79497e+17 -2.01549e+17)
(-5.96513e+17 8.92256e+17 -6.88991e+16)
(-3.59095e+17 1.23152e+18 -2.73997e+17)
(-5.17406e+17 1.11444e+18 -2.17974e+17)
(-5.24631e+17 1.23852e+18 -4.61064e+17)
(-7.96049e+17 9.74079e+17 -3.10513e+17)
(-9.41703e+17 9.52265e+17 -2.03698e+17)
(-8.25305e+17 7.32351e+17 -2.11103e+17)
(-9.21885e+17 7.7253e+17 -2.71132e+17)
(-9.81905e+17 7.96884e+17 -1.75379e+17)
(-8.80789e+14 3.8438e+17 1.32282e+16)
(9.97781e+16 6.71958e+17 4.45101e+16)
(-1.79365e+17 6.88787e+17 6.03908e+16)
(-3.01501e+17 7.87522e+17 -8.04842e+16)
(-8.25167e+17 7.61065e+17 -2.16172e+17)
(-1.12034e+18 6.7892e+17 -2.9313e+17)
(-1.0645e+18 7.37227e+17 -2.03875e+17)
(-1.16255e+18 5.96777e+17 -2.63924e+17)
(-8.57134e+17 3.39042e+17 -4.04518e+17)
(-6.41167e+17 2.10006e+16 -3.06042e+17)
(-3.5189e+18 6.52979e+17 -1.81954e+18)
(-2.55001e+18 1.3022e+18 -2.85777e+18)
(-6.38553e+17 1.41007e+18 -2.58455e+18)
(1.26357e+18 4.47663e+17 -7.86125e+17)
(7.01559e+17 1.36404e+17 -6.00935e+17)
(-3.63519e+17 1.26522e+17 -5.4689e+17)
(-3.36507e+17 2.97286e+17 -4.84576e+17)
(-4.5677e+17 4.0917e+17 -3.53793e+17)
(-7.55185e+17 4.05262e+17 -4.28948e+17)
(-1.217e+18 2.25944e+17 -3.5726e+17)
(-2.12943e+18 1.34409e+18 -2.86556e+17)
(-1.26518e+18 2.23314e+18 -1.08787e+18)
(-1.2652e+18 2.31926e+18 -5.6372e+17)
(-1.3423e+18 1.94249e+18 -5.37362e+17)
(-2.71723e+17 1.068e+18 -5.54505e+17)
(1.68737e+17 9.96325e+17 -3.50643e+17)
(3.04531e+16 1.08614e+18 -1.8502e+17)
(-4.87772e+17 9.69845e+17 -6.93856e+16)
(-1.33473e+18 1.02164e+18 -8.03798e+16)
(-1.72274e+18 1.07141e+18 -1.79645e+17)
(-6.79268e+17 9.57408e+17 -8.52012e+16)
(-5.99676e+17 1.44528e+18 -1.94504e+17)
(-1.21986e+18 1.40995e+18 -1.59566e+17)
(-1.23894e+18 1.71745e+18 -5.55841e+16)
(-1.19077e+18 1.5004e+18 -1.40832e+17)
(-3.27239e+17 1.36787e+18 -9.2584e+16)
(-3.89468e+17 1.13828e+18 9.06274e+16)
(-5.85773e+17 9.88826e+17 1.58203e+17)
(-5.52046e+17 9.42184e+17 2.4148e+17)
(-7.14368e+17 1.14035e+18 1.86924e+17)
(6.68747e+16 8.208e+17 2.58542e+17)
(-3.6011e+17 6.21027e+17 2.29484e+17)
(-7.20848e+17 8.54346e+17 5.10686e+16)
(-1.16138e+18 7.56801e+17 4.27433e+16)
(-9.70891e+17 9.64967e+17 8.60178e+16)
(-5.55513e+17 7.16904e+17 5.31122e+17)
(-7.27636e+17 2.56484e+17 4.73984e+17)
(-8.79963e+17 1.68744e+17 4.75746e+17)
(-1.03167e+18 -3.42419e+17 7.01601e+17)
(-1.1443e+18 -6.47646e+17 9.67377e+17)
(-9.32832e+18 2.07293e+18 -1.27358e+17)
(-3.9821e+18 2.46577e+17 1.39586e+17)
(6.18586e+18 6.45535e+17 1.08398e+18)
(6.1247e+18 1.49416e+18 6.94489e+17)
(5.1023e+17 1.10016e+18 3.40142e+17)
(-3.95672e+16 8.5072e+17 1.67938e+17)
(4.13816e+15 8.19891e+17 1.69946e+17)
(-5.49249e+17 8.69185e+17 -8.8335e+16)
(-1.08512e+18 7.62358e+17 -5.31961e+16)
(-1.76919e+18 8.09761e+17 -1.49166e+17)
(-3.32904e+18 3.284e+18 -1.17625e+18)
(-1.89119e+18 5.15884e+18 2.52698e+16)
(1.13789e+18 4.85781e+18 -1.33781e+16)
(-2.86015e+17 2.10863e+18 4.2054e+17)
(5.30636e+16 1.56673e+18 3.43961e+17)
(6.34523e+17 1.532e+18 2.4305e+17)
(3.18977e+17 1.55882e+18 1.05886e+17)
(-4.68235e+17 1.46034e+18 3.04999e+17)
(-1.33903e+18 1.66216e+18 3.72282e+17)
(-1.43101e+18 1.58791e+18 3.71985e+17)
(-1.74602e+18 1.55165e+18 -1.08691e+18)
(-8.34481e+17 3.00003e+18 -1.24338e+18)
(8.54502e+16 2.21518e+18 -5.58309e+17)
(-4.57455e+17 2.04261e+18 -1.98442e+17)
(-6.4303e+17 2.26336e+18 2.4451e+17)
(-5.53797e+16 2.3849e+18 2.97466e+17)
(-1.39185e+17 2.00667e+18 2.57476e+17)
(-3.42576e+17 1.60456e+18 2.48434e+17)
(-8.29978e+17 2.0237e+18 3.21555e+17)
(-1.66078e+18 2.63212e+18 -2.54035e+17)
(-3.39601e+17 8.23705e+17 -3.39782e+17)
(-5.64137e+17 1.22742e+18 -4.3883e+17)
(-7.76934e+17 1.28596e+18 -1.48035e+17)
(-1.89664e+17 1.25747e+18 1.17413e+17)
(7.37645e+17 1.71019e+18 4.63204e+17)
(1.21151e+17 1.80769e+18 5.01936e+17)
(-1.24171e+18 1.85226e+18 5.54251e+17)
(-4.34178e+17 1.97522e+18 6.32437e+17)
(7.16086e+17 4.1948e+18 8.00457e+17)
(-3.13667e+18 3.13636e+18 4.56671e+17)
(-2.15231e+18 -1.87688e+18 1.07617e+18)
(1.32626e+18 4.05151e+17 2.28479e+18)
(1.13714e+18 4.90335e+17 2.73504e+18)
(-1.11669e+18 2.30563e+17 7.07059e+17)
(-9.83402e+17 4.03547e+17 4.72101e+17)
(-9.08146e+17 6.06145e+17 2.40299e+17)
(-1.15658e+18 7.58242e+17 2.0067e+17)
(-1.17082e+18 1.20044e+18 -1.22426e+17)
(-9.49844e+17 1.69436e+18 6.42813e+15)
(-1.53633e+18 1.59144e+18 -8.0154e+16)
(-6.31072e+17 -1.91184e+17 -9.8294e+17)
(2.456e+18 2.04007e+16 8.31964e+17)
(-3.31597e+14 -3.08394e+17 3.75558e+17)
(-1.98812e+17 5.13799e+17 4.76268e+17)
(-8.39689e+17 9.14992e+17 4.02809e+17)
(-5.93103e+17 1.20357e+18 1.97283e+17)
(2.28689e+17 1.22619e+18 1.91756e+16)
(3.64694e+17 1.50868e+18 1.69068e+17)
(-1.12037e+18 1.62124e+18 2.79466e+17)
(-1.93211e+18 9.03624e+17 2.37398e+17)
(-1.84533e+18 2.29576e+18 -1.09581e+18)
(1.09184e+18 7.02721e+17 -9.26737e+17)
(2.12393e+18 1.19449e+18 -4.93839e+17)
(1.33008e+18 1.23245e+18 -2.89711e+17)
(3.96138e+17 1.69119e+18 6.47651e+16)
(-2.85747e+17 1.78209e+18 3.50295e+16)
(-5.46369e+17 1.85566e+18 -7.22476e+15)
(-3.80719e+17 1.51273e+18 -9.22156e+16)
(-2.15995e+18 1.62726e+18 -1.91443e+16)
(-1.45175e+18 1.27585e+18 -5.07831e+17)
(-1.16893e+18 2.79143e+18 -5.17877e+17)
(2.53479e+17 2.72834e+18 -6.03852e+17)
(1.05913e+18 2.23241e+18 -2.62372e+17)
(7.94588e+17 1.86088e+18 -3.00823e+16)
(2.59582e+17 1.56065e+18 4.52067e+16)
(-2.64165e+17 1.59048e+18 -1.79477e+17)
(-3.10033e+17 1.47768e+18 -7.52044e+16)
(-9.21028e+16 1.68539e+18 1.11671e+17)
(-1.59412e+18 1.32572e+18 3.1694e+16)
(-2.16436e+18 2.49141e+18 -6.10269e+17)
)
;

boundaryField
{
    inlet
    {
        type            zeroGradient;
    }
    outlet
    {
        type            zeroGradient;
    }
    bottom
    {
        type            zeroGradient;
    }
    top
    {
        type            symmetryPlane;
    }
    side1
    {
        type            symmetryPlane;
    }
    side2
    {
        type            symmetryPlane;
    }
    procBoundary21to13
    {
        type            processor;
        value           nonuniform List<vector> 
50
(
(-6.14171e+17 -1.00511e+17 -1.14833e+17)
(-1.0067e+18 -8.30846e+16 -3.68275e+17)
(-1.13291e+18 -9.9451e+16 -2.75977e+17)
(-8.80693e+17 -1.4921e+17 -3.5638e+17)
(-8.26957e+17 -5.82127e+16 -2.98926e+17)
(-9.35101e+17 2.13083e+17 -2.72326e+17)
(-8.62637e+17 -6.53329e+16 -1.55365e+17)
(-7.84804e+17 -6.02417e+16 -1.34207e+17)
(-8.42395e+17 -1.44672e+17 -1.43309e+17)
(-9.38641e+17 -2.70247e+17 -2.32614e+17)
(-1.76453e+18 -5.34023e+17 -8.00487e+17)
(-1.52236e+18 -9.5802e+17 -1.41942e+18)
(-1.09485e+18 -6.28797e+17 -1.35444e+18)
(-9.5413e+17 -4.70346e+17 -9.26676e+17)
(-5.57983e+17 -1.75792e+17 -7.02654e+17)
(-4.75708e+17 -7.56304e+16 -5.52452e+17)
(-4.20657e+17 1.09092e+16 -4.58256e+17)
(-7.46223e+17 -6.7311e+16 -4.50016e+17)
(-1.1573e+18 -5.66149e+16 -4.32918e+17)
(-1.47914e+18 -1.77122e+17 -4.89354e+17)
(-4.31742e+18 -1.32633e+18 -1.76643e+18)
(-2.77937e+18 -1.27083e+18 -1.19808e+18)
(4.43878e+17 -1.59422e+18 -9.89569e+17)
(1.20503e+18 -1.04453e+18 -1.28008e+18)
(3.70559e+17 -4.13862e+17 -1.06493e+18)
(-1.53026e+17 -3.64618e+17 -6.86983e+17)
(-5.34842e+17 -4.46245e+17 -5.42808e+17)
(-7.03724e+17 -4.62635e+17 -4.67388e+17)
(-9.68275e+17 -4.62127e+17 -4.19979e+17)
(-1.29862e+18 -4.62474e+17 -4.87039e+17)
(-2.52475e+18 -2.73287e+18 4.0491e+17)
(9.6359e+17 -4.8986e+18 5.85926e+17)
(-1.35727e+18 -4.1996e+18 5.61456e+17)
(-1.19527e+18 -5.24829e+17 5.56227e+17)
(1.33994e+18 -1.01646e+17 1.76996e+17)
(1.19507e+18 6.98254e+15 -5.67141e+16)
(2.82047e+17 -1.76743e+17 -1.82212e+17)
(-3.53169e+17 -1.25594e+17 -1.89543e+17)
(-1.22018e+18 -3.66442e+17 -4.33402e+17)
(-1.77132e+18 -3.71852e+17 -4.81448e+17)
(-1.45469e+18 -1.59539e+18 1.48569e+18)
(-2.27842e+18 -1.53189e+18 7.32855e+17)
(3.48844e+17 2.71302e+17 4.72558e+17)
(-2.52368e+16 -2.92247e+17 1.26602e+18)
(-1.59085e+18 -2.05576e+17 8.38193e+17)
(-1.30249e+18 -1.32578e+17 3.50142e+17)
(-9.59894e+17 7.55881e+16 5.7706e+16)
(-1.50753e+18 -1.825e+17 -3.79645e+16)
(-1.90237e+18 -1.21539e+16 -3.03032e+17)
(-2.118e+18 1.73719e+17 -2.51149e+17)
)
;
    }
    procBoundary21to20
    {
        type            processor;
        value           nonuniform List<vector> 
20
(
(-3.78529e+17 -1.15364e+13 -9.18399e+16)
(-2.3451e+17 9.00613e+16 -6.37004e+16)
(-1.85968e+17 1.92287e+17 -8.99627e+16)
(-2.00717e+16 2.42293e+17 -7.85339e+16)
(-1.38473e+18 -8.78728e+16 -3.82997e+17)
(-1.31031e+18 9.30648e+16 -1.32022e+17)
(-3.67901e+17 1.68554e+17 6.90415e+16)
(-9.6492e+16 3.06691e+17 -3.52458e+16)
(-2.81041e+18 2.08207e+17 -6.20914e+17)
(-1.89706e+18 8.13323e+17 -5.00136e+17)
(-8.3481e+17 3.47129e+17 1.75726e+17)
(-7.52968e+15 1.67351e+17 3.35334e+17)
(-7.0746e+18 6.48724e+17 -2.87475e+17)
(-2.46653e+18 1.36769e+18 -4.42967e+17)
(-1.56208e+18 1.50531e+18 -8.78982e+17)
(-1.48962e+17 4.84278e+17 -5.26398e+16)
(-3.46197e+18 -6.65976e+15 4.22824e+16)
(-4.44893e+18 -1.33088e+17 -1.1152e+16)
(-3.71077e+18 9.71652e+17 -8.95703e+17)
(-1.2915e+18 2.06958e+18 -3.44685e+17)
)
;
    }
    procBoundary21to22
    {
        type            processor;
        value           nonuniform List<vector> 
20
(
(-1.61135e+18 4.13197e+16 -2.08944e+17)
(-1.87046e+18 7.40404e+17 -1.68074e+17)
(-1.94318e+18 8.65327e+17 -1.25502e+17)
(-1.76651e+18 8.97764e+17 2.70359e+15)
(-2.16302e+18 2.71945e+17 -4.73963e+17)
(-1.82912e+18 8.7391e+17 -4.50485e+17)
(-1.42156e+18 1.13857e+18 -1.41116e+17)
(4.48004e+16 -1.93757e+17 -2.21687e+17)
(-1.9042e+18 1.93202e+17 -4.97203e+17)
(-2.09921e+18 1.27296e+18 -9.84303e+16)
(-8.5922e+17 1.2314e+18 2.93305e+16)
(-3.57726e+18 -2.25344e+18 -7.82443e+16)
(-2.78963e+18 9.32516e+17 -1.52988e+17)
(-1.72823e+18 1.71636e+18 3.06855e+17)
(-2.06905e+18 1.17087e+18 9.1124e+16)
(-1.15754e+19 -2.72264e+18 4.8169e+17)
(-1.72281e+18 1.7873e+18 7.91965e+16)
(-2.76509e+17 1.66354e+18 1.22873e+17)
(1.53827e+18 1.51114e+18 4.61796e+16)
(5.29574e+17 8.39476e+17 3.35543e+17)
)
;
    }
    procBoundary21to29
    {
        type            processor;
        value           nonuniform List<vector> 
50
(
(1.60172e+17 1.69397e+17 -5.15308e+16)
(-2.73932e+15 2.34167e+17 -4.68782e+16)
(-1.61279e+17 4.22454e+17 -4.68309e+16)
(3.67771e+16 4.3881e+17 -3.64679e+16)
(-2.94261e+16 5.81421e+17 -1.74839e+17)
(-6.40031e+17 6.26715e+17 -2.59096e+17)
(-1.02437e+18 9.35623e+17 -2.38494e+17)
(-2.70501e+16 9.89375e+17 -2.846e+17)
(-3.01674e+17 1.00009e+18 -7.36813e+17)
(-1.82066e+18 1.45631e+18 -8.38276e+17)
(1.69246e+17 1.46523e+17 1.27124e+17)
(1.23003e+16 7.52812e+16 4.34254e+16)
(-1.27966e+17 -3.75346e+16 -3.84532e+16)
(-3.7285e+17 -9.10645e+16 -2.02521e+17)
(-7.41835e+17 -1.37907e+17 -3.67976e+17)
(-8.43725e+17 1.46091e+17 -5.90376e+17)
(-1.10599e+18 1.12804e+17 -7.13031e+17)
(-1.62167e+18 1.62784e+17 -7.34567e+17)
(-2.07344e+18 -9.99932e+17 -1.26195e+18)
(-2.0475e+18 -1.63085e+18 -1.32305e+18)
(2.28084e+17 2.22549e+17 1.89377e+17)
(-5.32585e+17 1.17407e+17 1.52658e+17)
(-9.48309e+17 1.84533e+17 2.13669e+17)
(-1.0177e+18 -1.78508e+16 2.38133e+17)
(-1.27056e+18 -2.3524e+17 4.52372e+17)
(-1.7442e+18 -8.80226e+17 6.12894e+17)
(-1.48579e+18 -1.0903e+18 7.87523e+17)
(-1.78358e+18 -1.78283e+18 1.01973e+18)
(-2.18483e+18 -2.27085e+18 2.65133e+18)
(-4.53641e+18 -4.90769e+18 2.13402e+18)
(-2.59744e+17 1.65661e+16 1.44737e+17)
(9.0034e+16 3.44782e+17 7.36945e+16)
(1.45552e+17 7.86882e+17 3.02979e+17)
(3.91002e+17 8.99149e+17 4.91609e+17)
(4.57402e+17 8.9663e+17 6.16813e+17)
(2.28757e+17 9.58626e+17 8.43449e+17)
(1.95893e+17 5.52156e+17 1.02072e+18)
(4.34251e+18 2.45968e+18 1.19634e+18)
(1.49229e+18 -2.38126e+18 1.36414e+18)
(-1.54957e+19 -9.155e+18 1.70787e+18)
(-5.27813e+17 1.00619e+18 1.34015e+17)
(-2.62119e+16 1.19337e+18 1.13397e+16)
(3.89018e+17 9.38885e+17 9.76881e+16)
(-1.34276e+16 7.13214e+17 8.74229e+16)
(-1.44673e+17 4.41942e+17 -2.86963e+16)
(-4.51691e+17 2.7788e+17 -1.00725e+17)
(-3.56547e+17 -1.81137e+16 -2.41336e+17)
(-6.84636e+17 -7.22348e+17 -2.73363e+17)
(-5.47907e+17 -1.7708e+18 -1.81232e+18)
(-2.42424e+18 -3.47422e+18 -9.10926e+17)
)
;
    }
}


// ************************************************************************* //
