/*--------------------------------*- C++ -*----------------------------------*\
| =========                 |                                                 |
| \\      /  F ield         | OpenFOAM: The Open Source CFD Toolbox           |
|  \\    /   O peration     | Version:  2.4.0                                 |
|   \\  /    A nd           | Web:      www.OpenFOAM.org                      |
|    \\/     M anipulation  |                                                 |
\*---------------------------------------------------------------------------*/
FoamFile
{
    version     2.0;
    format      ascii;
    class       volScalarField;
    location    "0.01";
    object      alpha;
}
// * * * * * * * * * * * * * * * * * * * * * * * * * * * * * * * * * * * * * //

dimensions      [0 0 0 0 0 0 0];

internalField   nonuniform List<scalar> 
60
(
2.74751e-173
1.98933e-175
1.27693e-177
7.67764e-180
4.42858e-182
2.70538e-176
3.23907e-178
2.71291e-180
1.95402e-182
1.29125e-184
1.41883e-178
9.40077e-181
6.8264e-183
4.94017e-185
3.44552e-187
1.25477e-180
6.29093e-183
3.37711e-185
1.94757e-187
1.18611e-189
4.53712e-175
2.51909e-177
1.4072e-179
7.86436e-182
4.38076e-184
1.97873e-177
1.11367e-179
6.29347e-182
3.56457e-184
2.01875e-186
7.86246e-180
4.52973e-182
2.60255e-184
1.49407e-186
8.57304e-189
2.99257e-182
1.7678e-184
1.03516e-186
6.02871e-189
3.49962e-191
1.79345e-177
1.0383e-179
6.01018e-182
3.47136e-184
1.9968e-186
9.19553e-180
5.43484e-182
3.18692e-184
1.858e-186
1.07791e-188
3.98402e-182
2.44129e-184
1.47369e-186
8.79483e-189
5.20179e-191
1.56929e-184
9.9369e-187
6.18119e-189
3.78874e-191
2.29422e-193
)
;

boundaryField
{
    inlet
    {
        type            zeroGradient;
    }
    outlet
    {
        type            zeroGradient;
    }
    bottom
    {
        type            fixedValue;
        value           nonuniform 0();
    }
    top
    {
        type            symmetryPlane;
    }
    side1
    {
        type            symmetryPlane;
    }
    side2
    {
        type            symmetryPlane;
    }
    procBoundary122to58
    {
        type            processor;
        value           nonuniform List<scalar> 
20
(
1.2117e-171
-1.36165e-173
-1.37433e-175
-8.94402e-178
-4.85941e-180
7.06988e-174
-2.7198e-176
-4.7102e-178
-3.96852e-180
-2.69352e-182
-1.90472e-175
-1.03958e-177
-5.98029e-180
-3.5142e-182
-2.06171e-184
-1.85676e-177
-9.79502e-180
-5.24563e-182
-2.84864e-184
-1.56266e-186
)
;
    }
    procBoundary122to106
    {
        type            processor;
        value           nonuniform List<scalar> 
15
(
-1.02944e-157
-5.23183e-160
-2.60128e-162
-1.26347e-164
-5.98036e-167
-6.35048e-160
-3.44678e-162
-1.8269e-164
-9.44748e-167
-4.75858e-169
-2.1001e-162
-1.21105e-164
-6.80993e-167
-3.73208e-169
-1.99104e-171
)
;
    }
    procBoundary122to121
    {
        type            processor;
        value           nonuniform List<scalar> 
12
(
1.53809e-156
1.68216e-158
9.85892e-161
4.20451e-163
4.15392e-159
5.45199e-161
3.6403e-163
1.73996e-165
2.23197e-162
5.88204e-164
5.18502e-166
3.02361e-168
)
;
    }
    procBoundary122to123
    {
        type            processor;
        value           nonuniform List<scalar> 
12
(
1.19131e-198
2.01006e-200
1.80175e-202
1.14575e-204
6.37981e-201
1.15923e-202
1.11331e-204
7.55398e-207
1.97434e-202
1.46298e-204
7.50935e-207
3.58556e-209
)
;
    }
}


// ************************************************************************* //
