/*--------------------------------*- C++ -*----------------------------------*\
| =========                 |                                                 |
| \\      /  F ield         | OpenFOAM: The Open Source CFD Toolbox           |
|  \\    /   O peration     | Version:  2.4.0                                 |
|   \\  /    A nd           | Web:      www.OpenFOAM.org                      |
|    \\/     M anipulation  |                                                 |
\*---------------------------------------------------------------------------*/
FoamFile
{
    version     2.0;
    format      ascii;
    class       volVectorField;
    location    "0.13";
    object      gradp;
}
// * * * * * * * * * * * * * * * * * * * * * * * * * * * * * * * * * * * * * //

dimensions      [1 -2 -2 0 0 0 0];

internalField   nonuniform List<vector> 
200
(
(-2.09577e+29 1.47512e+28 -2.3485e+28)
(-2.88045e+29 9.57616e+27 -2.90922e+28)
(-3.13939e+29 5.02458e+28 -9.02714e+27)
(-7.85196e+28 1.21993e+29 -5.86301e+28)
(-1.49608e+29 1.41899e+28 -1.62568e+29)
(-3.75557e+29 4.08904e+28 -1.59202e+29)
(-5.30252e+29 -1.04681e+29 -2.06773e+29)
(-6.07532e+29 -1.76769e+29 -2.01944e+29)
(-6.16548e+29 -2.37595e+29 -2.50019e+29)
(-8.41599e+29 -3.43968e+29 -2.93968e+29)
(-1.88584e+29 -2.00358e+28 -1.19717e+28)
(-1.2086e+29 -8.24884e+28 -2.44978e+28)
(1.68629e+27 -4.38426e+28 -4.20406e+28)
(-2.91056e+29 -7.01214e+28 -1.02668e+29)
(-4.29745e+29 -8.3187e+28 -1.38535e+29)
(-5.91485e+29 -2.02443e+29 -2.66981e+29)
(-7.90258e+29 -2.58584e+29 -1.98851e+29)
(-6.79741e+29 -2.84424e+29 -1.92753e+29)
(-8.57023e+29 -4.28288e+29 -2.01277e+29)
(-7.22197e+29 -2.92439e+29 -1.33625e+29)
(-3.47998e+29 4.36021e+27 6.01819e+28)
(-3.35659e+29 -3.03385e+28 7.40865e+28)
(-2.89205e+29 -1.40379e+29 2.77854e+28)
(-1.57208e+29 -1.68774e+29 -3.82422e+27)
(-4.1425e+29 -4.88436e+28 -2.15303e+29)
(-7.2635e+29 -6.58864e+28 -1.68923e+29)
(-6.94214e+29 -1.65633e+29 -1.74369e+29)
(-9.46941e+29 -4.1887e+29 -1.44382e+29)
(-6.32579e+29 -3.1356e+29 -2.31362e+28)
(-3.44796e+29 -1.95358e+29 -8.02509e+28)
(-2.62431e+29 4.357e+28 5.39854e+28)
(-4.1034e+29 1.02612e+29 7.50395e+28)
(-2.75185e+29 9.13888e+28 8.21171e+28)
(-1.07985e+29 1.52345e+29 -6.09445e+28)
(-2.2397e+29 1.3798e+29 -1.87998e+29)
(-8.25065e+29 2.74812e+29 -2.81021e+29)
(-1.49623e+30 2.2774e+29 -1.94343e+29)
(-9.75594e+29 9.15433e+28 -1.43138e+28)
(-4.09999e+29 -1.36464e+29 -7.14845e+28)
(-2.50018e+29 -1.22899e+29 3.80809e+28)
(-2.03021e+29 -3.75237e+28 3.79408e+28)
(-2.4178e+29 -7.09112e+28 4.57367e+28)
(-4.08461e+29 -1.84269e+28 7.3157e+28)
(-5.6985e+29 -2.22552e+28 4.44646e+28)
(-4.71437e+29 -6.37388e+28 -1.09958e+29)
(-5.17013e+29 -2.32694e+29 -1.54346e+29)
(-6.67025e+29 -3.27741e+29 -2.98578e+29)
(-7.45918e+29 -2.49695e+29 -1.99276e+29)
(-9.11026e+29 -2.2286e+29 -1.59192e+29)
(-7.86513e+29 -1.95936e+29 -1.27859e+29)
(-2.40929e+29 1.13831e+29 5.96121e+28)
(-2.17081e+29 8.25975e+28 6.69612e+28)
(-2.48458e+29 1.50575e+28 5.54283e+28)
(-5.99839e+29 1.75681e+28 2.80857e+27)
(-9.55546e+29 -1.67563e+29 4.80983e+28)
(-7.84495e+29 -2.17996e+29 -2.75177e+27)
(-5.52729e+29 -2.06737e+29 4.63196e+28)
(-6.87506e+29 -1.92325e+29 6.64067e+28)
(-6.67814e+29 -6.52762e+28 9.899e+28)
(-6.72359e+29 4.95081e+28 1.28139e+29)
(-2.65979e+29 1.09892e+29 1.13181e+29)
(-4.39328e+29 1.28921e+29 1.6621e+29)
(-5.3852e+29 5.82729e+28 1.86071e+29)
(-9.35091e+29 -1.02017e+29 2.5793e+29)
(-9.42565e+29 -1.27985e+29 2.24736e+29)
(-5.95361e+29 -8.83519e+28 3.22868e+29)
(-6.15684e+29 -1.58421e+29 3.35848e+29)
(-4.62996e+29 -1.33368e+29 4.05099e+29)
(-4.2736e+29 -1.05891e+29 4.46673e+29)
(-3.47684e+29 7.93714e+28 3.52713e+29)
(-1.8563e+29 3.93156e+28 1.13587e+29)
(-3.20318e+29 7.94042e+28 1.86177e+29)
(-7.10333e+29 1.02195e+29 2.67491e+29)
(-9.72354e+29 9.05926e+28 2.59527e+29)
(-9.28217e+29 2.69962e+29 2.82045e+29)
(-8.45367e+29 2.23135e+29 2.52511e+29)
(-6.42761e+29 1.17764e+29 4.46643e+29)
(-5.82447e+29 -1.07716e+29 6.25281e+29)
(-2.42336e+29 1.03999e+29 6.70174e+29)
(-1.00466e+29 6.85079e+28 4.21602e+29)
(-1.11167e+29 5.5736e+28 7.27969e+28)
(-1.75353e+29 7.41134e+28 8.69025e+28)
(-3.1801e+29 1.10012e+29 7.25614e+28)
(-6.64487e+29 1.60785e+29 1.46092e+29)
(-7.85802e+29 1.60164e+29 1.53598e+29)
(-9.79141e+29 2.5454e+29 1.3789e+29)
(-6.74028e+29 2.21897e+29 1.92903e+29)
(-1.61496e+29 2.43341e+29 2.39845e+29)
(-3.88014e+29 2.39092e+29 2.76673e+29)
(-7.36065e+29 2.31419e+29 2.85493e+29)
(-1.5639e+29 1.00349e+29 9.43044e+28)
(-1.34248e+29 1.1027e+29 1.26728e+29)
(-2.03602e+29 1.3682e+29 2.00253e+29)
(-3.14513e+29 2.71423e+29 2.16421e+29)
(-4.47539e+29 4.52323e+29 3.22965e+29)
(-5.97177e+29 5.611e+29 4.11751e+29)
(-5.68951e+29 7.56499e+29 4.1767e+29)
(-5.11195e+29 6.82576e+29 5.03972e+29)
(-6.59479e+29 5.41095e+29 5.21936e+29)
(-7.43263e+29 4.76476e+29 4.34058e+29)
(-1.15663e+29 9.07207e+28 7.51938e+28)
(-1.02412e+29 1.60406e+29 1.56518e+29)
(4.29684e+27 1.98921e+29 2.16818e+29)
(-3.34802e+28 2.41975e+29 3.02518e+29)
(-2.06448e+29 3.25471e+29 6.19849e+29)
(-3.7079e+29 3.42534e+29 6.46459e+29)
(-4.31076e+29 4.74884e+29 7.78544e+29)
(-5.92303e+29 4.75329e+29 8.7373e+29)
(-8.00215e+29 6.00334e+29 7.43677e+29)
(-1.05981e+30 2.74182e+29 3.8106e+29)
(6.61469e+28 1.04882e+29 9.91603e+28)
(8.21521e+28 7.38562e+28 8.41914e+28)
(-4.04638e+28 7.13927e+28 1.64615e+29)
(-6.14123e+28 1.49681e+29 4.95574e+29)
(-2.46421e+29 1.51142e+29 6.35882e+29)
(-2.98353e+29 2.66038e+29 1.02838e+30)
(-3.03361e+29 2.40435e+29 1.10608e+30)
(-2.60295e+29 1.91387e+29 1.35183e+30)
(-1.06177e+30 7.15533e+28 1.08277e+30)
(-1.8509e+30 -2.72893e+29 3.52014e+29)
(-1.17972e+29 1.1631e+29 -5.886e+27)
(-2.42534e+29 1.66256e+29 -2.41657e+28)
(-2.19053e+29 3.8461e+29 -2.14511e+28)
(-3.10534e+29 5.78018e+29 -4.2294e+28)
(-4.97685e+29 5.15739e+29 1.01872e+28)
(-3.91236e+29 5.13199e+29 2.30138e+27)
(-3.4077e+29 5.64797e+29 2.10936e+29)
(-4.77854e+29 5.96963e+29 1.20782e+29)
(-7.64952e+29 6.51219e+29 -3.08384e+28)
(-8.93888e+29 5.29751e+29 -1.70249e+29)
(-4.37945e+28 1.17666e+29 -1.93673e+28)
(1.21954e+29 1.93983e+29 -4.45704e+28)
(3.85594e+28 2.45868e+29 -3.87519e+28)
(-2.07159e+29 2.67849e+29 2.10408e+28)
(-3.30491e+29 5.78439e+29 4.23396e+28)
(-4.8144e+29 5.95716e+29 9.63856e+28)
(-2.57621e+29 7.30289e+29 2.93883e+28)
(-3.53855e+29 8.21892e+29 -6.05738e+28)
(-8.91539e+29 6.81931e+29 -2.18191e+29)
(-1.18319e+30 2.02416e+29 -4.09039e+29)
(-6.93518e+27 1.17661e+29 -8.6516e+27)
(1.38705e+28 6.08618e+28 -6.61621e+28)
(-7.13217e+28 1.25146e+27 -1.04712e+29)
(3.54607e+29 3.44627e+29 -1.3935e+29)
(1.58049e+29 3.72681e+29 -1.47224e+29)
(-8.75367e+28 8.9826e+29 -1.74258e+29)
(1.11582e+29 9.43034e+29 -2.7136e+29)
(-5.74569e+29 1.2232e+30 -1.98186e+29)
(-2.0039e+30 7.91442e+29 -5.83655e+29)
(-2.53065e+30 -5.19003e+28 -8.21018e+29)
(2.36515e+28 -6.85475e+28 -5.50286e+28)
(-1.10865e+29 -2.14817e+29 -1.03445e+29)
(6.0609e+29 1.21795e+29 -8.87788e+28)
(5.35701e+29 1.74059e+29 -1.40951e+29)
(7.76774e+29 3.96195e+29 -7.6296e+28)
(6.59266e+29 6.00435e+29 -1.87724e+29)
(3.92257e+29 1.43184e+30 1.7562e+29)
(-6.57038e+29 1.82914e+30 -9.5778e+28)
(-3.44174e+30 -7.37903e+29 -1.32686e+30)
(-3.92252e+30 -1.00765e+30 -1.57931e+30)
(-2.34687e+29 2.65385e+28 -1.72572e+28)
(-2.25162e+29 2.42094e+27 -3.62393e+28)
(-3.76021e+29 1.47527e+29 -1.18284e+28)
(-5.63245e+29 4.38148e+29 -8.52917e+28)
(-6.43097e+29 9.32554e+29 -9.08004e+28)
(-3.36745e+29 7.39276e+29 -1.30733e+29)
(-2.94889e+29 4.87877e+29 -7.37721e+28)
(-9.35173e+29 2.30229e+29 -1.16395e+29)
(-1.31931e+30 1.13037e+29 -2.16684e+29)
(-1.04749e+30 -3.02387e+29 -2.89633e+29)
(-2.58981e+29 9.59244e+28 -4.20879e+28)
(-1.96279e+29 4.30753e+28 -7.98399e+28)
(6.35364e+27 3.60202e+27 -1.41536e+29)
(-5.50198e+28 1.16134e+29 -8.99042e+28)
(-2.06435e+29 2.00465e+29 -9.39924e+28)
(-6.38621e+29 2.78605e+29 -5.11366e+28)
(-1.07122e+30 -1.51747e+28 -1.43112e+29)
(-1.30345e+30 1.72227e+29 -3.05387e+29)
(-1.77457e+30 -3.43412e+29 -4.3986e+29)
(-1.4749e+30 -5.64756e+29 -5.81333e+29)
(-2.6187e+29 3.36626e+28 -3.08459e+28)
(-4.09806e+29 6.62073e+28 -1.30557e+29)
(-2.29903e+29 1.18878e+29 -1.63245e+29)
(-1.69519e+29 -1.72121e+28 -1.80113e+29)
(-3.18156e+29 1.35654e+29 -3.27034e+29)
(-7.68025e+29 -1.12041e+29 -3.28927e+29)
(-5.07645e+29 7.08854e+29 -5.39687e+29)
(-1.59165e+30 4.19002e+29 -5.22436e+29)
(-2.79328e+30 -1.17354e+30 -8.57523e+29)
(-1.50277e+30 -1.59825e+30 -7.69115e+29)
(-2.44162e+29 -8.93822e+28 -9.45868e+28)
(-2.58484e+28 1.09979e+29 -7.6499e+28)
(-1.60485e+29 1.39638e+29 -6.80193e+28)
(-2.14676e+28 4.54687e+29 -3.16054e+29)
(-3.96094e+29 4.45093e+29 -2.42134e+29)
(5.07779e+29 1.196e+30 -6.82575e+29)
(-9.13442e+27 2.04531e+30 -2.89474e+29)
(-5.06824e+30 -1.16033e+30 -8.0801e+29)
(-5.80907e+30 -2.74816e+30 -1.66797e+30)
(-1.69601e+30 -1.2101e+29 -1.5478e+30)
)
;

boundaryField
{
    inlet
    {
        type            zeroGradient;
    }
    outlet
    {
        type            zeroGradient;
    }
    bottom
    {
        type            zeroGradient;
    }
    top
    {
        type            symmetryPlane;
    }
    side1
    {
        type            symmetryPlane;
    }
    side2
    {
        type            symmetryPlane;
    }
    procBoundary14to6
    {
        type            processor;
        value           nonuniform List<vector> 
50
(
(-1.80526e+29 1.69074e+28 2.07001e+28)
(-1.9185e+29 2.03567e+28 2.58068e+28)
(-2.23147e+29 -2.32519e+28 8.7977e+26)
(-2.18945e+29 -3.09261e+28 -1.25129e+28)
(-2.67541e+29 5.99458e+28 -8.98297e+28)
(-3.53743e+29 3.72109e+28 -9.59904e+28)
(-3.54939e+29 4.58776e+28 -5.94382e+28)
(-4.13913e+29 -4.32385e+28 -1.47174e+29)
(-5.22625e+29 -8.64339e+28 -2.10487e+29)
(-5.94727e+29 -1.60348e+29 -2.26145e+29)
(-1.81139e+29 -4.44772e+28 3.39966e+28)
(-2.55275e+29 -5.1688e+28 2.66254e+28)
(-3.4577e+29 -7.0551e+28 1.80744e+28)
(-5.09215e+29 -8.93299e+28 -2.14368e+28)
(-5.34669e+29 -8.8899e+28 -4.31355e+28)
(-2.5649e+29 -5.76192e+28 -1.36283e+29)
(-5.18727e+29 -1.17204e+29 -1.57792e+29)
(-8.97269e+29 -1.73499e+29 -1.96162e+29)
(-7.75331e+29 -1.63786e+29 -1.98939e+29)
(-7.49493e+29 -1.09158e+29 -2.31477e+29)
(-1.75229e+29 6.52599e+28 -1.84146e+27)
(-2.42801e+29 1.04307e+29 -2.15009e+28)
(-3.76946e+29 1.21985e+29 -5.16452e+28)
(-4.14816e+29 1.02147e+29 -1.58749e+29)
(-6.35049e+29 -7.00423e+27 -3.92084e+28)
(-7.20643e+29 -5.39927e+28 -5.44322e+28)
(-5.46552e+29 -3.97213e+29 -1.40166e+29)
(-5.45586e+29 -1.01551e+29 -2.51886e+28)
(-6.35634e+29 7.02138e+28 -2.43626e+28)
(-6.3877e+29 1.10318e+29 -1.94959e+28)
(-2.19036e+29 1.20378e+29 -1.11882e+27)
(-4.14647e+29 2.22607e+29 2.37396e+26)
(-7.84965e+29 2.72353e+29 -6.21987e+28)
(-4.69417e+29 3.39909e+29 -1.52311e+29)
(-2.00854e+29 3.94963e+29 -4.40404e+29)
(-5.79555e+29 3.14814e+29 -2.06574e+29)
(-4.25148e+29 3.87829e+29 -1.36849e+29)
(-5.26698e+29 5.42667e+29 -5.2379e+28)
(-7.57115e+29 5.4811e+29 -1.39406e+29)
(-4.94505e+29 4.86546e+29 -7.54102e+28)
(-2.23009e+29 -6.08225e+28 1.40191e+28)
(-4.38256e+29 -1.2568e+29 2.25569e+28)
(-8.651e+29 -1.68957e+29 6.64111e+27)
(-1.62507e+30 -1.66961e+29 -2.4852e+27)
(-8.08691e+29 5.4276e+28 -3.54502e+29)
(2.50734e+29 3.15877e+29 -1.92434e+29)
(-5.31287e+28 4.42718e+29 -9.50365e+28)
(-5.53768e+29 6.11531e+29 -7.61783e+28)
(-7.09334e+29 3.04953e+29 -1.03496e+29)
(-6.96277e+29 1.94948e+29 -6.12468e+28)
)
;
    }
    procBoundary14to13
    {
        type            processor;
        value           nonuniform List<vector> 
20
(
(-1.91248e+29 1.36047e+28 -3.11409e+28)
(-1.56554e+29 -1.32781e+28 -8.13967e+27)
(-1.91877e+29 6.58543e+27 4.84555e+28)
(-1.69993e+29 3.09632e+28 5.1039e+28)
(-2.13221e+29 -4.1016e+28 1.49836e+28)
(-1.32444e+29 1.14076e+29 5.69008e+28)
(-1.34227e+29 1.01271e+29 9.36059e+28)
(-1.34427e+29 5.06016e+27 8.34958e+28)
(-6.93449e+28 6.46942e+28 6.03246e+28)
(-1.38063e+29 1.12517e+29 6.51238e+28)
(-1.17125e+29 4.91374e+28 7.55673e+28)
(-3.15585e+28 -1.24301e+27 1.8791e+28)
(-1.02318e+29 7.86353e+28 1.44342e+28)
(-6.36427e+28 1.38465e+29 -1.25107e+28)
(-4.58711e+28 2.71388e+28 -2.04724e+28)
(2.57832e+28 -2.48281e+28 -6.47291e+27)
(-1.5739e+29 2.04071e+28 2.34093e+26)
(-1.77533e+29 5.66669e+28 -1.2594e+28)
(-6.30494e+28 5.87978e+28 -5.08895e+28)
(-1.25941e+29 -5.1695e+28 7.19289e+27)
)
;
    }
    procBoundary14to15
    {
        type            processor;
        value           nonuniform List<vector> 
20
(
(-8.19606e+29 -3.0133e+29 -2.32804e+29)
(-5.45461e+29 -1.79886e+29 -1.85703e+29)
(-3.71039e+29 -7.74705e+28 -2.40386e+28)
(-1.97666e+29 -1.45937e+29 -2.47495e+28)
(-8.34636e+29 -1.84293e+29 -1.26212e+29)
(-5.63416e+29 1.54138e+29 9.2407e+28)
(-4.40577e+29 1.80055e+29 2.2323e+29)
(-2.57917e+29 5.4518e+28 1.69898e+29)
(-8.0985e+29 1.86846e+29 2.43118e+29)
(-6.88079e+29 3.79221e+29 3.62301e+29)
(-1.1008e+30 4.65145e+28 6.15e+28)
(-1.58951e+30 -5.26961e+29 -1.11622e+29)
(-6.68081e+29 3.06875e+29 -1.28158e+29)
(-8.54406e+29 -1.36451e+29 -4.46829e+29)
(-1.47765e+30 -5.78221e+29 -7.2208e+29)
(-3.04005e+30 -6.72471e+29 -1.27846e+30)
(-6.16485e+29 -2.76277e+29 -2.64684e+29)
(-5.84176e+29 -5.71055e+29 -5.3102e+29)
(-9.75047e+29 -1.28409e+30 -5.36311e+29)
(2.84333e+30 3.83037e+30 -9.72189e+29)
)
;
    }
    procBoundary14to22
    {
        type            processor;
        value           nonuniform List<vector> 
50
(
(-2.04701e+29 7.11452e+28 5.75229e+28)
(-2.40021e+29 6.34788e+28 5.95817e+28)
(-1.89739e+29 8.44603e+28 3.45394e+28)
(-6.40265e+28 1.62736e+28 -4.24195e+28)
(-1.69317e+29 2.71932e+28 -1.32814e+29)
(-5.46829e+29 3.90697e+28 -2.01221e+29)
(-1.06075e+30 2.92852e+29 -2.43104e+29)
(-1.67535e+30 5.42661e+29 -2.68919e+29)
(-1.06146e+30 3.2933e+29 1.27153e+29)
(-3.6374e+29 -7.49885e+28 3.93784e+28)
(-1.17291e+29 -1.42765e+27 1.51501e+29)
(-3.13568e+29 -1.88968e+28 1.48238e+29)
(-5.16143e+29 -9.1409e+28 1.73573e+29)
(-5.99558e+29 3.13521e+28 2.56265e+29)
(-6.7748e+29 1.56557e+29 2.32962e+29)
(-8.99756e+29 2.98356e+29 3.17384e+29)
(-1.27739e+30 2.80236e+29 3.43783e+29)
(-4.90526e+29 6.78007e+28 4.67501e+29)
(-7.49114e+28 -1.91905e+29 5.76684e+29)
(-4.46646e+29 -2.3497e+29 2.58967e+29)
(3.45352e+28 -6.15361e+28 7.77937e+27)
(-1.69391e+29 -1.53925e+29 -2.737e+28)
(1.55946e+29 -2.13049e+29 2.29068e+29)
(1.26018e+29 -2.52111e+29 3.54684e+29)
(2.62666e+28 -2.76137e+29 6.98745e+29)
(-1.92203e+29 -2.24477e+29 8.82272e+29)
(-5.80377e+29 -2.20402e+29 1.59984e+30)
(-9.30066e+29 -3.0655e+29 2.08427e+30)
(-1.72877e+30 -8.57469e+29 2.17489e+29)
(-2.25684e+30 -8.38305e+29 -2.91539e+29)
(-3.86914e+29 -1.90348e+29 -1.30067e+29)
(3.94555e+29 -8.80961e+28 -4.35854e+28)
(7.06431e+29 -8.63529e+28 -6.20587e+28)
(9.03408e+29 -2.23822e+29 5.12792e+28)
(1.0108e+30 -2.25872e+29 3.64954e+28)
(1.98374e+30 -2.0476e+29 4.06968e+29)
(2.56899e+30 -8.71562e+28 8.56687e+29)
(-4.91405e+30 -1.62833e+30 -1.04301e+30)
(-7.67749e+30 -1.84952e+30 -2.34598e+30)
(-2.39979e+30 -4.86093e+29 -7.26092e+29)
(6.14776e+28 -1.95004e+29 -4.38675e+28)
(4.82346e+28 -1.76518e+29 7.2441e+28)
(4.59513e+29 -1.16473e+29 -1.52093e+29)
(4.41391e+29 -7.2314e+28 -4.72105e+27)
(1.16447e+30 1.06835e+29 -2.96473e+29)
(2.43241e+30 7.83808e+29 4.33005e+28)
(-5.22031e+30 -8.49057e+29 -1.56265e+29)
(-1.11786e+31 -1.48116e+30 -2.39086e+30)
(-7.14635e+29 9.39474e+29 -2.11394e+30)
(1.16543e+31 6.2114e+30 -2.14964e+29)
)
;
    }
}


// ************************************************************************* //
