/*--------------------------------*- C++ -*----------------------------------*\
| =========                 |                                                 |
| \\      /  F ield         | OpenFOAM: The Open Source CFD Toolbox           |
|  \\    /   O peration     | Version:  2.4.0                                 |
|   \\  /    A nd           | Web:      www.OpenFOAM.org                      |
|    \\/     M anipulation  |                                                 |
\*---------------------------------------------------------------------------*/
FoamFile
{
    version     2.0;
    format      ascii;
    class       volScalarField;
    location    "0.02";
    object      alpha;
}
// * * * * * * * * * * * * * * * * * * * * * * * * * * * * * * * * * * * * * //

dimensions      [0 0 0 0 0 0 0];

internalField   nonuniform List<scalar> 
200
(
8.9351e-34
1.21354e-32
8.6808e-34
3.29294e-35
8.79459e-37
2.10658e-38
9.68916e-38
2.58101e-36
3.61857e-35
2.73965e-36
1.39971e-36
1.80705e-35
1.36808e-36
5.47661e-38
1.53936e-39
3.82082e-41
1.52955e-40
3.91126e-39
5.2586e-38
4.20057e-39
2.1395e-39
2.62623e-38
2.09778e-39
8.83764e-41
2.60782e-42
6.7062e-44
2.35749e-43
5.79684e-42
7.48031e-41
6.28686e-42
3.20511e-42
3.74125e-41
3.14454e-42
1.39076e-43
4.29885e-45
1.1451e-46
3.56368e-46
8.43458e-45
1.04557e-43
9.22326e-45
7.39928e-36
8.47304e-35
6.41369e-36
2.56737e-37
7.21607e-39
1.81053e-40
7.87039e-40
2.0056e-38
2.68497e-37
6.54578e-38
1.23045e-38
1.33549e-37
1.06658e-38
4.49312e-40
1.32579e-41
3.43971e-43
1.30389e-42
3.19786e-41
4.11809e-40
1.03942e-40
1.99171e-41
2.04811e-40
1.72098e-41
7.61062e-43
2.3522e-44
6.31094e-46
2.10487e-45
4.97496e-44
6.16575e-43
1.6119e-43
3.15247e-44
3.07058e-43
2.70804e-44
1.25439e-45
4.05274e-47
1.12441e-48
3.32647e-48
7.58228e-47
9.04941e-46
2.45101e-46
3.237e-38
3.13933e-37
2.507e-38
1.05618e-39
3.11672e-41
8.17457e-43
3.36721e-42
8.22705e-41
1.05473e-39
4.47123e-40
5.69238e-41
5.22216e-40
4.38767e-41
1.94047e-42
5.99787e-44
1.62362e-45
5.84214e-45
1.37698e-43
1.70286e-42
7.43127e-43
9.722e-44
8.42897e-43
7.43239e-44
3.44273e-45
1.11231e-46
3.10846e-48
9.85885e-48
2.24382e-46
2.67722e-45
1.20426e-45
1.62013e-46
1.3268e-45
1.22509e-46
5.93164e-48
1.99959e-49
5.76951e-51
1.62605e-50
3.57516e-49
4.11718e-48
1.91076e-48
9.9203e-41
8.19086e-40
6.88128e-41
3.0435e-42
9.40821e-44
2.57453e-45
1.00741e-44
2.36497e-43
2.9115e-42
1.79098e-42
1.83847e-43
1.43408e-42
1.26438e-43
5.85714e-45
1.89258e-46
5.33599e-48
1.82682e-47
4.14581e-46
4.93587e-45
3.11399e-45
3.30208e-46
2.43021e-45
2.24345e-46
1.08625e-47
3.66191e-49
1.06421e-50
3.21676e-50
7.06187e-49
8.13052e-48
5.2702e-48
5.7755e-49
4.0075e-48
3.86576e-49
1.9528e-50
6.85687e-52
2.05448e-53
5.52756e-53
1.17413e-51
1.30748e-50
8.71969e-51
2.39281e-43
1.69073e-42
1.49057e-43
6.90597e-45
2.23188e-46
6.36135e-48
2.36994e-47
5.3556e-46
6.34714e-45
5.18601e-45
4.65944e-46
3.1082e-45
2.86913e-46
1.3894e-47
4.68475e-49
1.37357e-50
4.48381e-50
9.81386e-49
1.12743e-47
9.41977e-48
8.77653e-49
5.51811e-48
5.32207e-49
2.68867e-50
9.44183e-52
2.84942e-53
8.22483e-53
1.74429e-51
1.94195e-50
1.66275e-50
1.60688e-51
9.51413e-51
9.5698e-52
5.03517e-53
1.83877e-54
5.71365e-56
1.47026e-55
3.0213e-54
3.25973e-53
2.86511e-53
)
;

boundaryField
{
    inlet
    {
        type            zeroGradient;
    }
    outlet
    {
        type            zeroGradient;
    }
    bottom
    {
        type            fixedValue;
        value           uniform 0;
    }
    top
    {
        type            symmetryPlane;
    }
    side1
    {
        type            symmetryPlane;
    }
    side2
    {
        type            symmetryPlane;
    }
    procBoundary28to20
    {
        type            processor;
        value           nonuniform List<scalar> 
50
(
5.64631e-31
7.94219e-30
5.35082e-31
1.91795e-32
4.85481e-34
1.12882e-35
6.17719e-35
1.69658e-33
2.44201e-32
1.74782e-33
4.42581e-33
5.22254e-32
3.73608e-33
1.41747e-34
3.78634e-36
9.24689e-38
4.78482e-37
1.25229e-35
1.71265e-34
4.21395e-35
1.83897e-35
1.82835e-34
1.38412e-35
5.54198e-37
1.55809e-38
3.98752e-40
1.95635e-39
4.89169e-38
6.37795e-37
2.77404e-37
5.36916e-38
4.52109e-37
3.61057e-38
1.52146e-39
4.49093e-41
1.20185e-42
5.60511e-42
1.34217e-40
1.67368e-39
1.06647e-39
1.23694e-40
8.86799e-40
7.45035e-41
3.29614e-42
1.01925e-43
2.84695e-45
1.26503e-44
2.90704e-43
3.47709e-42
2.96354e-42
)
;
    }
    procBoundary28to27
    {
        type            processor;
        value           nonuniform List<scalar> 
20
(
2.01017e-33
3.44955e-36
5.76074e-39
9.40545e-42
4.89076e-35
8.36769e-38
1.39133e-40
2.25971e-43
3.24939e-37
5.78996e-40
9.99688e-43
1.68158e-45
1.2602e-39
2.34708e-42
4.2251e-45
7.39321e-48
3.53106e-42
6.87287e-45
1.2901e-47
2.34928e-50
)
;
    }
    procBoundary28to29
    {
        type            processor;
        value           nonuniform List<scalar> 
20
(
1.05818e-37
1.68704e-40
2.6303e-43
4.0234e-46
1.28088e-36
1.94031e-39
2.87464e-42
4.18119e-45
9.97563e-39
1.59016e-41
2.47319e-44
3.76839e-47
4.0913e-41
6.84587e-44
1.11526e-46
1.77652e-49
1.17768e-43
2.06409e-46
3.51527e-49
5.84349e-52
)
;
    }
}


// ************************************************************************* //
