/*--------------------------------*- C++ -*----------------------------------*\
| =========                 |                                                 |
| \\      /  F ield         | OpenFOAM: The Open Source CFD Toolbox           |
|  \\    /   O peration     | Version:  2.4.0                                 |
|   \\  /    A nd           | Web:      www.OpenFOAM.org                      |
|    \\/     M anipulation  |                                                 |
\*---------------------------------------------------------------------------*/
FoamFile
{
    version     2.0;
    format      ascii;
    class       volVectorField;
    location    "0.02";
    object      Uc;
}
// * * * * * * * * * * * * * * * * * * * * * * * * * * * * * * * * * * * * * //

dimensions      [0 1 -1 0 0 0 0];

internalField   nonuniform List<vector> 
200
(
(1.49968e-33 8.40806e-34 4.46794e-35)
(2.04663e-32 1.17953e-32 6.35247e-34)
(1.46403e-33 8.43795e-34 4.54461e-35)
(5.5536e-35 3.20084e-35 1.72399e-36)
(1.48319e-36 8.54809e-37 4.60344e-38)
(3.37087e-38 1.77956e-38 6.26483e-40)
(9.37343e-38 -8.51038e-39 -1.31754e-38)
(2.49067e-36 -2.36069e-37 -3.52621e-37)
(3.49204e-35 -3.31076e-36 -4.94377e-36)
(2.64426e-36 -2.50609e-37 -3.74307e-37)
(2.35389e-36 1.31823e-36 7.08151e-38)
(3.04756e-35 1.75632e-35 9.45923e-37)
(2.30726e-36 1.32975e-36 7.16217e-38)
(9.23632e-38 5.32324e-38 2.86723e-39)
(2.59608e-39 1.49616e-39 8.05768e-41)
(6.14578e-41 3.27457e-41 1.21985e-42)
(1.48051e-40 -1.33139e-41 -2.07774e-41)
(3.77432e-39 -3.57742e-40 -5.3436e-40)
(5.07467e-38 -4.81138e-39 -7.1844e-39)
(4.05433e-39 -3.8426e-40 -5.73906e-40)
(3.60593e-39 2.01608e-39 1.09675e-40)
(4.42906e-38 2.5524e-38 1.37473e-39)
(3.53789e-39 2.03894e-39 1.09823e-40)
(1.49046e-40 8.58985e-41 4.62685e-42)
(4.39797e-42 2.53455e-42 1.36505e-43)
(1.08344e-43 5.81728e-44 2.26549e-45)
(2.28331e-43 -2.03103e-44 -3.19865e-44)
(5.59384e-42 -5.30211e-43 -7.91967e-43)
(7.21863e-41 -6.84427e-42 -1.02197e-41)
(6.06802e-42 -5.75126e-43 -8.58949e-43)
(5.4151e-42 3.01226e-42 1.66721e-43)
(6.30948e-41 3.6258e-41 1.95841e-42)
(5.30319e-42 3.04729e-42 1.64622e-43)
(2.34549e-43 1.34758e-43 7.28114e-45)
(7.24978e-45 4.16458e-45 2.25021e-46)
(1.85685e-46 1.00004e-46 4.04805e-48)
(3.45395e-46 -3.02562e-47 -4.82886e-47)
(8.13916e-45 -7.69279e-46 -1.15233e-45)
(1.00898e-43 -9.54056e-45 -1.42847e-44)
(8.90226e-45 -8.41348e-46 -1.26014e-45)
(1.30016e-35 6.42931e-36 5.66513e-37)
(1.42908e-34 8.23415e-35 4.43921e-36)
(1.08169e-35 6.23393e-36 3.35838e-37)
(4.32993e-37 2.4955e-37 1.34422e-38)
(1.21697e-38 7.01364e-39 3.77725e-40)
(2.89974e-40 1.53318e-40 5.45072e-42)
(7.62085e-40 -6.87926e-41 -1.06978e-40)
(1.93827e-38 -1.83358e-39 -2.7408e-39)
(2.60538e-37 -2.45381e-38 -3.67188e-38)
(1.1977e-37 -5.06477e-39 -1.03749e-38)
(2.17054e-38 1.06577e-38 9.65556e-40)
(2.25248e-37 1.29775e-37 6.99783e-39)
(1.79882e-38 1.03664e-38 5.58501e-40)
(7.57771e-40 4.36717e-40 2.35252e-41)
(2.2359e-41 1.28855e-41 6.93991e-43)
(5.5374e-43 2.95456e-43 1.10998e-44)
(1.26332e-42 -1.12852e-43 -1.77032e-43)
(3.0907e-41 -2.9236e-42 -4.37016e-42)
(3.99711e-40 -3.7635e-41 -5.63205e-41)
(1.89487e-40 -8.05423e-42 -1.6457e-41)
(3.52797e-41 1.71906e-41 1.60304e-42)
(3.45443e-40 1.99011e-40 1.07335e-41)
(2.90248e-41 1.67261e-41 9.01196e-43)
(1.28353e-42 7.39701e-43 3.98482e-44)
(3.96688e-44 2.28606e-44 1.23128e-45)
(1.02036e-45 5.4855e-46 2.15181e-47)
(2.04081e-45 -1.80151e-46 -2.85424e-46)
(4.80858e-44 -4.54833e-45 -6.79879e-45)
(5.98649e-43 -5.63469e-44 -8.43296e-44)
(2.92955e-43 -1.25053e-44 -2.54982e-44)
(5.60805e-44 2.70229e-44 2.60296e-45)
(5.17905e-43 2.97471e-43 1.60948e-44)
(4.56716e-44 2.62376e-44 1.41811e-45)
(2.11552e-45 1.21524e-45 6.56786e-47)
(6.83473e-47 3.92551e-47 2.12146e-48)
(1.82455e-48 9.83614e-49 4.00697e-50)
(3.22773e-48 -2.80269e-49 -4.5044e-49)
(7.32925e-47 -6.9114e-48 -1.03621e-47)
(8.78944e-46 -8.24592e-47 -1.23778e-46)
(4.4435e-46 -1.89775e-47 -3.87437e-47)
(5.91166e-38 2.60773e-38 3.23779e-39)
(5.29542e-37 3.05016e-37 1.64669e-38)
(4.22824e-38 2.43658e-38 1.31307e-39)
(1.78128e-39 1.02658e-39 5.53045e-41)
(5.25626e-41 3.02921e-41 1.63149e-42)
(1.31036e-42 6.93825e-43 2.48948e-44)
(3.26374e-42 -2.92797e-43 -4.57494e-43)
(7.96432e-41 -7.51778e-42 -1.12463e-41)
(1.02996e-39 -9.62696e-41 -1.44406e-40)
(8.9258e-40 -3.33765e-41 -7.27521e-41)
(1.04468e-40 4.55808e-41 5.84816e-42)
(8.80891e-40 5.07338e-40 2.74e-41)
(7.40011e-41 4.26422e-41 2.29822e-42)
(3.27264e-42 1.88601e-42 1.0161e-43)
(1.01152e-43 5.82925e-44 3.13972e-45)
(2.61585e-45 1.39756e-45 5.29213e-47)
(5.66653e-45 -5.02597e-46 -7.92798e-46)
(1.33318e-43 -1.25827e-44 -1.88235e-44)
(1.66377e-42 -1.5542e-43 -2.33165e-43)
(1.4799e-42 -5.55339e-44 -1.20825e-43)
(1.79326e-43 7.73466e-44 1.0261e-44)
(1.42186e-42 8.18809e-43 4.42403e-44)
(1.25352e-43 7.22296e-44 3.89326e-45)
(5.80622e-45 3.34598e-45 1.80278e-46)
(1.87586e-46 1.08101e-46 5.82274e-48)
(5.02942e-48 2.70704e-48 1.06912e-49)
(9.56989e-48 -8.37936e-49 -1.33607e-48)
(2.17276e-46 -2.0504e-47 -3.06741e-47)
(2.6174e-45 -2.44332e-46 -3.66622e-46)
(2.39345e-45 -9.00772e-47 -1.95679e-46)
(3.00371e-46 1.2763e-46 1.75595e-47)
(2.23821e-45 1.28481e-45 6.96648e-47)
(2.06619e-46 1.1867e-46 6.41774e-48)
(1.00038e-47 5.74551e-48 3.10616e-49)
(3.37221e-49 1.93649e-49 1.04676e-50)
(9.36818e-51 5.05502e-51 2.07161e-52)
(1.57974e-50 -1.35895e-51 -2.20029e-51)
(3.46249e-49 -3.2568e-50 -4.88755e-50)
(4.02807e-48 -3.74586e-49 -5.63886e-49)
(3.79149e-48 -1.42587e-49 -3.10323e-49)
(1.87156e-40 7.4437e-41 1.19668e-41)
(1.38182e-39 7.95606e-40 4.3029e-41)
(1.16061e-40 6.68752e-41 3.60537e-42)
(5.13302e-42 2.9581e-42 1.59386e-43)
(1.58667e-43 9.1438e-44 4.92507e-45)
(4.13027e-45 2.18992e-45 7.92565e-47)
(9.77531e-45 -8.71206e-46 -1.36814e-45)
(2.29381e-43 -2.15996e-44 -3.23398e-44)
(2.86351e-42 -2.65367e-43 -3.99137e-43)
(3.70201e-42 -1.31603e-43 -2.9462e-43)
(3.48684e-43 1.3684e-43 2.27586e-44)
(2.41942e-42 1.39281e-42 7.53722e-44)
(2.13253e-43 1.22871e-43 6.62519e-45)
(9.87831e-45 5.69254e-45 3.06744e-46)
(3.19177e-46 1.83932e-46 9.90761e-48)
(8.60344e-48 4.60223e-48 1.75567e-49)
(1.774e-47 -1.56161e-48 -2.47775e-48)
(4.02188e-46 -3.78645e-47 -5.6694e-47)
(4.85832e-45 -4.49841e-46 -6.76754e-46)
(6.42516e-45 -2.29023e-46 -5.11965e-46)
(6.29665e-46 2.43712e-46 4.19454e-47)
(4.10017e-45 2.35999e-45 1.27796e-46)
(3.78387e-46 2.18005e-46 1.17566e-47)
(1.83199e-47 1.05568e-47 5.68896e-49)
(6.17567e-49 3.55875e-49 1.91705e-50)
(1.72305e-50 9.28445e-51 3.69016e-52)
(3.12641e-50 -2.71398e-51 -4.35661e-51)
(6.85223e-49 -6.44975e-50 -9.65745e-50)
(8.0102e-48 -7.40907e-49 -1.11496e-48)
(1.08582e-47 -3.87891e-49 -8.6606e-49)
(1.10725e-48 4.21221e-49 7.5229e-50)
(6.76168e-48 3.87874e-48 2.10869e-49)
(6.52015e-49 3.74378e-49 2.02605e-50)
(3.29346e-50 1.89118e-50 1.02277e-51)
(1.15638e-51 6.6394e-52 3.58972e-53)
(3.33802e-53 1.80271e-53 7.42925e-55)
(5.37736e-53 -4.58031e-54 -7.47419e-54)
(1.13955e-51 -1.06888e-52 -1.60575e-52)
(1.28952e-50 -1.18756e-51 -1.79333e-51)
(1.79439e-50 -6.40091e-52 -1.43238e-51)
(4.64016e-43 1.6801e-43 3.30461e-44)
(2.8528e-42 1.64172e-42 8.86806e-44)
(2.51413e-43 1.44848e-43 7.7847e-45)
(1.16474e-44 6.71192e-45 3.60349e-46)
(3.76402e-46 2.16909e-46 1.16381e-47)
(1.02133e-47 5.42216e-48 1.97016e-49)
(2.30242e-47 -2.03767e-48 -3.20439e-48)
(5.20549e-46 -4.88861e-47 -7.29854e-47)
(6.29245e-45 -5.77594e-46 -8.68208e-46)
(1.09231e-44 -3.77687e-46 -8.54295e-46)
(9.08407e-46 3.24094e-46 6.5904e-47)
(5.24482e-45 3.01766e-45 1.63114e-46)
(4.83934e-46 2.78793e-46 1.49839e-47)
(2.34331e-47 1.3503e-47 7.24891e-49)
(7.90071e-49 4.55279e-49 2.44254e-50)
(2.21626e-50 1.18692e-50 4.53994e-52)
(4.35973e-50 -3.8071e-51 -6.05314e-51)
(9.54133e-49 -8.95819e-50 -1.33726e-49)
(1.11884e-47 -1.02586e-48 -1.54221e-48)
(1.98123e-47 -6.86542e-49 -1.55071e-48)
(1.72035e-48 6.04544e-49 1.27107e-49)
(9.31196e-48 5.35653e-48 2.89761e-49)
(8.97677e-49 5.17116e-49 2.77939e-50)
(4.53461e-50 2.6129e-50 1.4026e-51)
(1.59234e-51 9.17557e-52 4.92213e-53)
(4.61649e-53 2.49013e-53 9.91206e-55)
(8.00465e-53 -6.88555e-54 -1.10845e-53)
(1.69634e-51 -1.59221e-52 -2.37655e-52)
(1.92949e-50 -1.76671e-51 -2.65653e-51)
(3.49316e-50 -1.21263e-51 -2.7357e-51)
(3.16656e-51 1.09229e-51 2.38088e-52)
(1.60566e-50 9.20313e-51 4.99953e-52)
(1.61416e-51 9.26557e-52 4.99773e-53)
(8.49213e-53 4.87538e-53 2.62641e-54)
(3.10102e-54 1.78015e-54 9.5844e-56)
(9.28874e-56 5.02034e-56 2.07033e-57)
(1.43237e-55 -1.20738e-56 -1.97775e-56)
(2.93917e-54 -2.74853e-55 -4.11599e-55)
(3.24342e-53 -2.95531e-54 -4.45963e-54)
(6.01353e-53 -2.08354e-54 -4.71158e-54)
)
;

boundaryField
{
    inlet
    {
        type            calculated;
        value           nonuniform 0();
    }
    outlet
    {
        type            calculated;
        value           nonuniform 0();
    }
    bottom
    {
        type            calculated;
        value           uniform (0 0 0);
    }
    top
    {
        type            symmetryPlane;
    }
    side1
    {
        type            symmetryPlane;
    }
    side2
    {
        type            symmetryPlane;
    }
    procBoundary28to20
    {
        type            processor;
        value           nonuniform List<vector> 
50
(
(9.46128e-31 5.30761e-31 2.79454e-32)
(1.33949e-29 7.72089e-30 4.1575e-31)
(9.02457e-31 5.20202e-31 2.80132e-32)
(3.23478e-32 1.86464e-32 1.00414e-33)
(8.18782e-34 4.71956e-34 2.54118e-35)
(1.79132e-35 9.31582e-36 2.96304e-37)
(5.97288e-35 -5.47416e-36 -8.40838e-36)
(1.63727e-33 -1.5519e-34 -2.31791e-34)
(2.35671e-32 -2.23452e-33 -3.33635e-33)
(1.68704e-33 -1.59897e-34 -2.38799e-34)
(7.76459e-33 3.84243e-33 3.36215e-34)
(8.80872e-32 5.07624e-32 2.736e-33)
(6.30128e-33 3.63202e-33 1.95629e-34)
(2.39069e-34 1.37804e-34 7.42162e-36)
(6.38579e-36 3.68078e-36 1.98192e-37)
(1.46855e-37 7.64767e-38 2.45658e-39)
(4.63044e-37 -4.2237e-38 -6.51112e-38)
(1.21025e-35 -1.14498e-36 -1.71135e-36)
(1.66183e-34 -1.56538e-35 -2.34216e-35)
(7.8175e-35 -3.24364e-36 -6.70606e-36)
(3.35415e-35 1.47993e-35 1.82958e-36)
(3.08413e-34 1.77679e-34 9.58879e-36)
(2.33451e-35 1.3455e-35 7.24928e-37)
(9.3471e-37 5.38767e-37 2.90193e-38)
(2.62777e-38 1.51461e-38 8.15583e-40)
(6.33761e-40 3.30468e-40 1.07144e-41)
(1.89501e-39 -1.71978e-40 -2.66134e-40)
(4.73541e-38 -4.47034e-39 -6.68687e-39)
(6.22815e-37 -5.82199e-38 -8.73221e-38)
(5.58936e-37 -2.06271e-38 -4.52669e-38)
(1.01199e-37 4.02259e-38 6.45496e-39)
(7.62731e-37 4.39247e-37 2.37444e-38)
(6.08987e-38 3.50958e-38 1.89161e-39)
(2.56613e-39 1.47906e-39 7.96768e-41)
(7.57413e-41 4.36552e-41 2.35086e-42)
(1.91157e-42 9.97985e-43 3.26407e-44)
(5.43501e-42 -4.90573e-43 -7.62253e-43)
(1.30178e-40 -1.22592e-41 -1.83536e-41)
(1.64632e-39 -1.52556e-40 -2.2945e-40)
(2.22002e-39 -7.81244e-41 -1.75828e-40)
(2.39725e-40 8.66646e-41 1.70547e-41)
(1.49632e-39 8.61303e-40 4.65042e-41)
(1.25668e-40 7.2414e-41 3.89135e-42)
(5.55939e-42 3.20416e-42 1.72014e-43)
(1.71901e-43 9.90761e-44 5.31551e-45)
(4.53128e-45 2.3684e-45 7.77925e-47)
(1.22805e-44 -1.10207e-45 -1.71329e-45)
(2.82563e-43 -2.65372e-44 -3.96236e-44)
(3.4485e-42 -3.16419e-43 -4.75735e-43)
(6.27803e-42 -2.15279e-43 -4.89178e-43)
)
;
    }
    procBoundary28to27
    {
        type            processor;
        value           nonuniform List<vector> 
20
(
(3.74048e-33 1.67267e-33 1.52479e-34)
(6.56935e-36 2.88837e-36 2.91663e-37)
(1.11813e-38 4.84473e-39 5.31454e-40)
(1.85352e-41 7.90478e-42 9.31307e-43)
(1.09423e-34 2.20808e-35 1.12443e-35)
(1.87554e-37 3.87754e-38 1.91777e-38)
(3.12257e-40 6.61255e-41 3.17623e-41)
(5.07497e-43 1.09689e-43 5.13402e-44)
(7.48879e-37 1.24465e-37 8.39062e-38)
(1.33508e-39 2.26671e-40 1.49152e-40)
(2.30557e-42 4.00004e-43 2.5675e-43)
(3.87747e-45 6.85293e-46 4.30298e-46)
(2.93954e-39 4.46595e-40 3.40894e-40)
(5.47569e-42 8.4716e-43 6.33962e-43)
(9.85626e-45 1.55362e-45 1.13896e-45)
(1.72404e-47 2.76037e-48 1.98793e-48)
(8.29025e-42 1.19555e-42 9.75867e-43)
(1.61364e-44 2.36418e-45 1.8974e-45)
(3.02839e-47 4.51015e-48 3.55625e-48)
(5.5124e-50 8.31918e-51 6.46328e-51)
)
;
    }
    procBoundary28to29
    {
        type            processor;
        value           nonuniform List<vector> 
20
(
(1.14171e-37 -9.47817e-39 -1.47621e-38)
(1.81814e-40 -1.5115e-41 -2.35298e-41)
(2.831e-43 -2.35734e-44 -3.66763e-44)
(4.32464e-46 -3.59621e-47 -5.60868e-47)
(2.87928e-36 -9.04373e-38 -2.16563e-37)
(4.36138e-39 -1.37001e-40 -3.28049e-40)
(6.46124e-42 -2.02981e-43 -4.86011e-43)
(9.39744e-45 -2.94407e-46 -7.06894e-46)
(2.24275e-38 -7.04145e-40 -1.6867e-39)
(3.57492e-41 -1.12248e-42 -2.68864e-42)
(5.55995e-44 -1.74588e-45 -4.18164e-45)
(8.47143e-47 -2.65237e-48 -6.37149e-48)
(9.19859e-41 -2.8873e-42 -6.91776e-42)
(1.53914e-43 -4.83148e-45 -1.15752e-44)
(2.50736e-46 -7.87138e-48 -1.88571e-47)
(3.99393e-49 -1.25001e-50 -3.00377e-50)
(2.64787e-43 -8.30944e-45 -1.98229e-44)
(4.64076e-46 -1.45647e-47 -3.4736e-47)
(7.90333e-49 -2.4806e-50 -5.9145e-50)
(1.31376e-51 -4.11041e-53 -9.82971e-53)
)
;
    }
}


// ************************************************************************* //
