/*--------------------------------*- C++ -*----------------------------------*\
| =========                 |                                                 |
| \\      /  F ield         | OpenFOAM: The Open Source CFD Toolbox           |
|  \\    /   O peration     | Version:  2.4.0                                 |
|   \\  /    A nd           | Web:      www.OpenFOAM.org                      |
|    \\/     M anipulation  |                                                 |
\*---------------------------------------------------------------------------*/
FoamFile
{
    version     2.0;
    format      ascii;
    class       volVectorField;
    location    "0.02";
    object      Ur;
}
// * * * * * * * * * * * * * * * * * * * * * * * * * * * * * * * * * * * * * //

dimensions      [0 1 -1 0 0 0 0];

internalField   nonuniform List<vector> 
200
(
(-4.05904 0.604049 13.1633)
(-4.04527 1.18453 0.530084)
(-7.52821 -1.29627 10.9338)
(-7.14535 -0.443028 -1.7165)
(-10.0548 -3.94759 6.59858)
(-6.18246 -4.34528 -8.02252)
(-4.743 -3.21346 -6.99466)
(-5.07725 0.171031 5.52252)
(-6.58145 4.68418 2.89663)
(-7.7357 2.55052 4.79354)
(-3.55614 0.25888 -0.461258)
(-5.36583 -1.92354 9.39997)
(-5.28719 -0.749337 -1.69687)
(-6.79586 -3.09068 3.09422)
(-5.7431 -2.43385 -5.36215)
(-2.16063 -5.3094 -17.1737)
(-1.17613 -1.01961 2.95441)
(-4.0648 1.61896 6.70088)
(-5.79019 -0.20738 5.50259)
(-6.17097 3.70911 3.5798)
(-3.34635 -1.90027 5.86984)
(-3.20531 -0.994247 -2.30162)
(-3.71816 -1.8628 1.27544)
(-2.73099 -1.21923 -3.46264)
(-1.60759 -2.87647 -5.9444)
(-0.41526 -0.848215 -4.15314)
(-1.48087 0.854656 7.41701)
(-2.6081 -0.381524 5.59833)
(-4.61816 1.09999 9.43783)
(-7.02111 -1.57125 5.33668)
(-1.37145 -0.735605 -3.10814)
(-1.5575 -1.16195 -0.166351)
(-1.57919 -0.368649 -2.32704)
(-1.83785 -1.83723 -0.715336)
(-1.32549 -0.840854 -4.27972)
(-0.904355 -0.889274 -0.00659471)
(-3.11692 -0.976919 -0.468303)
(-2.02744 0.352548 7.72156)
(-4.56156 -1.93021 3.70127)
(-6.58575 -0.00560518 -1.29436)
(-2.96259 2.62186 0.195149)
(-5.53275 2.50234 14.3119)
(-3.72111 3.14257 2.56888)
(-7.14 0.171425 13.0204)
(-3.82902 0.576588 -5.90159)
(-3.9022 -0.677669 -11.632)
(-5.16708 0.586252 0.601701)
(-6.45899 3.0086 -1.50634)
(-4.40144 -3.62525 12.5012)
(-6.52021 2.32845 0.136988)
(-4.31678 1.2051 12.5377)
(-3.38662 2.24572 -1.66951)
(-4.61779 0.396772 7.46044)
(-3.29189 0.482902 -4.94824)
(-2.48559 -2.02571 -6.3231)
(-3.91515 1.04361 -17.3671)
(-4.32974 1.50094 1.44393)
(-3.27962 -1.05861 6.09651)
(-4.31071 0.708357 8.85685)
(-5.23404 -1.87631 2.83662)
(-2.53586 0.523842 -4.57473)
(-2.37868 -0.476683 2.00125)
(-1.75454 0.527207 -3.53491)
(-1.90735 -2.11306 -2.24632)
(-1.49674 -0.99276 -6.22192)
(-2.52319 0.294708 0.111322)
(-2.83219 -0.0344828 -0.895309)
(-2.22361 2.71217 10.8019)
(-1.42025 0.736374 5.93595)
(-2.54411 0.196939 11.643)
(0.365747 -0.696927 -2.46505)
(0.167701 0.450683 -4.26729)
(-0.650092 -1.19141 -1.95988)
(-0.0158714 -0.584507 -6.82391)
(-1.39261 -1.43598 -6.29121)
(-2.92151 -0.771713 -4.29757)
(-3.21946 0.0658047 1.93833)
(-3.58742 0.757627 -3.24014)
(-1.04168 2.68825 12.9902)
(-2.79943 -0.320677 3.50859)
(-4.04118 0.806683 12.8389)
(-3.11317 3.03517 0.0879887)
(-5.18949 3.47361 12.581)
(-3.0929 2.83875 -2.9278)
(-4.14709 1.77229 -6.3083)
(-3.59326 2.94622 -1.65573)
(-4.83947 3.59415 -2.61421)
(-3.63754 -1.15693 7.50599)
(-4.15874 3.01665 3.43382)
(-2.01793 -13.9534 42.0324)
(-2.63554 1.6052 -0.567124)
(-4.35195 1.45807 19.9372)
(-3.55101 3.7834 -1.47126)
(-4.67886 1.73566 4.78899)
(-2.14606 1.24167 -4.73818)
(-5.79844 2.12432 -7.60798)
(-4.42849 2.20945 -3.18449)
(-3.47835 3.8722 6.38066)
(-1.50137 0.438872 7.1085)
(-1.11326 3.27339 9.6546)
(-1.53434 0.883352 2.43987)
(-1.01194 0.767303 -3.57089)
(-2.10124 -0.706025 2.15265)
(-0.863099 -0.497595 -4.88554)
(-2.16 0.322143 -2.18284)
(-2.03226 0.497283 -3.2501)
(-2.6708 2.42378 5.58995)
(-1.73928 2.72017 0.403809)
(-0.00680509 3.38206 7.61417)
(2.18487 -0.120885 3.75662)
(1.0642 0.252489 -5.59163)
(0.202375 -0.545768 -1.96491)
(0.331732 -0.360336 -6.26053)
(-0.719436 -0.536732 -5.41424)
(-1.62037 -0.125797 -5.3237)
(-2.32233 0.606317 -1.32598)
(-2.757 0.805697 -3.36444)
(-0.801618 2.61817 7.94803)
(1.1841 0.463105 5.31438)
(3.9438 -0.106154 8.72775)
(-3.48228 0.285062 -0.358204)
(-4.94098 0.408217 17.2312)
(-3.73201 3.59668 -2.53027)
(-6.18479 4.17279 6.62956)
(-4.05508 3.19952 -2.40969)
(-5.59701 3.82907 -6.85518)
(-5.23093 4.78675 -9.17685)
(-4.62064 3.47612 5.04316)
(-2.69321 0.139169 7.43874)
(-2.0073 1.71366 7.73015)
(-6.13352 0.0766129 17.5127)
(-3.23312 2.1439 -0.925958)
(-6.26548 1.6293 25.8291)
(-4.36395 3.27261 -5.31584)
(-6.72992 3.3186 0.880009)
(-4.7455 3.38567 -5.55147)
(-5.04343 3.58822 1.4214)
(-5.21275 6.72929 -13.663)
(-2.90927 6.97029 5.07951)
(1.69133 3.70038 5.27338)
(-3.00826 1.97702 -3.20021)
(-4.67647 2.02604 7.83069)
(-2.33672 1.60484 -2.58655)
(-4.20478 0.273156 3.54704)
(-3.25547 0.558907 -4.44605)
(-4.08219 1.77009 2.90576)
(-3.83981 2.86086 -4.57844)
(-0.972971 4.92894 5.41948)
(-0.0824302 2.9317 -0.455447)
(3.68395 0.0759274 2.70194)
(-1.3423 0.062277 -0.461011)
(-0.473607 0.251621 -5.35878)
(-1.33018 -0.30409 -1.51504)
(-0.901783 -0.0366611 -6.0344)
(-3.03807 0.741433 -0.590608)
(-2.83819 1.03799 -6.82106)
(-3.53914 2.04288 3.97934)
(-0.503073 1.93561 -0.583033)
(3.05242 0.440072 7.10855)
(4.66352 -1.39753 5.65103)
(-5.35499 -3.04844 9.74058)
(-3.2074 -1.79719 -1.34346)
(-3.43223 -1.60155 20.0003)
(-0.604851 1.97058 -3.73388)
(-0.382373 2.97595 -4.15651)
(-3.38927 6.32533 -11.1996)
(-1.27657 3.16502 2.67804)
(-6.31396 8.08255 -27.8744)
(-6.44956 7.49191 0.979561)
(-3.06578 -0.0913716 5.31728)
(-4.86023 1.16936 -3.04815)
(-6.23727 1.0089 18.7447)
(-1.19019 2.92114 -2.00313)
(-2.85578 2.43329 17.0837)
(-1.59354 3.10374 -5.51459)
(-1.54227 3.25407 -1.88965)
(-5.70345 4.65059 -12.0046)
(-1.52091 2.9532 5.90187)
(-9.20407 6.93422 -40.0952)
(-5.51733 6.24895 -0.728635)
(-5.7658 3.12673 4.19198)
(-4.13184 4.72805 -7.07093)
(-5.34505 4.42488 7.83986)
(-2.52218 5.25698 -1.24236)
(-3.02125 2.73455 2.34889)
(-3.40797 3.21338 -6.02403)
(-3.13126 2.93446 -1.46731)
(-5.55756 3.87992 -7.94105)
(-2.16331 3.80194 4.62273)
(-0.680755 1.55864 -3.02847)
(-2.33741 1.20764 -8.19916)
(-4.13799 0.880042 -0.825032)
(-3.02915 2.13057 -10.3728)
(-4.83684 1.83238 1.32202)
(-2.73937 1.98162 -3.41189)
(-3.74678 2.24067 2.19017)
(-3.79057 2.05286 -6.30944)
(-1.72034 2.04293 0.463335)
(0.226086 -1.36572 -1.89753)
(3.9396 -0.941 2.05662)
)
;

boundaryField
{
    inlet
    {
        type            calculated;
        value           nonuniform 0();
    }
    outlet
    {
        type            calculated;
        value           nonuniform 0();
    }
    bottom
    {
        type            calculated;
        value           uniform (0 0 0);
    }
    top
    {
        type            symmetryPlane;
    }
    side1
    {
        type            symmetryPlane;
    }
    side2
    {
        type            symmetryPlane;
    }
    procBoundary28to20
    {
        type            processor;
        value           nonuniform List<vector> 
50
(
(-0.0299163 0.663556 3.50119)
(-4.69251 -0.464878 7.43827)
(-5.37912 -0.62921 -1.08237)
(-8.89017 -1.39761 6.74525)
(-5.95366 -2.04818 -2.32815)
(-11.0011 -3.57076 11.8649)
(-6.23655 -2.65319 -2.45141)
(-6.16706 0.887998 0.0518988)
(-8.04558 3.05874 3.17798)
(-8.73763 6.48459 0.410884)
(-2.8483 -0.0383806 6.53274)
(-1.69346 0.596742 7.4781)
(-6.15688 0.328104 7.85166)
(-6.26303 1.5647 -0.155182)
(-8.27401 -0.929589 6.72303)
(-4.1455 0.819929 -4.58694)
(-4.79467 1.01406 -9.33897)
(-6.54224 0.636253 1.37431)
(-7.45643 2.80942 -1.29056)
(-5.8765 1.23604 0.267752)
(-1.92819 0.765335 3.61864)
(-3.95433 0.482167 8.22242)
(-1.70506 1.42301 11.2857)
(-5.52517 1.34021 3.91584)
(-3.0151 2.44551 -3.93717)
(-2.56994 3.96195 -7.82313)
(-3.9246 0.871659 1.43704)
(-6.04903 3.4985 0.268042)
(-5.37997 -0.875348 6.20364)
(-5.0777 2.57284 1.03351)
(-3.10243 -0.70825 8.94854)
(-3.55585 1.54633 -0.129358)
(-4.88021 2.17291 8.67385)
(-2.52971 3.57122 -1.90805)
(-3.59243 3.89746 -5.54779)
(-2.67767 5.13254 -4.36183)
(-4.36259 3.40556 1.6413)
(-2.19615 -0.353198 5.005)
(-3.65545 1.3296 2.49939)
(-1.71208 -1.48968 3.75237)
(-5.19855 -1.06356 1.898)
(-3.47297 -2.71816 9.03287)
(-1.22403 0.540323 -1.69858)
(-0.32952 2.44281 -3.9788)
(-2.21778 6.21085 -8.22253)
(-0.446303 4.98876 -1.5532)
(-3.6892 9.94469 -20.0451)
(-5.31448 3.87782 2.34411)
(-3.8844 0.71092 4.92709)
(-2.76637 1.25907 0.675568)
)
;
    }
    procBoundary28to27
    {
        type            processor;
        value           nonuniform List<vector> 
20
(
(-1.00789 2.15479 0.651489)
(-2.95331 0.0283522 9.81833)
(-3.63575 -0.604172 -1.42117)
(-1.1616 -1.38554 1.46202)
(-3.87231 1.78995 8.0395)
(-3.20335 1.34955 -1.81196)
(-3.15992 -0.853626 -3.07407)
(1.00365 -0.945663 -5.76894)
(-2.46196 0.599354 -0.082331)
(-3.19937 0.161975 10.2348)
(0.309617 1.21093 -4.90109)
(1.41045 -0.0873329 -3.12683)
(-4.26566 -1.43704 7.08683)
(-3.42451 0.452882 -0.87337)
(-3.56871 1.70527 3.39608)
(-0.486496 0.398215 -4.70539)
(-5.04161 -1.74205 -0.85795)
(-6.2497 -0.326868 8.28193)
(-3.60022 3.07152 -6.71198)
(-2.73627 0.8424 -0.389108)
)
;
    }
    procBoundary28to29
    {
        type            processor;
        value           nonuniform List<vector> 
20
(
(-6.79856 6.69353 3.57173)
(-6.44399 0.466245 3.74653)
(-6.80334 1.99302 0.0322474)
(-6.61845 -3.16805 2.97477)
(-7.83861 0.803832 0.706902)
(-4.82477 0.997964 3.04543)
(-3.24468 -0.17388 2.27082)
(-3.28357 0.322112 -0.622898)
(-4.80704 1.83978 6.9963)
(-2.45185 0.870219 1.28169)
(3.41466 -0.723016 5.48224)
(3.14206 -1.11186 6.80927)
(-0.165463 0.648675 1.33814)
(2.00809 2.76458 5.13368)
(4.59256 -0.635938 2.72452)
(5.58561 -1.95048 5.76245)
(-3.34168 -1.12514 -0.892739)
(-3.81933 0.471235 2.20442)
(-2.71701 0.568221 0.257284)
(5.35663 -5.1915 0.0182573)
)
;
    }
}


// ************************************************************************* //
