/*--------------------------------*- C++ -*----------------------------------*\
| =========                 |                                                 |
| \\      /  F ield         | OpenFOAM: The Open Source CFD Toolbox           |
|  \\    /   O peration     | Version:  2.4.0                                 |
|   \\  /    A nd           | Web:      www.OpenFOAM.org                      |
|    \\/     M anipulation  |                                                 |
\*---------------------------------------------------------------------------*/
FoamFile
{
    version     2.0;
    format      ascii;
    class       volVectorField;
    location    "0.02";
    object      gradp;
}
// * * * * * * * * * * * * * * * * * * * * * * * * * * * * * * * * * * * * * //

dimensions      [1 -2 -2 0 0 0 0];

internalField   nonuniform List<vector> 
200
(
(14215.5 -10897.4 -21258.6)
(39570.9 -5569.08 -22662.9)
(58147.6 -11541.7 -26835.7)
(50995.8 -16361 -33272.8)
(44296.7 -22587.1 -46037.2)
(63077.7 -34735.6 -66292.1)
(208725 -44055.9 -79670.6)
(414720 -106851 -135828)
(308752 -171795 -177106)
(958.028 -191117 -143721)
(24034.7 -4066.97 -19055.4)
(38282.4 -8770.13 -23499.7)
(36563.6 -17467.8 -23161.6)
(28905 -28971.9 -28723.7)
(7547.6 -37406.8 -37708.7)
(20140 -45100.9 -44356.2)
(64494.5 -66516.5 -60601.9)
(159241 -136810 -87522.3)
(140221 -257123 -163860)
(82116.5 -252572 -119436)
(23100.7 9225.57 -17890.9)
(12769.3 1295.25 -9977.04)
(17744 -9172.16 -11537)
(11117.8 -20493.7 -15046.4)
(12038.8 -23547.9 -21136.5)
(4858.31 -21039.3 -30323.6)
(25305.8 -22425.2 -32415.3)
(33506.9 -42896.8 -49310.1)
(77228.8 -90462.3 -49959.3)
(75230.2 -98582.1 -71363.2)
(8565.42 2870.25 -6629.36)
(1486.97 -1888.57 -7547.38)
(-7014.23 -10145 -6870.28)
(153.507 -18839.1 -7018.3)
(6456.28 -23781.5 -10745.6)
(22385.4 -27743.3 -13059.8)
(20779.5 -13417.6 -20560.3)
(23166.6 -16756.8 -15744.5)
(28849.9 -15434.7 -23178.2)
(17713 -42550.4 -20174.6)
(-647.655 -7372.41 -14283.9)
(21724 -6907.98 -16280.7)
(24195.8 -5663.11 -18129.8)
(-10449 -9082.52 -31165.4)
(-61364.9 -9261.4 -60435.5)
(-44549.1 361.786 -74805.5)
(-13791.6 -13546 -109339)
(102927 -29560.9 -174117)
(283496 -150602 -287274)
(411369 -152261 -274182)
(8239.26 1321.24 -12530.7)
(25142.6 11527.2 -20297.8)
(19846.7 7010.26 -27508.9)
(-17645.5 190.375 -42079.5)
(-42476.3 2434.31 -51029.2)
(-53118.3 12448.6 -64128.1)
(-73637 9091.96 -90231.7)
(-171185 1618.98 -134357)
(38096.1 -53688.7 -243300)
(276329 -136800 -394306)
(35972.6 29107.3 -9343.55)
(33102 26819 -9366.53)
(1522.14 16894 -14249.4)
(-19600.9 14235 -20744.3)
(-36848.4 19593 -29904.5)
(-31233.8 29035 -41875.9)
(-35450.9 41641.4 -52000.1)
(-22633.8 71947.7 -73158)
(6658.72 134628 -103236)
(91106.1 60236.4 -154239)
(20144.4 27834.9 -7226.99)
(716.025 10605.7 -9548.98)
(-5321.18 1839.95 -8532.1)
(-12247.5 1482.31 -9072.53)
(-12876.4 6083.21 -13397.9)
(-9021.58 19350.5 -19812.8)
(12188.4 31074.9 -29494.7)
(14789.2 51309.1 -34272.6)
(14673.5 58967.8 -44201.9)
(25657.8 55767 -53414.2)
(18209.7 -8092.42 52123.1)
(27264 -11996.4 42190.9)
(10516.7 -26548.3 30750.8)
(-84382.4 -33823.7 22659.4)
(-95351.8 -7537.04 2552.83)
(-93415.2 -17651.8 -23329.6)
(-109072 -13483.4 -36981.1)
(-154672 -43235.4 -56535.7)
(-11454.8 -101436 -116006)
(326538 -383315 -210415)
(-6866.35 3837.55 32762.6)
(-9647.78 2292.58 24380.8)
(-33137.9 -11259.3 9625.93)
(-46359.8 -12298.3 -6564.61)
(-63008 11442.8 -23673.7)
(-105308 7586.58 -37676.6)
(-160239 25226.6 -50212.7)
(-330577 24724 -70109.1)
(-691615 37339.4 -83620)
(-115420 -60664.5 -309674)
(9713.26 17711.6 17706.2)
(-2929.57 18493.4 7136.75)
(-18665 21190.8 -698.884)
(-38978.2 32317.5 -7906.88)
(-55582.1 36662.1 -15097.5)
(-65847.6 49865.2 -24664)
(-74797.1 74753.9 -40331.2)
(-130447 117239 -42456.4)
(-182232 228094 -64741.7)
(-109679 446845 -112939)
(2981.25 4893.79 -1842.32)
(-2689.39 4966.94 -988.902)
(-5489.58 6296.52 -3973.8)
(-15417.1 11159.1 -6751.34)
(-27912.6 20748.4 -10067.8)
(-29124.4 33112.9 -14990.6)
(-25491.7 47577 -21530.1)
(-23896.3 67660.4 -36007)
(-32403.2 109374 -41563.9)
(-1512.9 150344 -71274.5)
(-66654.9 -38349.2 -15580.8)
(-46667.4 -35404 -30196.9)
(-38305 -39462.9 -28638.8)
(-100682 -55840.9 -22875.5)
(-208529 -51223.8 1699.14)
(-171058 -22593.4 12439.1)
(-120051 -34716.7 44144.6)
(-149951 -51278.3 56224.1)
(-208917 -98785.4 90166.9)
(25705.2 -311076 78634)
(-15223.3 -53745.8 43228.8)
(-48894.8 -44559.4 26792.4)
(-79178.7 -43309.2 16166.4)
(-124204 -48715.6 20036.5)
(-142035 -25806.2 15534.1)
(-138043 10313.5 22943.1)
(-177421 3731.78 35572.6)
(-278088 24145.8 51020.7)
(-728513 28333.5 109638)
(-1.33238e+06 19162.1 228925)
(2008.23 -26260.6 22878)
(-25794.3 -13772.6 13981.6)
(-46617.5 -4865.55 8689.31)
(-65676.5 13936.2 7483.97)
(-90471.3 41362.4 9141.68)
(-111981 65332.5 11884.4)
(-92386.5 87533.6 16519.6)
(-100748 126511 18948)
(-218884 201918 34300.3)
(-480768 441676 37676.5)
(7777.6 -12510.7 9902.08)
(-6104.69 -9470.08 5949.03)
(-23761 -194.339 3425.5)
(-31748.4 8248.2 767.278)
(-39242.1 20628.2 646.894)
(-45700.8 38147.9 2206.46)
(-55063.8 60685.7 1118.11)
(-49319.2 65753.4 2502.1)
(-98182.6 83603.6 -9017.44)
(-119562 158562 -12895.1)
(52182.4 86003 -60729.2)
(-14521.6 79186.6 -66005.7)
(33945.4 45140 -50683.7)
(12699.2 34835.5 -43427.4)
(17654.8 14598.8 -15251.9)
(42410.4 -845.275 27255.2)
(31040.3 -27198.7 51456.8)
(-7400.97 -51560.8 74471.3)
(60256.7 -70282.1 96003.7)
(-27264 -142850 158588)
(-135819 65371.8 16990.9)
(-96247.5 72978.3 5613.51)
(-54756.8 48465.8 2193.15)
(-48383.2 36276.9 13245.3)
(-53706.8 23350.9 25887.3)
(-41184.6 6699.16 40847.8)
(-70390.8 -18973.4 56155.6)
(-93567.8 -34917.8 74294.7)
(-122321 -52047.1 113818)
(-375964 -126197 263730)
(-49886.6 -35611.1 13719.2)
(-48333.5 -14856.1 7455.39)
(-39457.5 805.373 6675.72)
(-37530.7 1486.73 9692.89)
(-41500.6 12842.6 15471.3)
(-42238.2 16686.5 24996.2)
(-52193.6 19626.7 37266.1)
(-73548.4 39609.1 37556.5)
(-122301 38245.6 45765.8)
(-198319 59932.2 67738.8)
(-22008.5 -19697.8 11146.8)
(-23414.4 -12239 4936.33)
(-22071.2 -5929.01 5737.48)
(-24308.6 -2724.6 5464.39)
(-23307.3 748.445 8062.39)
(-27616.5 7429.24 10444)
(-24545.6 11893.6 13713.8)
(-56330 20627.8 19981)
(-81674.3 30510.9 11522.9)
(-134413 48251.9 25139.8)
)
;

boundaryField
{
    inlet
    {
        type            zeroGradient;
    }
    outlet
    {
        type            zeroGradient;
    }
    bottom
    {
        type            zeroGradient;
    }
    top
    {
        type            symmetryPlane;
    }
    side1
    {
        type            symmetryPlane;
    }
    side2
    {
        type            symmetryPlane;
    }
    procBoundary6to5
    {
        type            processor;
        value           nonuniform List<vector> 
20
(
(-2073.71 -10478.7 -18018.1)
(-1260.3 -13212.7 -18563.6)
(20120.3 9029.9 -13999.5)
(29357.4 7764.84 -11165.8)
(-9225.03 -11351.4 -17528.9)
(-13602.5 -6782.93 -10641.2)
(11455.4 20866.4 -5182.96)
(25032.1 35315.3 -7803.93)
(31964.5 541.663 62818.1)
(8055.48 6540.82 31712.9)
(11962.8 13569.5 17750.6)
(11415.9 8828.17 2875.73)
(94075.4 -61119.8 -40813.4)
(27623.3 -78890.9 67090.2)
(29849.3 -25273.1 32606.6)
(7401.5 -9182.94 13758.3)
(232691 173187 -103142)
(43479.6 124013 43299.8)
(-33460 -71761.5 23672.5)
(-8596.05 -25611.4 14244.5)
)
;
    }
    procBoundary6to7
    {
        type            processor;
        value           nonuniform List<vector> 
20
(
(-135111 -131216 -48852.3)
(17404.9 -219987 -103169)
(5179.82 -122664 -44998.1)
(11248.5 -46202.7 -20695.5)
(251910 -218122 -185531)
(301579 -213820 -305030)
(130149 9293.12 -161020)
(23847.4 10279.5 -50209.9)
(542249 -322415 -236525)
(634803 -180769 -586341)
(190333 285048 -243452)
(49490.9 163026 -86945.1)
(484505 -777827 -20396.2)
(-212174 -224903 28218.2)
(-374453 808327 6600.32)
(-57963.5 312074 -50548.9)
(-423332 -244632 79450.8)
(-1.23279e+06 -137575 412698)
(-319083 159021 134031)
(-6888.94 132004 6881.74)
)
;
    }
    procBoundary6to14
    {
        type            processor;
        value           nonuniform List<vector> 
50
(
(3793.85 -15148.2 -2288.01)
(-13261.2 -18229.8 -2168.15)
(-16157.1 -24313.1 -4046.38)
(-16155.2 -27649.3 -2345.46)
(-5769.42 -37176.9 -2471.12)
(25586.1 -39414.9 -890.038)
(47278.7 -46853.2 -4607.53)
(29472.6 -24302.9 -6768.89)
(25641.5 -27166 -3457.7)
(13694.2 -21156.9 -9914.84)
(-13446.6 1690.32 -8078.84)
(-18888 -7853.78 -5081.83)
(-16724.6 -11649.3 -3973.5)
(-11114.3 -15170.6 -1995.45)
(-1112.06 -10964.2 -2073.26)
(18749.6 -8591.79 -3840.76)
(28466.4 3023.24 -13878.5)
(33152.1 2497.56 -20397.2)
(15574.5 14708.4 -25230.1)
(-6270.63 12711.5 -33680.6)
(1990.8 -2594.56 -7509.8)
(-124.111 -2997.93 -5410.59)
(-6280.74 -2879.13 -1970.31)
(-10074.4 -586.658 -3678.2)
(-11674.4 2698.24 -6006.91)
(-12190.6 9610.42 -12915.6)
(-5702.05 13781.7 -21824.4)
(-6852.7 18194.8 -33428.8)
(-16865.1 26287.1 -49344.3)
(-2375.61 39753.8 -48691.8)
(1433.95 -5217.6 7508.28)
(-1161.61 -9088.39 3227.94)
(-11180.9 -3393.74 1048.35)
(-24031.4 1915.61 -1193.32)
(-30671.8 6976.14 -3358.32)
(-31866.4 10134.5 -4167.86)
(-37175.6 12637 -5782.46)
(-54911.6 19592.5 -10447.4)
(-33267.2 25265 -14989)
(-23826.4 64959.9 -26130.9)
(-23141.7 -12186.8 9227.25)
(-20795.9 -7560.49 5724.84)
(-20428.8 -10196.8 3091.55)
(-24175.8 -7495.72 2834.88)
(-21192.9 -8441.98 3046.45)
(-19947.8 -9751.93 5797.03)
(-25796.5 -8451.42 6771.02)
(-36313.8 -15369.9 9353.02)
(-67052.5 2273.94 12582.8)
(4667.61 27915.9 -1204.9)
)
;
    }
}


// ************************************************************************* //
