/*--------------------------------*- C++ -*----------------------------------*\
| =========                 |                                                 |
| \\      /  F ield         | OpenFOAM: The Open Source CFD Toolbox           |
|  \\    /   O peration     | Version:  2.4.0                                 |
|   \\  /    A nd           | Web:      www.OpenFOAM.org                      |
|    \\/     M anipulation  |                                                 |
\*---------------------------------------------------------------------------*/
FoamFile
{
    version     2.0;
    format      ascii;
    class       volVectorField;
    location    "0.02";
    object      Uc;
}
// * * * * * * * * * * * * * * * * * * * * * * * * * * * * * * * * * * * * * //

dimensions      [0 1 -1 0 0 0 0];

internalField   nonuniform List<vector> 
200
(
(1.84603e-23 -5.62216e-25 -1.3881e-24)
(1.24748e-25 -3.79107e-27 -9.38034e-27)
(8.15905e-28 -2.36672e-29 -6.1204e-29)
(1.544e-28 9.44429e-29 1.991e-30)
(1.23446e-26 7.92358e-27 2.109e-28)
(8.97606e-25 5.88128e-25 1.70345e-26)
(5.48213e-23 3.7318e-23 1.2356e-24)
(2.5767e-21 1.91142e-21 7.95644e-23)
(7.26311e-20 7.1363e-20 4.56339e-21)
(-6.27513e-19 1.57116e-18 2.43297e-19)
(3.09093e-25 -9.56363e-27 -2.3242e-26)
(2.22309e-27 -6.54774e-29 -1.66725e-28)
(5.39359e-28 3.23708e-28 5.6907e-30)
(5.10141e-26 3.16419e-26 6.7805e-28)
(4.51711e-24 2.81314e-24 6.16336e-26)
(3.5469e-22 2.22384e-22 5.04444e-24)
(2.37489e-20 1.50786e-20 3.62985e-22)
(1.2668e-18 8.27196e-19 2.23343e-20)
(4.63788e-17 3.29679e-17 1.15466e-18)
(6.01875e-16 7.42302e-16 5.3165e-17)
(2.77511e-27 -7.91393e-29 -2.07699e-28)
(1.34118e-27 8.08989e-28 1.45816e-29)
(1.47168e-25 9.02918e-26 1.80641e-27)
(1.52496e-23 9.36166e-24 1.87919e-25)
(1.4443e-21 8.87483e-22 1.79051e-23)
(1.22065e-19 7.51257e-20 1.52834e-21)
(8.87656e-18 5.47994e-18 1.132e-19)
(5.22653e-16 3.24941e-16 6.93685e-18)
(2.20972e-14 1.40376e-14 3.2795e-16)
(4.70627e-13 3.37162e-13 1.13008e-14)
(2.36797e-27 1.43846e-27 2.70874e-29)
(2.94878e-25 1.80532e-25 3.56329e-27)
(3.49376e-23 2.13903e-23 4.22239e-25)
(3.86344e-21 2.36549e-21 4.6702e-23)
(3.92338e-19 2.40241e-19 4.74451e-21)
(3.5754e-17 2.1897e-17 4.327e-19)
(2.82342e-15 1.72979e-15 3.42269e-17)
(1.82337e-13 1.11815e-13 2.22014e-15)
(8.61942e-12 5.30223e-12 1.06548e-13)
(2.23448e-10 1.39982e-10 3.01414e-12)
(2.97446e-21 -9.07803e-23 -2.23651e-22)
(1.88406e-23 -5.73804e-25 -1.41664e-24)
(1.15707e-25 -3.5158e-27 -8.69963e-27)
(-1.2887e-27 1.22246e-28 1.42501e-28)
(-2.21462e-25 1.60315e-26 2.16845e-26)
(-2.30368e-23 1.67125e-24 2.24657e-24)
(-2.19382e-21 1.59736e-22 2.1273e-22)
(-1.86972e-19 1.36944e-20 1.79752e-20)
(-1.37905e-17 1.02007e-18 1.30712e-18)
(-8.34723e-16 6.28643e-17 7.70343e-17)
(4.67058e-23 -1.44666e-24 -3.51183e-24)
(3.15383e-25 -9.75775e-27 -2.37135e-26)
(3.05247e-28 6.7007e-29 1.70823e-29)
(-2.20523e-25 1.63821e-26 2.15423e-26)
(-2.62356e-23 1.94547e-24 2.55147e-24)
(-2.91605e-21 2.16268e-22 2.81964e-22)
(-2.98178e-19 2.21702e-20 2.86037e-20)
(-2.74472e-17 2.05278e-18 2.60207e-18)
(-2.20268e-15 1.66613e-16 2.04837e-16)
(-1.46534e-13 1.13284e-14 1.31477e-14)
(3.93069e-25 -1.22347e-26 -2.95549e-26)
(2.11983e-27 -2.94455e-29 -1.43375e-28)
(-9.82516e-26 7.96614e-27 9.5585e-27)
(-1.31982e-23 1.04769e-24 1.27298e-24)
(-1.682e-21 1.31464e-22 1.60674e-22)
(-2.01264e-19 1.55783e-20 1.9004e-20)
(-2.22917e-17 1.71959e-18 2.07324e-18)
(-2.24023e-15 1.73538e-16 2.03907e-16)
(-1.98421e-13 1.55959e-14 1.74543e-14)
(-1.48126e-11 1.20152e-12 1.22489e-12)
(2.35784e-27 -6.18037e-29 -1.7632e-28)
(1.1086e-27 1.3914e-27 2.22283e-30)
(6.81442e-26 1.62589e-25 -8.38079e-28)
(-2.43941e-24 1.81627e-23 -3.07482e-25)
(-1.88229e-21 1.94834e-21 -6.76365e-23)
(-4.38686e-19 2.03242e-19 -1.22621e-20)
(-7.78099e-17 2.11078e-17 -1.96981e-18)
(-1.18476e-14 2.24379e-15 -2.87062e-16)
(-1.60184e-12 2.46462e-13 -3.81114e-14)
(-1.93133e-10 2.71394e-11 -4.5694e-12)
(1.83994e-23 -5.60367e-25 -1.38346e-24)
(1.2428e-25 -3.77568e-27 -9.34383e-27)
(-3.64195e-27 2.92005e-28 3.83012e-28)
(-5.58704e-25 3.975e-26 5.57061e-26)
(-6.62025e-23 4.71339e-24 6.60077e-24)
(-7.32154e-21 5.21634e-22 7.3e-22)
(-7.43619e-19 5.30175e-20 7.41432e-20)
(-6.77809e-17 4.83595e-18 6.75816e-18)
(-5.35459e-15 3.82302e-16 5.33885e-16)
(-3.4611e-13 2.47286e-14 3.45092e-14)
(3.07986e-25 -9.52847e-27 -2.3157e-26)
(-1.33029e-27 1.86597e-28 1.86815e-28)
(-4.93664e-25 3.55454e-26 4.92215e-26)
(-6.58313e-23 4.73998e-24 6.56376e-24)
(-8.32334e-21 5.99296e-22 8.29885e-22)
(-9.86589e-19 7.10363e-20 9.83687e-20)
(-1.07948e-16 7.77249e-18 1.07631e-17)
(-1.06631e-14 7.6776e-16 1.06317e-15)
(-9.19249e-13 6.61878e-14 9.16547e-14)
(-6.53814e-11 4.70759e-12 6.51892e-12)
(1.46619e-27 7.05154e-30 -7.86785e-29)
(-1.97475e-25 1.42195e-26 1.96899e-26)
(-2.92612e-23 2.10687e-24 2.91752e-24)
(-4.16198e-21 2.99671e-22 4.14974e-22)
(-5.63794e-19 4.05943e-20 5.62136e-20)
(-7.19675e-17 5.1818e-18 7.17558e-18)
(-8.53041e-15 6.14207e-16 8.50533e-16)
(-9.19211e-13 6.6185e-14 9.16508e-14)
(-8.71665e-11 6.27616e-12 8.69102e-12)
(-6.88834e-09 4.95975e-10 6.86809e-10)
(-7.01209e-30 1.26349e-30 1.12782e-30)
(-3.53959e-27 2.60446e-28 3.52888e-28)
(-4.93997e-25 3.61822e-26 4.92051e-26)
(-6.59242e-23 4.81071e-24 6.56056e-24)
(-8.3417e-21 6.06981e-22 8.29357e-22)
(-9.89641e-19 7.18637e-20 9.82887e-20)
(-1.08399e-16 7.86206e-18 1.07518e-17)
(-1.07234e-14 7.77553e-16 1.0617e-15)
(-9.26567e-13 6.72519e-14 9.14794e-14)
(-6.61777e-11 4.8182e-12 6.49999e-12)
(6.0671e-26 -1.8426e-27 -4.5611e-27)
(-4.12424e-27 3.10984e-28 4.21893e-28)
(-6.35663e-25 4.52253e-26 6.33794e-26)
(-8.47356e-23 6.03288e-24 8.44864e-24)
(-1.07098e-20 7.63035e-22 1.06783e-21)
(-1.26902e-18 9.0477e-20 1.26529e-19)
(-1.38803e-16 9.90313e-18 1.38395e-17)
(-1.37061e-14 9.78571e-16 1.36658e-15)
(-1.18117e-12 8.43915e-14 1.1777e-13)
(-8.39814e-11 6.00445e-12 8.37346e-12)
(-2.21646e-27 2.03934e-28 2.47449e-28)
(-5.05508e-25 3.63979e-26 5.04023e-26)
(-7.48992e-23 5.39288e-24 7.46789e-24)
(-1.06535e-20 7.6707e-22 1.06221e-21)
(-1.44317e-18 1.03911e-19 1.43893e-19)
(-1.84221e-16 1.32642e-17 1.83679e-17)
(-2.18362e-14 1.57225e-15 2.1772e-15)
(-2.35303e-12 1.69423e-13 2.34612e-13)
(-2.23134e-10 1.60661e-11 2.22479e-11)
(-1.76334e-08 1.26964e-09 1.75816e-09)
(-1.83838e-25 1.32371e-26 1.833e-26)
(-2.99629e-23 2.15739e-24 2.98748e-24)
(-4.73529e-21 3.4095e-22 4.72136e-22)
(-7.21633e-19 5.1959e-20 7.19511e-20)
(-1.05274e-16 7.57991e-18 1.04964e-17)
(-1.45578e-14 1.04819e-15 1.4515e-15)
(-1.88242e-12 1.35538e-13 1.87689e-13)
(-2.23127e-10 1.60655e-11 2.22471e-11)
(-2.35092e-08 1.69271e-09 2.34402e-09)
(-2.09001e-06 1.50485e-07 2.08387e-07)
(-3.29545e-27 2.37274e-28 3.28578e-28)
(-5.05509e-25 3.63965e-26 5.04024e-26)
(-7.48982e-23 5.39265e-24 7.46781e-24)
(-1.06533e-20 7.67038e-22 1.0622e-21)
(-1.44315e-18 1.03907e-19 1.43892e-19)
(-1.84219e-16 1.32638e-17 1.83678e-17)
(-2.1836e-14 1.5722e-15 2.17719e-15)
(-2.35301e-12 1.69418e-13 2.3461e-13)
(-2.23133e-10 1.60658e-11 2.22478e-11)
(-1.76334e-08 1.26964e-09 1.75816e-09)
(1.41872e-28 -4.29255e-30 -1.0622e-29)
(-3.28761e-29 2.37968e-30 3.27836e-30)
(-4.46967e-27 3.17763e-28 4.42361e-28)
(-5.60657e-25 3.98868e-26 5.55109e-26)
(-6.64196e-23 4.72861e-24 6.57895e-24)
(-7.34403e-21 5.23212e-22 7.27737e-22)
(-7.4575e-19 5.31669e-20 7.39286e-20)
(-6.79612e-17 4.84859e-18 6.73999e-18)
(-5.36774e-15 3.83224e-16 5.3256e-16)
(-3.4689e-13 2.47837e-14 3.44308e-14)
(-2.18583e-29 1.68374e-30 2.22668e-30)
(-3.55328e-27 2.55834e-28 3.51667e-28)
(-4.95401e-25 3.56685e-26 4.90499e-26)
(-6.60473e-23 4.75535e-24 6.54208e-24)
(-8.34894e-21 6.01117e-22 8.27315e-22)
(-9.8942e-19 7.12375e-20 9.80844e-20)
(-1.08236e-16 7.79293e-18 1.07342e-17)
(-1.06893e-14 7.69624e-16 1.06054e-15)
(-9.21322e-13 6.63353e-14 9.14466e-14)
(-6.55157e-11 4.7172e-12 6.50548e-12)
(-1.29227e-27 9.3044e-29 1.27896e-28)
(-1.98185e-25 1.42693e-26 1.96224e-26)
(-2.93573e-23 2.11372e-24 2.90788e-24)
(-4.1748e-21 3.00584e-22 4.13689e-22)
(-5.65414e-19 4.07098e-20 5.60512e-20)
(-7.21595e-17 5.19548e-18 7.15633e-18)
(-8.55142e-15 6.15705e-16 8.48427e-16)
(-9.21287e-13 6.63332e-14 9.14429e-14)
(-8.73456e-11 6.28898e-12 8.67311e-12)
(-6.9011e-09 4.96893e-10 6.85536e-10)
(-2.42993e-29 1.74942e-30 2.40398e-30)
(-3.52398e-27 2.53708e-28 3.48776e-28)
(-4.91942e-25 3.54175e-26 4.87084e-26)
(-6.56717e-23 4.72809e-24 6.50496e-24)
(-8.31231e-21 5.98456e-22 8.23693e-22)
(-9.86344e-19 7.10138e-20 9.778e-20)
(-1.08031e-16 7.77798e-18 1.07139e-17)
(-1.06807e-14 7.68991e-16 1.05968e-15)
(-9.21342e-13 6.63361e-14 9.14488e-14)
(-6.55157e-11 4.71723e-12 6.50547e-12)
)
;

boundaryField
{
    inlet
    {
        type            calculated;
        value           nonuniform 0();
    }
    outlet
    {
        type            calculated;
        value           nonuniform 0();
    }
    bottom
    {
        type            calculated;
        value           uniform (0 0 0);
    }
    top
    {
        type            symmetryPlane;
    }
    side1
    {
        type            symmetryPlane;
    }
    side2
    {
        type            symmetryPlane;
    }
    procBoundary6to5
    {
        type            processor;
        value           nonuniform List<vector> 
20
(
(2.62254e-21 -8.00455e-23 -1.97197e-22)
(4.11887e-23 -1.27588e-24 -3.09712e-24)
(3.46717e-25 -1.07931e-26 -2.6071e-26)
(2.08775e-27 -5.367e-29 -1.55429e-28)
(4.52822e-19 -1.38493e-20 -3.40481e-20)
(6.63987e-21 -2.0588e-22 -4.99258e-22)
(5.23979e-23 -1.63212e-24 -3.93985e-24)
(2.94379e-25 -9.19039e-27 -2.21346e-26)
(2.61434e-21 -7.97898e-23 -1.96575e-22)
(4.10514e-23 -1.27152e-24 -3.0867e-24)
(3.45481e-25 -1.07534e-26 -2.59768e-26)
(2.06197e-27 -6.43337e-29 -1.55038e-28)
(8.08608e-24 -2.46267e-25 -6.08e-25)
(1.35343e-25 -4.18684e-27 -1.01761e-26)
(1.11523e-28 4.1464e-29 1.85478e-29)
(-1.3194e-29 1.26196e-30 1.50304e-30)
(1.78162e-26 -5.4146e-28 -1.33493e-27)
(3.16591e-28 -9.77868e-30 -2.37127e-29)
(-5.17636e-30 4.95326e-31 5.84157e-31)
(-1.40318e-31 1.09171e-32 1.43563e-32)
)
;
    }
    procBoundary6to7
    {
        type            processor;
        value           nonuniform List<vector> 
20
(
(-1.87189e-16 1.46669e-17 1.31837e-17)
(-4.08799e-14 3.26575e-15 2.78443e-15)
(-6.35198e-12 5.21277e-13 4.12106e-13)
(-5.17448e-10 4.72424e-11 3.12634e-11)
(-3.77789e-14 2.95686e-15 3.27745e-15)
(-7.40925e-12 6.0022e-13 6.12607e-13)
(-8.66724e-10 7.50623e-11 6.24965e-11)
(-2.04303e-08 2.8045e-09 -4.83299e-10)
(-1.64079e-11 1.17313e-12 1.63598e-12)
(-3.44493e-09 2.48042e-10 3.43481e-10)
(-4.08291e-07 2.93978e-08 4.07092e-08)
(-3.52064e-09 2.58438e-10 3.41686e-10)
(-4.42341e-09 3.16485e-10 4.41043e-10)
(-1.04519e-06 7.52556e-08 1.04212e-07)
(-0.000141573 1.01935e-05 1.41158e-05)
(-1.04519e-06 7.52557e-08 1.04212e-07)
(-1.64417e-11 1.17554e-12 1.6326e-12)
(-3.45131e-09 2.48501e-10 3.42844e-10)
(-4.08963e-07 2.94462e-08 4.06422e-08)
(-3.45131e-09 2.48501e-10 3.42844e-10)
)
;
    }
    procBoundary6to14
    {
        type            processor;
        value           nonuniform List<vector> 
50
(
(3.93184e-25 2.40698e-25 4.74987e-27)
(5.2409e-23 3.20836e-23 6.3313e-25)
(6.6236e-21 4.05482e-21 8.00168e-23)
(7.84794e-19 4.80433e-19 9.48075e-21)
(8.58336e-17 5.25454e-17 1.03692e-18)
(8.47509e-15 5.18825e-15 1.02384e-16)
(7.30325e-13 4.47088e-13 8.82273e-15)
(5.19224e-11 3.17857e-11 6.27252e-13)
(2.73459e-09 1.67405e-09 3.30354e-11)
(8.1036e-08 4.96084e-08 9.78963e-10)
(2.75557e-27 1.67982e-27 3.23197e-29)
(3.44368e-25 2.10828e-25 4.16036e-27)
(4.081e-23 2.4985e-23 4.93027e-25)
(4.51383e-21 2.76358e-21 5.45309e-23)
(4.58498e-19 2.80728e-19 5.53888e-21)
(4.17949e-17 2.55924e-17 5.04876e-19)
(3.30172e-15 2.02211e-15 3.98795e-17)
(2.13373e-13 1.30733e-13 2.57648e-15)
(1.01062e-11 6.19977e-12 1.21922e-13)
(2.64921e-10 1.63558e-10 3.18066e-12)
(1.00109e-29 6.23686e-30 1.40182e-31)
(1.17158e-27 7.39838e-28 1.78416e-29)
(1.30011e-25 8.25758e-26 2.05689e-27)
(1.33864e-23 8.57048e-24 2.22817e-25)
(1.25607e-21 8.13582e-22 2.24257e-23)
(1.04622e-19 6.90018e-20 2.06727e-21)
(7.42098e-18 5.04823e-18 1.71398e-19)
(4.15947e-16 3.00933e-16 1.24919e-17)
(1.54663e-14 1.31537e-14 7.78192e-16)
(1.42726e-13 3.28617e-13 4.00657e-14)
(-3.07245e-29 2.22984e-30 3.06644e-30)
(-4.45832e-27 3.22978e-28 4.44863e-28)
(-6.22753e-25 4.50459e-26 6.21286e-26)
(-8.31906e-23 6.00985e-24 8.29822e-24)
(-1.0538e-20 7.605e-22 1.05103e-21)
(-1.25159e-18 9.02512e-20 1.24818e-19)
(-1.37235e-16 9.88976e-18 1.36851e-17)
(-1.35865e-14 9.78665e-16 1.35478e-15)
(-1.17405e-12 8.45439e-14 1.17067e-13)
(-8.36962e-11 6.02592e-12 8.34537e-12)
(-2.33563e-31 1.68487e-32 2.31042e-32)
(-3.21964e-29 2.32148e-30 3.186e-30)
(-4.25925e-27 3.06987e-28 4.21626e-28)
(-5.36977e-25 3.86903e-26 5.31752e-26)
(-6.394e-23 4.6058e-24 6.33415e-24)
(-7.10613e-21 5.11773e-22 7.0423e-22)
(-7.25318e-19 5.22282e-20 7.19081e-20)
(-6.64539e-17 4.78464e-18 6.59085e-18)
(-5.28115e-15 3.80211e-16 5.23991e-16)
(-3.44238e-13 2.47821e-14 3.41691e-14)
)
;
    }
}


// ************************************************************************* //
