/*--------------------------------*- C++ -*----------------------------------*\
| =========                 |                                                 |
| \\      /  F ield         | OpenFOAM: The Open Source CFD Toolbox           |
|  \\    /   O peration     | Version:  2.4.0                                 |
|   \\  /    A nd           | Web:      www.OpenFOAM.org                      |
|    \\/     M anipulation  |                                                 |
\*---------------------------------------------------------------------------*/
FoamFile
{
    version     2.0;
    format      ascii;
    class       volScalarField;
    location    "0.04";
    object      alpha;
}
// * * * * * * * * * * * * * * * * * * * * * * * * * * * * * * * * * * * * * //

dimensions      [0 0 0 0 0 0 0];

internalField   nonuniform List<scalar> 
200
(
3.25028e-13
2.31057e-11
1.21693e-09
3.60645e-08
1.21764e-09
8.47145e-11
4.86681e-09
2.88333e-07
9.76439e-06
2.88333e-07
8.28159e-15
8.139e-14
3.85618e-12
1.02011e-10
6.54564e-11
6.48819e-09
5.76567e-07
3.90393e-05
0.00154223
3.90393e-05
8.95709e-13
2.00999e-14
1.06091e-14
2.47052e-13
6.61348e-13
6.16878e-11
4.87034e-09
2.88435e-07
9.7644e-06
2.88333e-07
1.18719e-10
4.50497e-12
9.50785e-14
5.78712e-15
3.28809e-13
2.34308e-11
1.24004e-09
3.72814e-08
3.72812e-08
1.24003e-09
2.20138e-15
1.05109e-13
4.77186e-12
1.20721e-10
5.08087e-11
2.16204e-12
1.80554e-11
9.48977e-10
2.81292e-08
9.49032e-10
2.40035e-13
1.05232e-14
1.7107e-14
3.87941e-13
4.88933e-13
2.40268e-11
1.89754e-09
1.12449e-07
3.80883e-06
1.12455e-07
1.01116e-10
3.8363e-12
8.09459e-14
2.30832e-15
3.77996e-15
2.53738e-13
1.80303e-11
9.49352e-10
2.81292e-08
9.49043e-10
3.59454e-08
1.21243e-09
2.30107e-11
3.23545e-13
5.24344e-15
9.65226e-14
4.6e-12
1.23221e-10
1.23257e-10
6.35636e-12
9.77364e-14
4.74872e-12
1.36483e-10
9.51977e-10
2.80848e-08
9.93571e-10
1.97737e-11
2.08552e-12
4.81072e-11
4.81038e-11
1.4119e-15
1.73195e-14
4.69847e-13
4.51252e-12
1.18506e-10
4.76579e-12
3.66977e-12
1.88759e-10
5.67641e-09
5.67643e-09
3.80999e-13
1.59085e-14
1.72232e-15
1.58617e-14
3.75052e-13
1.71621e-14
3.81189e-14
1.79792e-12
4.81985e-11
5.25992e-11
1.1901e-10
4.49968e-12
9.48319e-14
1.51233e-15
1.01165e-15
2.96643e-16
1.24275e-14
4.82277e-13
1.82155e-11
9.47415e-10
2.36575e-11
1.27379e-09
4.07947e-08
2.88617e-07
9.73728e-06
3.15516e-07
5.79776e-09
9.73851e-11
9.49934e-10
2.81292e-08
8.46514e-14
4.15989e-12
1.24129e-10
1.21636e-09
3.59504e-08
1.3314e-09
5.15376e-11
1.89819e-09
1.12455e-07
3.80884e-06
1.05256e-15
1.14024e-14
3.20912e-13
3.84685e-12
1.01132e-10
4.21512e-12
3.5388e-13
1.8342e-11
9.72044e-10
2.93416e-08
2.22069e-13
9.30845e-15
9.56024e-16
1.01447e-14
2.40103e-13
1.71304e-14
6.48759e-13
6.14488e-11
4.853e-09
2.87504e-07
1.03988e-13
5.40824e-12
1.98337e-10
5.81999e-09
3.16463e-07
9.76534e-06
2.88414e-07
9.73324e-09
2.88395e-07
9.7644e-06
4.23969e-16
2.10821e-14
7.95819e-13
2.76305e-11
1.33616e-09
3.61304e-08
7.70513e-09
5.7659e-07
3.90393e-05
0.00154223
2.6668e-18
6.80985e-17
2.61566e-15
9.72039e-14
4.23398e-12
1.02157e-10
6.54589e-11
4.86657e-09
2.88333e-07
9.7644e-06
3.07966e-16
1.42534e-17
7.79624e-18
2.82238e-16
1.11916e-14
2.44841e-13
3.38096e-13
2.33593e-11
1.23494e-09
3.70132e-08
)
;

boundaryField
{
    inlet
    {
        type            zeroGradient;
    }
    outlet
    {
        type            zeroGradient;
    }
    bottom
    {
        type            fixedValue;
        value           uniform 0;
    }
    top
    {
        type            symmetryPlane;
    }
    side1
    {
        type            symmetryPlane;
    }
    side2
    {
        type            symmetryPlane;
    }
    procBoundary19to11
    {
        type            processor;
        value           nonuniform List<scalar> 
50
(
6.16063e-11
4.86649e-09
2.88333e-07
9.7644e-06
2.88339e-07
4.86704e-09
8.47171e-11
1.21758e-09
3.60645e-08
1.21691e-09
2.92188e-13
1.99009e-11
1.00261e-09
2.8417e-08
6.43822e-09
2.09143e-10
4.08994e-12
4.56213e-12
1.18716e-10
4.50523e-12
1.82307e-11
9.71225e-10
2.99787e-08
1.13261e-07
3.80355e-06
1.17755e-07
2.07927e-09
2.74932e-11
5.31869e-13
2.48027e-13
4.90986e-09
2.93851e-07
1.0311e-05
3.92163e-05
0.00153855
4.2736e-05
6.87122e-07
8.36178e-09
8.99543e-11
1.2332e-10
1.87877e-11
1.0346e-09
3.65148e-08
6.89965e-07
4.28482e-05
0.00154235
3.90412e-05
5.76614e-07
7.70529e-09
3.61255e-08
)
;
    }
    procBoundary19to18
    {
        type            processor;
        value           nonuniform List<scalar> 
20
(
7.51046e-15
6.49988e-13
6.16198e-11
5.15507e-12
6.40913e-17
1.30726e-14
4.09224e-12
1.21261e-09
1.49881e-15
3.81187e-15
6.6332e-13
6.58471e-11
3.28017e-13
1.29394e-15
2.97239e-15
2.61988e-13
1.53626e-15
6.69103e-18
7.34416e-18
5.87564e-16
)
;
    }
    procBoundary19to20
    {
        type            processor;
        value           nonuniform List<scalar> 
20
(
4.86647e-09
5.76566e-07
4.86648e-09
2.34863e-11
1.80166e-11
1.89777e-09
1.82365e-11
4.63838e-11
1.79764e-12
1.89132e-10
1.2029e-10
2.80827e-08
9.49454e-10
1.1255e-07
3.68948e-08
9.73632e-06
2.88333e-07
3.90393e-05
2.88452e-07
2.93459e-08
)
;
    }
    procBoundary19to27
    {
        type            processor;
        value           nonuniform List<scalar> 
50
(
2.81291e-08
9.48976e-10
1.80205e-11
9.03259e-13
6.16092e-11
4.86649e-09
2.88333e-07
9.7644e-06
2.88435e-07
4.87056e-09
9.73631e-06
2.87386e-07
4.84851e-09
6.13565e-11
9.00328e-13
1.80205e-11
9.48977e-10
2.81292e-08
9.52863e-10
2.03042e-10
2.80829e-08
9.4722e-10
1.79774e-11
2.52767e-13
3.52769e-15
3.94637e-14
2.01134e-12
7.03126e-11
1.89579e-09
1.12264e-07
4.62878e-11
1.75617e-12
3.70341e-14
6.25209e-16
4.51754e-15
5.17675e-13
6.13536e-11
6.46419e-09
5.74673e-07
3.89271e-05
5.72818e-14
2.41463e-15
5.60318e-17
1.81421e-18
4.59221e-17
2.87609e-15
2.54603e-13
2.40981e-11
1.90139e-09
1.1255e-07
)
;
    }
}


// ************************************************************************* //
