/*--------------------------------*- C++ -*----------------------------------*\
| =========                 |                                                 |
| \\      /  F ield         | OpenFOAM: The Open Source CFD Toolbox           |
|  \\    /   O peration     | Version:  2.4.0                                 |
|   \\  /    A nd           | Web:      www.OpenFOAM.org                      |
|    \\/     M anipulation  |                                                 |
\*---------------------------------------------------------------------------*/
FoamFile
{
    version     2.0;
    format      ascii;
    class       surfaceScalarField;
    location    "0.04";
    object      phia;
}
// * * * * * * * * * * * * * * * * * * * * * * * * * * * * * * * * * * * * * //

dimensions      [0 3 -1 0 0 0 0];

internalField   nonuniform List<scalar> 
490
(
7.9055e-06
4.13105e-06
2.37259e-05
7.26567e-06
4.17756e-06
2.61576e-05
5.19821e-06
4.08863e-06
2.28083e-05
1.91279e-06
3.89055e-06
1.52029e-05
5.2154e-08
3.6326e-06
4.92285e-06
4.99206e-08
3.63229e-06
4.9114e-06
4.99194e-08
3.63229e-06
4.91139e-06
4.99198e-08
3.63229e-06
4.91139e-06
5.34785e-08
3.63229e-06
4.91139e-06
3.63301e-06
4.91066e-06
5.14779e-08
3.63231e-06
4.91531e-06
5.05925e-08
3.63236e-06
4.91394e-06
5.01438e-08
3.63231e-06
4.91233e-06
4.99614e-08
3.63229e-06
4.91161e-06
4.99195e-08
3.63229e-06
4.91139e-06
4.99194e-08
3.63229e-06
4.91139e-06
4.99194e-08
3.63229e-06
4.91139e-06
4.99194e-08
3.63229e-06
4.91139e-06
4.99198e-08
3.63229e-06
4.91139e-06
3.63229e-06
4.91139e-06
4.99195e-08
3.63229e-06
4.91139e-06
4.99195e-08
3.63229e-06
4.91139e-06
4.99194e-08
3.63229e-06
4.91139e-06
4.99194e-08
3.63229e-06
4.91139e-06
4.99194e-08
3.63229e-06
4.91139e-06
4.99194e-08
3.63229e-06
4.91139e-06
4.99194e-08
3.63229e-06
4.91139e-06
4.99194e-08
3.63229e-06
4.91139e-06
4.99194e-08
3.63229e-06
4.91139e-06
3.63229e-06
4.91139e-06
4.99195e-08
4.91139e-06
4.99195e-08
4.91139e-06
4.99195e-08
4.91139e-06
4.99195e-08
4.91139e-06
4.99194e-08
4.91139e-06
4.99194e-08
4.91139e-06
4.99194e-08
4.91139e-06
4.99194e-08
4.91139e-06
4.99195e-08
4.91139e-06
4.91139e-06
7.45655e-06
3.83232e-06
8.6641e-06
7.39439e-06
4.18403e-06
1.37961e-05
5.38673e-06
4.09999e-06
2.27997e-05
2.01934e-06
3.90537e-06
1.52036e-05
5.19502e-08
3.63257e-06
4.92285e-06
4.99203e-08
3.63229e-06
4.9114e-06
4.99194e-08
3.63229e-06
4.91139e-06
4.99194e-08
3.63229e-06
4.91139e-06
4.99263e-08
3.63229e-06
4.91139e-06
3.63229e-06
4.91138e-06
5.14794e-08
3.63194e-06
3.14965e-07
5.05426e-08
3.63235e-06
4.90115e-06
5.01252e-08
3.63231e-06
4.91233e-06
4.99576e-08
3.63229e-06
4.91161e-06
4.99195e-08
3.63229e-06
4.91139e-06
4.99194e-08
3.63229e-06
4.91139e-06
4.99194e-08
3.63229e-06
4.91139e-06
4.99194e-08
3.63229e-06
4.91139e-06
4.99194e-08
3.63229e-06
4.91139e-06
3.63229e-06
4.91139e-06
4.99195e-08
3.63229e-06
4.89936e-06
4.99195e-08
3.63229e-06
4.91139e-06
4.99194e-08
3.63229e-06
4.91139e-06
4.99194e-08
3.63229e-06
4.91139e-06
4.99194e-08
3.63229e-06
4.91139e-06
4.99194e-08
3.63229e-06
4.91139e-06
4.99194e-08
3.63229e-06
4.91139e-06
4.99194e-08
3.63229e-06
4.91139e-06
4.99194e-08
3.63229e-06
4.91139e-06
3.63229e-06
4.91139e-06
4.99195e-08
4.90705e-06
4.99195e-08
4.91138e-06
4.99195e-08
4.91138e-06
4.99194e-08
4.91139e-06
4.99194e-08
4.91139e-06
4.99194e-08
4.91139e-06
4.99194e-08
4.91139e-06
4.99194e-08
4.91139e-06
4.99194e-08
4.91139e-06
4.91139e-06
1.57683e-06
-1.31294e-07
-4.54305e-06
4.41579e-06
2.24143e-06
-1.70601e-06
5.197e-06
4.08685e-06
9.03591e-06
1.91304e-06
3.89058e-06
1.44137e-05
5.21536e-08
3.6326e-06
4.92387e-06
4.99206e-08
3.63229e-06
4.91137e-06
4.99194e-08
3.63229e-06
4.91137e-06
4.99195e-08
3.63229e-06
4.91136e-06
4.99593e-08
3.63229e-06
4.91136e-06
3.63228e-06
5.00863e-06
6.30112e-07
1.70673e-06
-4.50235e-06
5.21895e-08
3.62702e-06
9.78694e-08
5.01444e-08
3.63231e-06
4.73823e-06
4.99614e-08
3.63229e-06
4.9116e-06
4.99195e-08
3.63229e-06
4.91139e-06
4.99194e-08
3.63229e-06
4.91139e-06
4.99194e-08
3.63229e-06
4.91139e-06
4.99194e-08
3.63229e-06
4.91139e-06
4.99195e-08
3.63229e-06
4.91139e-06
3.63229e-06
4.91139e-06
5.15058e-08
3.62538e-06
9.81312e-08
4.99196e-08
3.63229e-06
4.74772e-06
4.99195e-08
3.63229e-06
4.91137e-06
4.99194e-08
3.63229e-06
4.91139e-06
4.99194e-08
3.63229e-06
4.91139e-06
4.99194e-08
3.63229e-06
4.91139e-06
4.99194e-08
3.63229e-06
4.91139e-06
4.99194e-08
3.63229e-06
4.91139e-06
4.99194e-08
3.63229e-06
4.91139e-06
3.63229e-06
4.91139e-06
5.04987e-08
1.36946e-07
4.99196e-08
4.85123e-06
4.99195e-08
4.91135e-06
4.99195e-08
4.91138e-06
4.99194e-08
4.91139e-06
4.99194e-08
4.91139e-06
4.99194e-08
4.91139e-06
4.99194e-08
4.91139e-06
4.99194e-08
4.91139e-06
4.91139e-06
1.36562e-06
-4.65179e-07
-4.71364e-06
1.38644e-06
-4.59717e-07
-4.71067e-06
2.46542e-06
1.5298e-06
-4.59817e-06
1.78922e-06
3.81811e-06
4.61169e-06
5.24178e-08
3.63262e-06
3.18945e-06
4.99694e-08
3.63229e-06
4.90474e-06
4.99679e-08
3.63229e-06
4.90571e-06
5.02499e-08
3.63229e-06
4.90483e-06
2.01562e-06
3.63224e-06
4.90394e-06
3.19562e-06
5.25631e-06
1.36388e-06
-4.59363e-07
-4.71074e-06
7.30016e-07
1.51936e-06
-4.69497e-06
7.39582e-08
3.55819e-06
-6.34078e-08
4.9968e-08
3.63229e-06
3.48143e-06
4.99195e-08
3.63229e-06
4.90506e-06
4.99194e-08
3.63229e-06
4.90583e-06
4.99194e-08
3.63229e-06
4.90634e-06
4.99195e-08
3.63229e-06
4.90583e-06
5.0013e-08
3.63229e-06
4.90533e-06
3.63227e-06
4.90484e-06
7.28273e-07
-4.40716e-07
-4.69415e-06
7.22865e-08
3.53706e-06
-5.33474e-08
4.99218e-08
3.63228e-06
3.61105e-06
4.99195e-08
3.63229e-06
4.90512e-06
4.99194e-08
3.63229e-06
4.90583e-06
4.99194e-08
3.63229e-06
4.90634e-06
4.99194e-08
3.63229e-06
4.90684e-06
4.99194e-08
3.63229e-06
4.90634e-06
4.99194e-08
3.63229e-06
4.90583e-06
3.63229e-06
4.90533e-06
7.10006e-07
-4.66109e-06
5.81361e-08
5.49923e-08
4.99206e-08
4.34231e-06
4.99195e-08
4.90471e-06
4.99195e-08
4.90532e-06
4.99194e-08
4.90583e-06
4.99194e-08
4.90634e-06
4.99194e-08
4.90583e-06
4.99194e-08
4.90533e-06
4.90483e-06
1.36562e-06
-4.65184e-07
1.36562e-06
-4.65184e-07
1.36598e-06
-4.64663e-07
9.46777e-07
9.75972e-07
2.88723e-07
2.89468e-06
5.01449e-08
3.63212e-06
4.74081e-08
3.63231e-06
4.26506e-08
3.63335e-06
5.2156e-06
3.63435e-06
2.48665e-06
1.36563e-06
-4.65186e-07
1.36546e-06
-4.6463e-07
9.02996e-07
1.03118e-06
2.45343e-07
3.02383e-06
4.99542e-08
3.63218e-06
4.99195e-08
3.63229e-06
4.99194e-08
3.63229e-06
4.99194e-08
3.63229e-06
5.02686e-08
3.63229e-06
3.63221e-06
1.36545e-06
-4.65186e-07
8.85135e-07
-4.62843e-07
2.27483e-07
2.83912e-06
4.99455e-08
3.63218e-06
4.99195e-08
3.63229e-06
4.99194e-08
3.63229e-06
4.99194e-08
3.63229e-06
4.99194e-08
3.63229e-06
4.99195e-08
3.63229e-06
3.63229e-06
1.36506e-06
7.84356e-07
1.27084e-07
4.99304e-08
4.99195e-08
4.99194e-08
4.99194e-08
4.99194e-08
4.99194e-08
)
;

boundaryField
{
    inlet
    {
        type            calculated;
        value           nonuniform 0();
    }
    outlet
    {
        type            calculated;
        value           nonuniform 0();
    }
    bottom
    {
        type            calculated;
        value           uniform 0;
    }
    top
    {
        type            symmetryPlane;
        value           uniform 0;
    }
    side1
    {
        type            symmetryPlane;
        value           nonuniform 0();
    }
    side2
    {
        type            symmetryPlane;
        value           nonuniform 0();
    }
    procBoundary19to11
    {
        type            processor;
        value           nonuniform List<scalar> 
50
(
-4.81153e-06
-4.81867e-06
-4.72978e-06
-4.53171e-06
-4.25924e-06
-3.64682e-06
-3.6323e-06
-3.63229e-06
-3.63229e-06
-3.6675e-06
-4.54628e-06
-4.82515e-06
-4.74114e-06
-4.54653e-06
-4.26051e-06
-3.64553e-06
-3.63229e-06
-3.63229e-06
-3.63229e-06
-3.66213e-06
-7.36636e-06
-3.35288e-06
-4.72811e-06
-4.53175e-06
-4.25924e-06
-3.64683e-06
-3.63231e-06
-3.6323e-06
-3.63229e-06
-3.55311e-06
3.95479e-07
3.14759e-07
-2.22562e-06
-4.45928e-06
-4.26925e-06
-4.16197e-06
-4.16e-06
-4.16071e-06
-3.55474e-06
1.42927e-06
4.41664e-07
4.438e-07
4.42487e-07
-1.54566e-06
-3.4386e-06
-4.57002e-06
-4.61955e-06
-1.07075e-05
-1.0917e-05
2.02827e-06
)
;
    }
    procBoundary19to18
    {
        type            processor;
        value           nonuniform List<scalar> 
20
(
-3.45912e-06
-1.61389e-07
-4.99502e-08
-4.99319e-08
-3.54237e-06
-3.9582e-07
-5.00511e-08
-4.99693e-08
-9.61442e-07
-1.23213e-06
-6.60076e-07
-6.1797e-07
-1.36562e-06
-1.36563e-06
-1.36376e-06
-1.35965e-06
-1.36562e-06
-1.36563e-06
-1.36563e-06
-1.36563e-06
)
;
    }
    procBoundary19to20
    {
        type            processor;
        value           nonuniform List<scalar> 
20
(
1.60199e-05
5.34798e-08
4.99238e-08
4.99248e-08
1.05701e-07
4.99207e-08
4.99195e-08
4.99195e-08
3.95471e-07
4.99336e-08
4.99195e-08
4.99195e-08
2.17821e-05
8.86407e-07
4.99698e-08
4.9934e-08
2.51347e-05
2.52304e-06
5.01098e-08
4.99736e-08
)
;
    }
    procBoundary19to27
    {
        type            processor;
        value           nonuniform List<scalar> 
50
(
3.63229e-06
3.63229e-06
3.63229e-06
3.63229e-06
3.63229e-06
3.63229e-06
3.63229e-06
3.63229e-06
3.63229e-06
3.63229e-06
3.63229e-06
3.63229e-06
3.63229e-06
3.63229e-06
3.63229e-06
3.63229e-06
3.63229e-06
3.63229e-06
3.63229e-06
3.63229e-06
3.62952e-06
3.63229e-06
3.63229e-06
3.63229e-06
3.63229e-06
3.63229e-06
3.63229e-06
3.63229e-06
3.63229e-06
3.63229e-06
-4.06687e-07
3.59322e-06
3.63229e-06
3.63229e-06
3.63229e-06
3.63229e-06
3.63229e-06
3.63229e-06
3.63229e-06
3.63229e-06
-4.65178e-07
-4.59647e-07
3.25403e-06
3.63224e-06
3.63229e-06
3.63229e-06
3.63229e-06
3.63229e-06
3.63229e-06
3.63229e-06
)
;
    }
}


// ************************************************************************* //
