/*--------------------------------*- C++ -*----------------------------------*\
| =========                 |                                                 |
| \\      /  F ield         | OpenFOAM: The Open Source CFD Toolbox           |
|  \\    /   O peration     | Version:  2.4.0                                 |
|   \\  /    A nd           | Web:      www.OpenFOAM.org                      |
|    \\/     M anipulation  |                                                 |
\*---------------------------------------------------------------------------*/
FoamFile
{
    version     2.0;
    format      ascii;
    class       volVectorField;
    location    "0.04";
    object      Ua;
}
// * * * * * * * * * * * * * * * * * * * * * * * * * * * * * * * * * * * * * //

dimensions      [0 1 -1 0 0 0 0];

internalField   nonuniform List<vector> 
200
(
(8.0082 -5.07117 -8.96602)
(8.00871 -5.07307 -8.96708)
(8.00867 -5.07306 -8.96707)
(8.00869 -5.07306 -8.96707)
(8.01169 -5.0571 -8.96191)
(11.8085 16.4365 -2.92886)
(13.2332 24.5025 -0.665126)
(13.2336 24.5044 -0.664572)
(13.2336 24.5044 -0.664571)
(13.2336 24.5044 -0.664571)
(1.62146 5.70384 -1.50618)
(7.99167 -5.06007 -8.95333)
(8.01417 -5.04223 -8.95841)
(8.03531 -4.92231 -8.92475)
(12.9261 22.7637 -1.15315)
(13.2335 24.5041 -0.664676)
(13.2336 24.5044 -0.664572)
(13.2336 24.5044 -0.664571)
(13.2336 24.5044 -0.664571)
(13.2336 24.5044 -0.664571)
(-6.46173 -1.24893 0.00694533)
(-15.6033 -13.2078 0.141135)
(7.02077 -5.39198 -8.57988)
(8.13642 -4.34923 -8.76398)
(13.169 24.047 -0.806017)
(13.2444 24.5023 -0.674224)
(13.2401 24.5032 -0.670348)
(13.2365 24.5039 -0.667141)
(13.2336 24.5044 -0.664574)
(13.2336 24.5044 -0.664573)
(-20.9289 -19.761 0.378923)
(-20.9313 -19.7637 0.378973)
(-20.9072 -19.7436 0.373309)
(9.50146 9.65848 -5.88928)
(21.4245 22.9679 -7.88421)
(21.408 22.9761 -7.86707)
(21.3685 22.9835 -7.83229)
(21.2524 23.0052 -7.72998)
(13.5041 24.4539 -0.902982)
(13.3879 24.4755 -0.800658)
(1.19692 -7.84659 -6.39679)
(7.86574 -4.52108 -8.55991)
(7.95254 -4.76317 -8.70028)
(8.06015 -5.01562 -8.78526)
(12.2544 -1.70912 5.10937)
(12.9206 1.82356 4.99411)
(13.2338 24.4472 -0.649523)
(13.2336 24.5044 -0.664567)
(13.2336 24.5045 -0.664572)
(13.2308 24.505 -0.664738)
(-20.926 -19.7578 0.378612)
(-19.8151 -19.1721 0.0354108)
(7.57954 -4.91774 -8.48211)
(8.11233 -4.80005 -8.59019)
(12.1698 11.9799 1.95134)
(13.2329 24.4939 -0.662102)
(13.2336 24.5044 -0.664571)
(13.2336 24.5045 -0.664572)
(13.2336 24.5045 -0.664572)
(13.2311 24.505 -0.664719)
(-20.9296 -19.7618 0.378941)
(-20.9315 -19.7639 0.378977)
(-20.9141 -19.7554 0.373573)
(-7.57176 -12.5867 -3.58455)
(12.4008 18.7218 0.42001)
(13.2451 24.4984 -0.674315)
(13.2408 24.5031 -0.670988)
(13.2368 24.5038 -0.667463)
(13.2336 24.5044 -0.664576)
(13.2304 24.5048 -0.664719)
(-20.9303 -19.7629 0.378961)
(-20.9315 -19.7642 0.378984)
(-20.932 -19.7646 0.378992)
(-20.9296 -19.7623 0.378451)
(-8.89753 -7.62543 -1.96282)
(21.3803 22.9615 -7.85387)
(21.3518 22.9867 -7.81751)
(21.2197 23.0112 -7.70131)
(13.5247 24.4414 -0.930859)
(1.61805 18.6758 -0.115262)
(6.58839 0.885752 -4.42514)
(6.73929 0.831299 -4.16145)
(7.23996 0.646554 -3.2741)
(12.6395 -1.37302 6.43082)
(12.4088 -1.35433 6.35353)
(13.0514 -0.768745 6.38415)
(13.612 -0.164978 6.37742)
(12.5377 21.3082 0.26597)
(11.552 24.8439 -0.76465)
(-31.0843 33.4938 -3.31634)
(-11.352 -13.6353 -0.852912)
(6.77541 0.712673 -3.84005)
(7.43146 0.509601 -2.61287)
(11.2268 -1.2204 5.718)
(10.8377 -1.18251 5.54896)
(11.5945 -0.416589 5.5988)
(12.5854 23.9299 -0.519899)
(12.3766 24.6781 -0.715775)
(11.7323 24.809 -0.754402)
(-31.2654 33.531 -3.32813)
(-19.7263 -19.465 0.395708)
(-20.5972 -19.6371 0.36954)
(1.46034 -3.89849 -1.51488)
(10.0804 -1.10454 5.14066)
(9.61588 -1.04858 4.92317)
(10.4842 0.242763 4.894)
(12.5111 24.3721 -0.649901)
(12.2607 24.6782 -0.722919)
(11.4849 24.802 -0.761073)
(-30.5653 30.8861 -2.90728)
(-20.598 -19.6807 0.383587)
(-20.8636 -19.7473 0.379929)
(-20.9077 -19.7581 0.379247)
(-20.0061 -19.1904 0.509302)
(8.13584 -1.19978 4.30306)
(15.4192 17.0606 -4.92619)
(11.4756 18.1406 -5.67667)
(-1.71469 12.3635 -2.95767)
(-24.529 3.26892 1.43711)
(-28.1914 3.36963 1.6559)
(6.56718 0.893217 -4.45747)
(6.69769 0.844493 -4.22319)
(7.13219 0.680056 -3.43239)
(12.3832 -1.34459 6.30669)
(12.0599 -1.31575 6.17465)
(13.1221 -0.203996 6.1595)
(14.0065 0.775805 6.12313)
(5.96757 7.59226 4.32287)
(-32.7202 33.8073 -3.40393)
(-32.7666 33.8355 -3.41423)
(6.62632 0.858037 -4.29015)
(6.78847 0.785591 -3.9387)
(7.28599 0.553165 -2.81874)
(10.8231 -1.17582 5.51618)
(10.3142 -1.1249 5.28068)
(11.452 -0.171293 5.37752)
(-8.63217 16.1386 1.31123)
(-32.7538 33.8303 -3.41086)
(-32.7665 33.8375 -3.41434)
(-32.7672 33.8361 -3.41571)
(-12.214 -14.3369 -0.660629)
(6.75292 0.662482 -3.64127)
(7.32245 0.438717 -2.2636)
(9.60648 -1.04371 4.89739)
(9.00508 -0.981722 4.61026)
(10.138 -0.133621 4.76657)
(-20.5823 24.4185 -1.09627)
(-32.5103 33.2767 -3.33111)
(-32.4819 33.0948 -3.30319)
(-32.3804 32.5529 -3.21628)
(-20.1235 -19.5633 0.390185)
(-20.6874 -19.6637 0.370188)
(0.938656 -4.179 -1.28899)
(8.62067 -0.944324 4.39937)
(7.98207 -0.869756 4.08821)
(-0.0410905 0.65294 3.12421)
(-18.6683 2.29579 1.08734)
(-20.7882 2.52591 1.21373)
(-23.4287 2.82223 1.37227)
(-26.8296 3.21244 1.57494)
(7.46396 1.54675 -3.89392)
(8.50737 2.19077 -3.1218)
(11.5712 4.17034 -0.909138)
(19.5039 9.64259 4.60183)
(19.7061 10.4093 4.3559)
(19.8434 11.2309 4.04949)
(20.4062 11.561 4.1616)
(-5.95991 22.8191 0.423643)
(-32.7574 33.8333 -3.40161)
(-32.7672 33.8362 -3.40588)
(7.85159 1.78418 -3.48053)
(9.10738 2.60262 -2.44026)
(12.1704 4.70377 0.0418944)
(17.3053 8.56332 4.08091)
(17.192 9.10124 3.79824)
(16.887 9.64676 3.44847)
(-24.7773 30.0884 -2.28966)
(-32.7677 33.8379 -3.40305)
(-32.7692 33.8383 -3.40609)
(-32.7678 33.8368 -3.40875)
(-3.18116 -7.63047 -1.43594)
(9.44538 2.87684 -1.857)
(12.199 4.90598 0.638682)
(15.5328 7.70639 3.66181)
(15.2028 8.1035 3.35989)
(14.5156 8.54836 2.97743)
(-29.9099 32.3744 -3.00825)
(-32.7687 33.8382 -3.4004)
(-32.769 33.838 -3.40326)
(-32.7672 33.8362 -3.40587)
(-19.4897 -19.4066 0.398049)
(-20.2355 -19.3859 0.358445)
(10.435 3.80327 0.982704)
(14.0631 7.01575 3.31613)
(13.5598 7.33756 3.0024)
(12.4326 7.84441 2.58093)
(-31.2497 32.7904 -3.16612)
(-32.6571 33.5002 -3.34652)
(-32.6555 33.3876 -3.32946)
(-32.6493 33.0543 -3.27344)
)
;

boundaryField
{
    inlet
    {
        type            calculated;
        value           nonuniform 0();
    }
    outlet
    {
        type            calculated;
        value           nonuniform 0();
    }
    bottom
    {
        type            calculated;
        value           uniform (0 0 0);
    }
    top
    {
        type            symmetryPlane;
    }
    side1
    {
        type            symmetryPlane;
    }
    side2
    {
        type            symmetryPlane;
    }
    procBoundary19to11
    {
        type            processor;
        value           nonuniform List<vector> 
50
(
(8.00872 -5.07306 -8.96708)
(8.00872 -5.07306 -8.96709)
(8.00872 -5.07306 -8.96709)
(8.00872 -5.07306 -8.96709)
(8.00886 -5.07299 -8.96675)
(8.00939 -5.0709 -8.96575)
(9.43414 2.99417 -6.70168)
(13.2307 24.4887 -0.669002)
(13.2335 24.5044 -0.664572)
(13.2337 24.5044 -0.664573)
(7.77429 -4.29406 -8.49966)
(7.84234 -4.52477 -8.64781)
(7.9196 -4.77543 -8.80227)
(8.01658 -5.0435 -8.94039)
(13.5367 -2.09871 4.98675)
(14.2077 -1.44964 5.92609)
(14.5905 -0.349839 6.0691)
(13.2552 24.1914 -0.576593)
(13.2335 24.5043 -0.66453)
(13.2308 24.5049 -0.664613)
(6.49778 0.922914 -4.60154)
(6.58558 0.895385 -4.46968)
(6.89819 0.79739 -4.00015)
(14.433 -1.56369 7.31757)
(14.5038 -1.58325 7.42631)
(14.9399 -0.880229 7.30808)
(15.3373 -0.239471 7.20017)
(15.6997 0.355244 7.09862)
(14.024 11.2306 3.65888)
(-27.3457 30.9447 -1.92943)
(6.48663 0.926586 -4.61809)
(6.56378 0.902433 -4.50218)
(6.83767 0.816683 -4.09069)
(14.4443 -1.56463 7.33699)
(14.5041 -1.58288 7.42628)
(15.3377 -0.238941 7.19993)
(16.0353 0.885805 7.01015)
(16.6271 1.84118 6.84858)
(14.6351 4.22074 6.20976)
(-30.9339 32.5907 -2.74069)
(6.97836 1.27136 -4.32133)
(7.6144 1.64657 -3.89853)
(9.91283 3.05606 -2.41438)
(22.3147 11.0309 5.26646)
(23.0323 12.1662 5.09576)
(23.8638 13.5067 4.87465)
(23.864 13.507 4.87058)
(23.8617 13.5079 4.86621)
(14.9198 16.718 3.55751)
(-32.6703 33.8009 -3.38892)
)
;
    }
    procBoundary19to18
    {
        type            processor;
        value           nonuniform List<vector> 
20
(
(6.02715 3.56558 -4.60564)
(3.9931 12.1284 -0.262008)
(3.98877 12.1233 -0.261686)
(-15.7267 -13.8008 0.261102)
(-3.02856 -4.44653 -2.79445)
(-13.582 -11.0199 0.206704)
(-17.1302 -15.6947 0.300165)
(-18.2709 -17.2623 0.331304)
(7.09351 0.889465 -4.48724)
(54.3799 -1.1068 1.41771)
(53.6392 -1.31978 1.41609)
(50.3941 -2.06572 1.36814)
(6.53883 0.914535 -4.56684)
(7.32117 0.863497 -4.37824)
(54.4756 -1.12747 1.42218)
(52.8277 -1.52504 1.40485)
(7.10152 1.292 -4.22943)
(7.76085 1.41549 -3.93546)
(54.6895 -1.05972 1.41289)
(53.6808 -1.33459 1.41303)
)
;
    }
    procBoundary19to20
    {
        type            processor;
        value           nonuniform List<vector> 
20
(
(13.2336 24.5044 -0.664572)
(13.2336 24.5044 -0.664572)
(13.2336 24.5044 -0.664573)
(13.2352 24.4331 -0.758911)
(13.228 24.5053 -0.664894)
(13.2285 24.5051 -0.664857)
(12.7161 24.252 -0.636171)
(-32.8616 3.97374 1.93173)
(-28.1839 29.8896 -2.9694)
(-27.8411 29.4137 -2.93321)
(-28.1888 3.75861 1.58774)
(-32.2769 3.8498 1.89735)
(-28.613 29.5463 -2.97504)
(-28.0311 28.9264 -2.91718)
(-26.8722 3.87769 1.45968)
(-31.3687 3.74151 1.84397)
(-28.0362 28.9508 -2.91132)
(-27.2476 28.1365 -2.83169)
(-28.0362 28.9403 -2.90945)
(-32.1266 4.91614 1.68945)
)
;
    }
    procBoundary19to27
    {
        type            processor;
        value           nonuniform List<vector> 
50
(
(-20.9301 -19.7629 0.37896)
(-20.9314 -19.7642 0.378983)
(-20.9177 -19.7503 0.376197)
(9.61591 10.9733 -5.62725)
(21.5211 22.9526 -7.968)
(21.5231 22.9546 -7.96839)
(21.5231 22.9546 -7.96839)
(21.5231 22.9546 -7.96839)
(21.5202 22.9551 -7.96583)
(21.5139 22.9549 -7.96215)
(-20.9305 -19.7633 0.378967)
(-20.9316 -19.7644 0.378987)
(-20.932 -19.7647 0.378994)
(-20.9301 -19.7628 0.378597)
(-8.98629 -7.74465 -1.96977)
(21.5089 22.9404 -7.96561)
(21.523 22.9546 -7.96839)
(21.523 22.9546 -7.96837)
(21.3327 22.8835 -7.92981)
(-28.1223 5.62066 1.05842)
(-20.9301 -19.7629 0.37896)
(-20.9314 -19.7642 0.378984)
(-20.9319 -19.7646 0.378991)
(-20.9308 -19.7636 0.378758)
(-13.9967 -12.6823 -0.972044)
(19.0003 21.7026 -7.41725)
(15.9953 20.4068 -6.80111)
(5.66132 16.1469 -4.75106)
(-28.1441 3.38056 1.6482)
(-32.2785 3.85002 1.89745)
(-20.9297 -19.7626 0.378954)
(-20.9313 -19.764 0.37898)
(-20.9305 -19.7635 0.378918)
(-19.5957 -18.0516 0.539422)
(-14.2127 1.67317 1.29167)
(-18.644 2.22656 1.09546)
(-20.7682 2.47813 1.22057)
(-23.4197 2.7936 1.37664)
(-26.8274 3.19983 1.57701)
(-31.3702 3.74167 1.84406)
(-20.9294 -19.7622 0.378168)
(-20.9311 -19.7638 0.378119)
(-20.9206 -19.7556 0.37835)
(-7.32213 -7.58439 1.47287)
(-1.17033 4.79271 2.0041)
(-14.7606 3.35728 1.38024)
(-22.5163 2.83441 1.29127)
(-25.0388 3.08748 1.44758)
(-28.2014 3.42435 1.64065)
(-32.2801 3.87719 1.88637)
)
;
    }
}


// ************************************************************************* //
