/*--------------------------------*- C++ -*----------------------------------*\
| =========                 |                                                 |
| \\      /  F ield         | OpenFOAM: The Open Source CFD Toolbox           |
|  \\    /   O peration     | Version:  2.4.0                                 |
|   \\  /    A nd           | Web:      www.OpenFOAM.org                      |
|    \\/     M anipulation  |                                                 |
\*---------------------------------------------------------------------------*/
FoamFile
{
    version     2.0;
    format      ascii;
    class       volVectorField;
    location    "0.02";
    object      A_Source;
}
// * * * * * * * * * * * * * * * * * * * * * * * * * * * * * * * * * * * * * //

dimensions      [1 -2 -2 0 0 0 0];

internalField   nonuniform List<vector> 
200
(
(-1.4062e-06 -6.34037e-07 6.48579e-07)
(-2.18456e-05 -1.26112e-05 9.57531e-06)
(-8.2882e-07 -4.78595e-07 3.63254e-07)
(-1.74821e-08 -1.00958e-08 7.66182e-09)
(-2.70545e-10 -1.56141e-10 1.1874e-10)
(-9.40397e-12 2.05872e-12 1.66468e-11)
(-3.5508e-10 2.39693e-10 8.9925e-10)
(-1.53105e-08 1.03415e-08 3.8778e-08)
(-3.63023e-07 2.45307e-07 9.19461e-07)
(-1.53121e-08 1.03411e-08 3.87774e-08)
(-3.45135e-09 -1.67266e-09 1.54251e-09)
(-5.18728e-08 -2.9947e-08 2.2736e-08)
(-2.18634e-09 -1.26252e-09 9.58213e-10)
(-5.07248e-11 -2.92939e-11 2.22306e-11)
(-8.56307e-13 -4.94245e-13 3.75779e-13)
(-2.80453e-14 4.23076e-15 4.64418e-14)
(-8.97215e-13 6.05903e-13 2.2721e-12)
(-3.55347e-11 2.40122e-11 9.00007e-11)
(-7.66127e-10 5.17881e-10 1.94044e-09)
(-3.55392e-11 2.40111e-11 8.99998e-11)
(-7.62689e-12 -3.90621e-12 3.31792e-12)
(-1.09494e-10 -6.32148e-11 4.79899e-11)
(-5.07545e-12 -2.93091e-12 2.2244e-12)
(-1.28451e-13 -7.41823e-14 5.62942e-14)
(-2.34902e-15 -1.35588e-15 1.03076e-15)
(-7.4482e-17 6.85759e-18 1.16e-16)
(-2.04462e-15 1.3811e-15 5.17748e-15)
(-7.49822e-14 5.06836e-14 1.8991e-13)
(-1.48223e-12 1.0022e-12 3.75418e-12)
(-7.49933e-14 5.06812e-14 1.8991e-13)
(-1.55426e-14 -8.32187e-15 6.60294e-15)
(-2.11872e-13 -1.22325e-13 9.2858e-14)
(-1.07115e-14 -6.18563e-15 4.69444e-15)
(-2.93658e-16 -1.69594e-16 1.28696e-16)
(-5.78306e-18 -3.33813e-18 2.5375e-18)
(-1.80747e-19 7.48987e-21 2.66173e-19)
(-4.30153e-18 2.90599e-18 1.08918e-17)
(-1.46927e-16 9.93369e-17 3.72128e-16)
(-2.68165e-15 1.81352e-15 6.79206e-15)
(-1.46953e-16 9.9332e-17 3.72128e-16)
(-6.80567e-09 -3.7186e-09 1.54336e-09)
(-8.09172e-08 -4.67116e-08 3.54496e-08)
(-3.40908e-09 -1.96843e-09 1.49397e-09)
(-7.90727e-11 -4.56614e-11 3.46537e-11)
(-1.33465e-12 -7.7016e-13 5.85896e-13)
(-5.0145e-14 1.09159e-14 8.86613e-14)
(-1.7508e-12 1.18052e-12 4.43113e-12)
(-6.93592e-11 4.67597e-11 1.75438e-10)
(-1.50068e-09 1.00854e-09 3.78383e-09)
(-4.96745e-10 3.0781e-11 2.36697e-10)
(-1.88444e-11 -1.10685e-11 3.43166e-12)
(-2.13456e-10 -1.23238e-10 9.34946e-11)
(-9.89019e-12 -5.71098e-12 4.33392e-12)
(-2.50238e-13 -1.44508e-13 1.09663e-13)
(-4.57539e-15 -2.6405e-15 2.00818e-15)
(-1.60782e-16 2.39183e-17 2.65671e-16)
(-4.78628e-15 3.2285e-15 1.21121e-14)
(-1.75605e-13 1.18423e-13 4.44097e-13)
(-3.48555e-12 2.34168e-12 8.78251e-12)
(-1.24973e-12 7.8244e-14 5.98058e-13)
(-4.64933e-14 -2.88471e-14 6.67661e-15)
(-4.95559e-13 -2.86136e-13 2.17004e-13)
(-2.5042e-14 -1.44608e-14 1.09728e-14)
(-6.86349e-16 -3.96366e-16 3.00774e-16)
(-1.35139e-17 -7.79951e-18 5.93067e-18)
(-4.57235e-19 4.09599e-20 7.10145e-19)
(-1.17378e-17 7.91914e-18 2.96995e-17)
(-4.01415e-16 2.70743e-16 1.01497e-15)
(-7.36103e-15 4.94263e-15 1.85335e-14)
(-2.84154e-15 1.79435e-16 1.36473e-15)
(-1.04878e-16 -6.79717e-17 1.15029e-17)
(-1.04596e-15 -6.04003e-16 4.57902e-16)
(-5.72438e-17 -3.30571e-17 2.50811e-17)
(-1.68947e-18 -9.75689e-19 7.40343e-19)
(-3.56389e-20 -2.05699e-20 1.56392e-20)
(-1.18338e-21 4.59241e-23 1.73726e-21)
(-2.64484e-20 1.78452e-20 6.69113e-20)
(-8.47071e-19 5.71355e-19 2.14139e-18)
(-1.44372e-17 9.68727e-18 3.63199e-17)
(-5.97053e-18 3.79588e-19 2.87579e-18)
(-1.81497e-11 -1.13774e-11 5.00518e-13)
(-1.66721e-10 -9.62484e-11 7.29792e-11)
(-7.72214e-12 -4.45862e-12 3.38346e-12)
(-1.95356e-13 -1.12804e-13 8.56096e-14)
(-3.57187e-15 -2.06081e-15 1.56835e-15)
(-1.44126e-16 3.11484e-17 2.54438e-16)
(-4.68203e-15 3.15276e-15 1.18403e-14)
(-1.71698e-13 1.15482e-13 4.33545e-13)
(-3.42175e-12 2.28324e-12 8.576e-12)
(-2.27646e-12 3.68277e-14 7.35236e-13)
(-5.58815e-14 -3.73894e-14 -1.69702e-15)
(-4.83784e-13 -2.79346e-13 2.11671e-13)
(-2.44382e-14 -1.41113e-14 1.07063e-14)
(-6.69709e-16 -3.86732e-16 2.93465e-16)
(-1.31858e-17 -7.60867e-18 5.78828e-18)
(-4.94526e-19 7.24252e-20 8.15153e-19)
(-1.37696e-17 9.27554e-18 3.48146e-17)
(-4.70979e-16 3.1683e-16 1.18882e-15)
(-8.67615e-15 5.78305e-15 2.17145e-14)
(-6.19704e-15 1.02727e-16 2.00959e-15)
(-1.51841e-16 -1.06644e-16 -1.1941e-17)
(-1.22528e-15 -7.07632e-16 5.35826e-16)
(-6.7031e-17 -3.87082e-17 2.93622e-17)
(-1.97805e-18 -1.1423e-18 8.66727e-19)
(-4.17243e-20 -2.40786e-20 1.83132e-20)
(-1.49973e-21 1.30442e-22 2.32245e-21)
(-3.61642e-20 2.43649e-20 9.14169e-20)
(-1.15956e-18 7.80037e-19 2.92582e-18)
(-1.9866e-17 1.32228e-17 4.96417e-17)
(-1.51661e-17 2.56109e-19 4.93351e-18)
(-3.74264e-19 -2.73016e-19 -4.48788e-20)
(-2.8018e-18 -1.61842e-18 1.22454e-18)
(-1.65007e-19 -9.52915e-20 7.22694e-20)
(-5.21653e-21 -3.01257e-21 2.28561e-21)
(-1.17364e-22 -6.77334e-23 5.15064e-23)
(-4.12447e-24 1.49019e-25 6.03558e-24)
(-8.69086e-23 5.85534e-23 2.1964e-22)
(-2.62208e-21 1.76362e-21 6.61343e-21)
(-4.19982e-20 2.79075e-20 1.04766e-19)
(-3.41359e-20 5.84468e-22 1.11307e-20)
(-3.51054e-14 -2.43344e-14 -4.84128e-15)
(-2.52021e-13 -1.45512e-13 1.1018e-13)
(-1.27261e-14 -7.34758e-15 5.57437e-15)
(-3.48706e-16 -2.01344e-16 1.52797e-16)
(-6.86579e-18 -3.96062e-18 3.01529e-18)
(-2.95893e-19 6.34138e-20 5.21423e-19)
(-8.99186e-18 6.04564e-18 2.2717e-17)
(-3.0722e-16 2.06049e-16 7.74077e-16)
(-5.68594e-15 3.76022e-15 1.41426e-14)
(-5.92244e-15 -3.69792e-18 1.57895e-15)
(-1.18771e-16 -8.7126e-17 -2.3687e-17)
(-7.97829e-16 -4.60792e-16 3.48532e-16)
(-4.36296e-17 -2.51931e-17 1.91071e-17)
(-1.28733e-18 -7.43364e-19 5.64033e-19)
(-2.71546e-20 -1.56672e-20 1.19221e-20)
(-1.08196e-21 1.55822e-22 1.77881e-21)
(-2.83081e-20 1.90395e-20 7.14978e-20)
(-9.07665e-19 6.08794e-19 2.28576e-18)
(-1.56308e-17 1.03175e-17 3.87938e-17)
(-1.73482e-17 -5.7076e-21 4.64233e-18)
(-3.51611e-19 -2.68841e-19 -8.75911e-20)
(-2.18921e-18 -1.26477e-18 9.55537e-19)
(-1.28875e-19 -7.44235e-20 5.64275e-20)
(-4.07374e-21 -2.3525e-21 1.78472e-21)
(-9.16516e-23 -5.28856e-23 4.02308e-23)
(-3.48605e-24 2.93953e-25 5.38207e-24)
(-7.92792e-23 5.33279e-23 2.00178e-22)
(-2.3947e-21 1.60591e-21 6.02714e-21)
(-3.85783e-20 2.54048e-20 9.55117e-20)
(-4.54783e-20 -5.16392e-24 1.22027e-20)
(-9.37722e-22 -7.40212e-22 -2.72389e-22)
(-5.39157e-21 -3.11579e-21 2.35101e-21)
(-3.39905e-22 -1.96308e-22 1.48792e-22)
(-1.14593e-23 -6.6178e-24 5.01988e-24)
(-2.73905e-25 -1.58063e-25 1.20214e-25)
(-1.01532e-26 3.3967e-28 1.48096e-26)
(-2.02422e-25 1.36154e-25 5.10951e-25)
(-5.77715e-24 3.87288e-24 1.45314e-23)
(-8.74709e-23 5.74459e-23 2.15979e-22)
(-1.09191e-22 4.53658e-27 2.93548e-23)
(-5.49699e-17 -4.10807e-17 -1.50111e-17)
(-3.12133e-16 -1.80264e-16 1.35928e-16)
(-1.70631e-17 -9.85152e-18 7.45391e-18)
(-5.03442e-19 -2.90676e-19 2.20023e-19)
(-1.06208e-20 -6.12572e-21 4.65306e-21)
(-4.86628e-22 1.03336e-22 8.53426e-22)
(-1.38976e-20 9.32779e-21 3.49776e-20)
(-4.44828e-19 2.97348e-19 1.11512e-18)
(-7.70105e-18 5.03758e-18 1.89327e-17)
(-1.12189e-17 -1.04926e-19 2.65469e-18)
(-2.02422e-19 -1.588e-19 -6.73796e-20)
(-1.07064e-18 -6.18589e-19 4.65628e-19)
(-6.30033e-20 -3.63812e-20 2.75101e-20)
(-1.99146e-21 -1.14994e-21 8.70089e-22)
(-4.48086e-23 -2.58495e-23 1.96205e-23)
(-1.88944e-24 2.67394e-25 3.08875e-24)
(-4.66366e-23 3.13121e-23 1.17316e-22)
(-1.4084e-21 9.41396e-22 3.52763e-21)
(-2.28195e-20 1.48869e-20 5.59251e-20)
(-3.51903e-20 -3.20818e-22 8.35395e-21)
(-6.47415e-22 -5.25986e-22 -2.45926e-22)
(-3.1644e-21 -1.82907e-21 1.37422e-21)
(-1.99413e-22 -1.15166e-22 8.70312e-23)
(-6.72256e-24 -3.88212e-24 2.93629e-24)
(-1.60699e-25 -9.2718e-26 7.0336e-26)
(-6.44668e-27 5.26461e-28 9.89129e-27)
(-1.38753e-25 9.31656e-26 3.48851e-25)
(-3.96455e-24 2.64904e-24 9.92081e-24)
(-6.04075e-23 3.92767e-23 1.4752e-22)
(-9.83975e-23 -8.81083e-25 2.34096e-23)
(-1.8542e-24 -1.54703e-24 -7.75276e-25)
(-8.35168e-24 -4.82949e-24 3.62111e-24)
(-5.61066e-25 -3.24069e-25 2.44747e-25)
(-2.00938e-26 -1.16044e-26 8.77396e-27)
(-5.08539e-28 -2.93439e-28 2.22503e-28)
(-1.98263e-29 6.10848e-31 2.87299e-29)
(-3.75157e-28 2.51868e-28 9.42686e-28)
(-1.01651e-26 6.7884e-27 2.54116e-26)
(-1.46267e-25 9.47391e-26 3.55814e-25)
(-2.51061e-25 -2.22019e-27 5.98143e-26)
)
;

boundaryField
{
    inlet
    {
        type            zeroGradient;
    }
    outlet
    {
        type            zeroGradient;
    }
    bottom
    {
        type            zeroGradient;
    }
    top
    {
        type            symmetryPlane;
    }
    side1
    {
        type            symmetryPlane;
    }
    side2
    {
        type            symmetryPlane;
    }
    procBoundary12to4
    {
        type            processor;
        value           nonuniform List<vector> 
50
(
(-0.000497164 -0.000202595 0.000238208)
(-0.00776312 -0.00448122 0.00340288)
(-0.000261843 -0.000151191 0.000114764)
(-4.97093e-06 -2.87054e-06 2.17865e-06)
(-6.99389e-08 -4.03589e-08 3.07024e-08)
(-2.70721e-09 8.09911e-10 5.15751e-09)
(-1.22516e-07 8.26471e-08 3.1029e-07)
(-5.80574e-06 3.91901e-06 1.47048e-05)
(-0.000152921 0.000103279 0.000387317)
(-5.80641e-06 3.91898e-06 1.47048e-05)
(-2.10524e-06 -1.03852e-06 5.90246e-07)
(-2.55644e-05 -1.47555e-05 1.1202e-05)
(-9.69504e-07 -5.59753e-07 4.24899e-07)
(-2.04442e-08 -1.18049e-08 8.9601e-09)
(-3.16343e-10 -1.82512e-10 1.38913e-10)
(-1.33574e-11 3.99186e-12 2.54415e-11)
(-5.54555e-10 3.73663e-10 1.40372e-09)
(-2.39113e-08 1.61116e-08 6.04932e-08)
(-5.6865e-07 3.82215e-07 1.43478e-06)
(-1.72588e-07 1.05578e-08 8.18063e-08)
(-4.98809e-09 -2.84598e-09 4.98282e-10)
(-4.74067e-08 -2.73613e-08 2.07603e-08)
(-1.99658e-09 -1.15265e-09 8.74918e-10)
(-4.63035e-11 -2.67346e-11 2.02928e-11)
(-7.81565e-13 -4.50823e-13 3.43307e-13)
(-3.57476e-14 1.06681e-14 6.80634e-14)
(-1.37131e-12 9.22757e-13 3.46863e-12)
(-5.42555e-11 3.6475e-11 1.37048e-10)
(-1.17797e-09 7.86652e-10 2.95642e-09)
(-7.28187e-10 1.13141e-11 2.33657e-10)
(-8.68446e-12 -5.5379e-12 -5.04622e-13)
(-6.51461e-11 -3.76004e-11 2.85012e-11)
(-3.01627e-12 -1.7412e-12 1.32148e-12)
(-7.62963e-14 -4.40484e-14 3.34351e-14)
(-1.39509e-15 -8.04539e-16 6.12998e-16)
(-6.87014e-17 2.04658e-17 1.30742e-16)
(-2.4504e-15 1.64632e-15 6.19251e-15)
(-8.96037e-14 6.00734e-14 2.25887e-13)
(-1.79316e-12 1.18755e-12 4.46918e-12)
(-1.7559e-12 -2.10442e-15 4.64753e-13)
(-1.23734e-14 -8.59762e-15 -2.38639e-15)
(-7.39516e-14 -4.26873e-14 3.2244e-14)
(-3.73288e-15 -2.15475e-15 1.63143e-15)
(-1.02279e-16 -5.90446e-17 4.47135e-17)
(-2.01416e-18 -1.16128e-18 8.83113e-19)
(-1.06242e-19 3.15815e-20 2.01524e-19)
(-3.54223e-18 2.37566e-18 8.91976e-18)
(-1.20452e-16 8.049e-17 3.02208e-16)
(-2.24037e-15 1.46841e-15 5.52313e-15)
(-3.10028e-15 -3.06434e-17 7.28138e-16)
)
;
    }
    procBoundary12to11
    {
        type            processor;
        value           nonuniform List<vector> 
20
(
(-2.79753e-06 -4.88959e-06 -1.06453e-06)
(-7.50998e-09 -1.30229e-08 -2.6668e-09)
(-1.7784e-11 -3.05598e-11 -5.83419e-12)
(-3.83692e-14 -6.52691e-14 -1.15027e-14)
(-7.63406e-08 -8.91436e-08 -7.59908e-08)
(-2.22401e-10 -2.58979e-10 -2.19131e-10)
(-5.65697e-13 -6.56828e-13 -5.5132e-13)
(-1.29954e-15 -1.50437e-15 -1.25189e-15)
(-3.20431e-10 -3.58107e-10 -3.33495e-10)
(-1.01725e-12 -1.13376e-12 -1.05049e-12)
(-2.79953e-15 -3.11143e-15 -2.86741e-15)
(-6.91588e-18 -7.66449e-18 -7.02312e-18)
(-7.71971e-13 -8.46965e-13 -8.13841e-13)
(-2.65391e-15 -2.90376e-15 -2.77847e-15)
(-7.86184e-18 -8.57807e-18 -8.17159e-18)
(-2.07979e-20 -2.26286e-20 -2.14561e-20)
(-1.36343e-15 -1.47942e-15 -1.43938e-15)
(-5.0473e-18 -5.46167e-18 -5.29277e-18)
(-1.60178e-20 -1.72846e-20 -1.66807e-20)
(-4.51911e-23 -4.86281e-23 -4.67267e-23)
)
;
    }
    procBoundary12to13
    {
        type            processor;
        value           nonuniform List<vector> 
20
(
(-4.39694e-10 2.36744e-10 9.11975e-10)
(-1.1127e-12 5.99668e-13 2.30874e-12)
(-2.54178e-15 1.37122e-15 5.27693e-15)
(-5.35999e-18 2.89418e-18 1.1134e-17)
(-1.8586e-08 -6.93822e-10 2.66853e-09)
(-4.31196e-11 -1.60982e-12 6.19271e-12)
(-9.09504e-14 -3.39535e-15 1.3066e-14)
(-1.78146e-16 -6.64948e-18 2.5601e-17)
(-8.42485e-11 -3.14601e-12 1.20883e-11)
(-2.13218e-13 -7.96453e-15 3.0598e-14)
(-4.872e-16 -1.82018e-17 6.99272e-17)
(-1.02768e-18 -3.83962e-20 1.47527e-19)
(-2.08313e-13 -7.77741e-15 2.98834e-14)
(-5.71123e-16 -2.13323e-17 8.19384e-17)
(-1.40537e-18 -5.25068e-20 2.0165e-19)
(-3.17615e-21 -1.18684e-22 4.55787e-22)
(-3.72545e-16 -1.39047e-17 5.32838e-17)
(-1.10005e-18 -4.10795e-20 1.57316e-19)
(-2.90051e-21 -1.08352e-22 4.1475e-22)
(-6.99285e-24 -2.61286e-25 9.99815e-25)
)
;
    }
    procBoundary12to20
    {
        type            processor;
        value           nonuniform List<vector> 
50
(
(-2.95159e-17 -1.63505e-17 1.23031e-17)
(-3.83364e-16 -2.21343e-16 1.68011e-16)
(-2.09917e-17 -1.21223e-17 9.19966e-18)
(-6.19714e-19 -3.57901e-19 2.71586e-19)
(-1.30752e-20 -7.54759e-21 5.73665e-21)
(-4.02679e-22 -4.35296e-24 5.57764e-22)
(-8.32166e-21 5.62224e-21 2.10688e-20)
(-2.68406e-19 1.81503e-19 6.79783e-19)
(-4.59904e-18 3.11065e-18 1.16482e-17)
(-2.71336e-19 1.83438e-19 6.87079e-19)
(-2.17909e-19 -1.45779e-19 1.83121e-20)
(-2.05005e-18 -1.18394e-18 8.97217e-19)
(-1.2079e-19 -6.97558e-20 5.29194e-20)
(-3.81925e-21 -2.20569e-21 1.67356e-21)
(-8.59316e-23 -4.96002e-23 3.77044e-23)
(-2.79596e-24 -4.12655e-26 3.85378e-24)
(-5.44057e-23 3.67089e-23 1.37615e-22)
(-1.65517e-21 1.11649e-21 4.18352e-21)
(-2.66752e-20 1.78907e-20 6.70678e-20)
(-1.13671e-20 7.6743e-22 5.62435e-21)
(-8.41038e-22 -6.3e-22 -1.25827e-22)
(-5.914e-21 -3.41677e-21 2.58326e-21)
(-3.73035e-22 -2.15439e-22 1.63357e-22)
(-1.2578e-23 -7.26405e-24 5.51063e-24)
(-3.0065e-25 -1.73525e-25 1.31922e-25)
(-1.03012e-26 -1.92703e-28 1.4128e-26)
(-1.894e-25 1.27601e-25 4.78546e-25)
(-5.4571e-24 3.67029e-24 1.37597e-23)
(-8.31785e-23 5.52183e-23 2.07271e-22)
(-6.88935e-23 1.34974e-24 2.30327e-23)
(-2.26006e-24 -1.82293e-24 -7.20966e-25)
(-1.21943e-23 -7.04906e-24 5.31243e-24)
(-8.19652e-25 -4.73416e-25 3.58717e-25)
(-2.93566e-26 -1.69543e-26 1.28587e-26)
(-7.42909e-28 -4.28753e-28 3.25987e-28)
(-2.6726e-29 -6.04155e-31 3.64731e-29)
(-4.65816e-28 3.13295e-28 1.17546e-27)
(-1.27576e-26 8.55128e-27 3.20764e-26)
(-1.84851e-25 1.21238e-25 4.55779e-25)
(-2.33159e-25 4.42369e-28 6.4131e-26)
(-4.76314e-27 -4.0441e-27 -2.11234e-27)
(-2.01524e-26 -1.1658e-26 8.72446e-27)
(-1.43766e-27 -8.30474e-28 6.26822e-28)
(-5.45086e-29 -3.1481e-29 2.3794e-29)
(-1.45602e-30 -8.40255e-31 6.36787e-31)
(-5.48594e-32 -1.44952e-33 7.42412e-32)
(-9.08985e-31 6.10205e-31 2.28293e-30)
(-2.37394e-29 1.58506e-29 5.93075e-29)
(-3.28515e-28 2.12458e-28 7.97732e-28)
(-5.65728e-28 -4.14625e-30 1.37622e-28)
)
;
    }
}


// ************************************************************************* //
