/*--------------------------------*- C++ -*----------------------------------*\
| =========                 |                                                 |
| \\      /  F ield         | OpenFOAM: The Open Source CFD Toolbox           |
|  \\    /   O peration     | Version:  2.4.0                                 |
|   \\  /    A nd           | Web:      www.OpenFOAM.org                      |
|    \\/     M anipulation  |                                                 |
\*---------------------------------------------------------------------------*/
FoamFile
{
    version     2.0;
    format      ascii;
    class       volVectorField;
    location    "0.02";
    object      gradp;
}
// * * * * * * * * * * * * * * * * * * * * * * * * * * * * * * * * * * * * * //

dimensions      [1 -2 -2 0 0 0 0];

internalField   nonuniform List<vector> 
200
(
(51608.3 23269.6 -3190.2)
(12543.9 16591.4 -15962.9)
(-13273.8 17006.6 -10267.8)
(9674.71 7570.54 -9604.02)
(28213.5 6357 1267.81)
(18624 -628.746 -2416.31)
(-7765.9 8137.47 -3076.83)
(-5842.18 4466.89 248.58)
(-3295.9 8424.98 -793.927)
(3653.15 10092.3 3217.55)
(13439.1 17168.9 -6587.55)
(12514.6 5636.44 -8720.14)
(-7838.49 10916.5 -19576.6)
(-2888.7 11374.9 -9593.08)
(11902.2 5273.78 -14925.8)
(4354.66 -2260.11 -5470.53)
(1687.76 -639.829 -7269.12)
(-4094.33 3992.44 -1916.31)
(4516.98 581.393 -384.84)
(2278.4 6135.59 -813.45)
(6736.43 7670.29 -1209.05)
(39.2136 7452.51 -5592.38)
(-1797 2997.06 -6430.31)
(-1610.82 13181.3 -7388.38)
(943.568 5027.63 -5133.02)
(6796.78 6907.02 -5902.55)
(4739.2 -635.604 -5853.42)
(-3399.74 6078.25 -7084.86)
(990.413 11405.4 -1626.65)
(6108.92 8727.78 -2305.79)
(5827.02 8314.13 -3133.26)
(3168.14 8179.73 -6364.09)
(3619.07 11510.6 -7287.87)
(1172.44 10064.3 -8202.17)
(-646.352 11476.7 -6926.24)
(-6971.81 6643.15 -6676.52)
(30.2328 4069.89 -5046.01)
(19987.7 4323.68 -6993.68)
(9816.03 7810.81 -8725.74)
(-3174.89 7628.63 -3584.07)
(-15246.1 15010.5 10184.2)
(-10104.4 7584.55 -5844.25)
(7074.55 -12382.8 -3163.9)
(46588.7 -19530.1 4751.48)
(51214.2 -21943 10366.3)
(4721.16 -4761.77 2444.94)
(761.731 -4483.99 554.951)
(1463.09 1565.6 3043.2)
(6204.8 4541.36 4147.04)
(14138.7 4356.06 5465.83)
(-14334.8 20338.7 -5956.12)
(-29050.4 22229.2 -11440.2)
(-10631.9 17056.5 -14069.4)
(11994 14919.9 -5785.44)
(25094.4 -4967.54 -5002.23)
(28856 -7838.1 -3807.43)
(13061.3 -5082.38 -4042.84)
(17935.4 -7741.06 -549.093)
(8046.13 -750.962 -631.247)
(10699.7 -2701.74 977.308)
(-15156.5 13197.2 -2390.46)
(-16668.8 11222.2 -7552.89)
(-7544.17 22659.1 -8733.56)
(2540.53 15406.7 -7212.32)
(5698.21 17826.9 -4091.18)
(4491.5 4977.43 -4029.35)
(955.818 2921.37 -5101.03)
(10125.9 -2045.55 -3890.46)
(16283.4 -1940.04 -766.55)
(8114.02 4294.78 -2483.71)
(-195.408 -3428.06 -4913.72)
(-10126.6 3115.17 -3386.7)
(-2262.78 8803.24 -7238.31)
(2329.67 13500.7 -9362.87)
(4235.73 8605.98 -8042.24)
(-955.061 7787.97 -7032.95)
(-984.684 5947.2 -4533.17)
(8212.52 8623.91 -6335.5)
(20726.8 5903.95 -8461.29)
(10176.5 5668.5 -6530.43)
(-26923.9 -2538.08 1940.61)
(-30170.2 -19350.5 6518)
(20632.5 -23662 5341.55)
(52971.4 -30587.3 5832.12)
(20832.5 -35794.7 -3923.24)
(-12772.4 -44751 -138.215)
(-5851.46 -23155.4 -881.399)
(5652.5 -16684.3 -3764.75)
(4456.54 -12012.9 -3641.24)
(5991.82 -8398.32 -6095.27)
(-17069.7 -2950.65 -2321.14)
(-13447.8 2902.61 -622.646)
(10256.8 2005.09 8094.36)
(26126.1 -7767.23 4925.85)
(18231.8 -17858.2 8243.36)
(7424.71 -12619 3308.04)
(12114.4 -9689.4 6425.34)
(6822.78 -7101.41 40.0688)
(9401.46 -7280.35 -1753.63)
(7631.37 -6583.67 -2743.93)
(-4367.32 9338.13 -9108.15)
(-20258.7 20338.1 -3468.83)
(-707.16 13926.8 -2201.52)
(13244.8 7457.4 -2219.81)
(11129.1 163.614 -1766.19)
(3565.25 1746.18 111.693)
(5183.63 -1420.13 631.741)
(10470.6 -3180 3137.52)
(5492.02 -1122.67 -1099.5)
(6229.09 -3284.61 -1830.3)
(4747.34 4912.84 -8266.62)
(-4270.56 9792.72 -4670.98)
(-15504.7 11676.6 -5178.42)
(-1400.15 8444.45 -5252.54)
(6809.38 7041.59 -6241.88)
(4257.22 3830.21 -4471.31)
(2262.08 4556.22 -1383.43)
(7417.71 2329.58 -383.387)
(9192.25 901.774 -1137.4)
(877.045 2280.35 -5172.31)
(-4553.85 6713.58 -4048.93)
(778.579 8279.46 4981.01)
(4879.76 5722.68 5887.52)
(16941.3 5326.75 -1369.07)
(32109.1 3369.43 -7560.99)
(14455.1 665.61 -4121.04)
(-10843.2 6857.5 -2216.63)
(-7368.41 9696.86 -4523.96)
(-1252.88 14683.6 -7093.99)
(266.824 21614.4 -7618.26)
(6588.07 2660.71 6386.83)
(4279.18 6250.32 11591.8)
(7123.29 4987.61 11593.8)
(12470.8 2036.78 9129.2)
(19917.4 -1516.26 5092.73)
(23038.3 -7438.25 6604.57)
(2603.75 -2661.35 3898.58)
(-8237.33 3302.58 1272.96)
(-862.682 3315.82 212.969)
(252.937 4122.22 -2353.09)
(8374.09 3684.39 3959.57)
(5432.38 4744.86 7985.63)
(-3547.32 1422.61 8823.14)
(3933.59 -878.67 5899.42)
(13159 -5349.49 4074.27)
(12164.9 -7469.54 3209.49)
(10638.5 -9572.66 3996.97)
(4585.94 -2723.08 2390.16)
(386.407 -954.088 1068.94)
(1176.85 409.385 1343.75)
(15097.1 -227.311 5795.92)
(-244.386 -2655.98 1898.73)
(-4123.76 129.74 2669.43)
(-1073.4 -282.269 1474.1)
(6735.65 689.861 1509.4)
(14592 602.56 2173.95)
(12096.7 -1083.73 2750.91)
(8999.82 -1025.83 3078.45)
(5402.25 844.756 2266.99)
(763.726 1009.4 1577.62)
(5588.89 8786.31 7384.9)
(1626.48 9534.79 8581.65)
(312.283 8561.33 7649.87)
(9936.21 6101.85 7154.31)
(12026.2 6616.67 5460.77)
(4329.53 8920.6 878.412)
(-7140.79 9093.91 2296.54)
(-9955.05 10079.2 2035.41)
(-5445.22 12935.1 1488.22)
(-2458.24 16051.8 725.304)
(3681.55 9862.96 9339.4)
(3214.44 7710 9494.33)
(2376.6 6702.09 9006.67)
(5322.79 3862.35 8010.99)
(10153 758.186 6772.92)
(3603.41 -890.097 4959.63)
(-4946.7 252.367 699.514)
(-4971.17 3961.18 2600.11)
(-2201.91 5780.33 1720.19)
(1695.53 7755.53 2181.6)
(-808.123 8392.68 11886.3)
(-4695.27 4829.28 9493.95)
(-7383.02 -352.201 8721.42)
(-1951.6 -4790.75 8295.29)
(2521.32 -5569.72 6882.3)
(3317.9 -5342.82 4971.01)
(2561.76 -3256.4 4117.62)
(1100.88 -291.227 2447.03)
(2143.49 2163.77 3028.54)
(3193.54 3004.53 2996.12)
(-12600.8 5873.1 12282.1)
(-14275.3 -176.402 9547.1)
(-16863.5 -3443.54 7897.41)
(-5112.25 -3860.44 5565.94)
(9048.89 -5621.14 6635.27)
(8230.06 -2748.65 6288.83)
(5156.49 -940.426 4647.18)
(5869.16 275.7 4120.02)
(4389.6 1876.4 3668.85)
(5825.72 2884.03 3803.57)
)
;

boundaryField
{
    inlet
    {
        type            zeroGradient;
    }
    outlet
    {
        type            zeroGradient;
    }
    bottom
    {
        type            zeroGradient;
    }
    top
    {
        type            symmetryPlane;
    }
    side1
    {
        type            symmetryPlane;
    }
    side2
    {
        type            symmetryPlane;
    }
    procBoundary12to4
    {
        type            processor;
        value           nonuniform List<vector> 
50
(
(54709.2 25049.3 -1425.62)
(25040.6 25888 -3090.84)
(10203.3 7349.03 -1208.26)
(18410.5 2511.09 7344.79)
(28300.8 5350.19 2761.74)
(793.709 15969.7 -2887.39)
(-8503.52 14447 619.294)
(-4669.34 13139.6 -102.999)
(-6733.78 18058.3 2042.42)
(4024.17 21075.3 2771.68)
(25994.5 16880.2 10173.7)
(25736.1 -24998.5 11023.5)
(43597.3 -24945.1 11348.5)
(31114.5 -26376.6 18063.2)
(-4442.19 293.096 21342.6)
(-6062.13 5862.7 23769)
(406.533 6865.26 15515.2)
(-115.335 11743 12670.4)
(2465.2 16817.3 12142.4)
(8529.87 23240.4 12533.9)
(-144.843 34548.2 2864.42)
(28800 -974.517 -1056.97)
(32730.4 -34408.1 -3221.56)
(50391.6 -37366.2 -10609.6)
(46559.3 -17801.7 -7576.93)
(-17854 -16755.2 -84.0679)
(-44019 -12887.8 -663.093)
(-15462.2 -13414.5 -5041.97)
(-7170.52 -10373.8 -8092.54)
(1803.83 -9315.7 -13530.4)
(-7995.08 46987.7 -690.916)
(6260.98 18528.2 -6461.52)
(13028.7 6308.57 -8545.79)
(17177.3 2304.83 -13801.5)
(29239.7 4297.78 -21414.4)
(16062.1 8589.64 -26940.2)
(-15458.8 11088 -16257.2)
(-23889.6 13134.5 -15454.2)
(-24697.8 21390.9 -15379.5)
(-11590.4 25679 -17634.4)
(1200.97 9990.72 8043.95)
(3664.4 8423.24 8709.75)
(9242.48 2752.41 7232.51)
(9212.12 1077.3 7526.55)
(4515.52 2104.62 4743.39)
(-1351.08 4685.23 -199.743)
(-7263.96 6200.17 -698.242)
(-12653.5 7319.7 2361.13)
(-14147.1 9464.46 2813.02)
(-22818.9 20323.9 5658.25)
)
;
    }
    procBoundary12to11
    {
        type            processor;
        value           nonuniform List<vector> 
20
(
(57471.8 37226.5 4929.1)
(17364.9 28072.4 -40.7932)
(6047.83 11258.6 1249.15)
(9535.32 7186.44 -4482.09)
(-2450.82 27749.2 18697.1)
(-19441.9 22184.5 -1906.21)
(2805.44 4152.49 -4082.97)
(6906.15 -6457.86 -3049.31)
(-31519.5 -10888 3176.68)
(-3025.78 -8375.68 -7161.05)
(1047.98 9429.61 -10822.1)
(17162.2 2052.9 -9449.89)
(-6513.21 987.89 -5179.24)
(3291.6 -213.652 5106.99)
(4527.91 490.344 6873.38)
(7963.42 -3991.91 7320.02)
(-2235.25 8294.5 5412.04)
(5348.53 10908.5 10402.6)
(3611.92 12970.5 12363.4)
(-10720 7471.84 18202.7)
)
;
    }
    procBoundary12to13
    {
        type            processor;
        value           nonuniform List<vector> 
20
(
(11468.4 7552.09 2482.81)
(5586.92 1809.28 2246.81)
(-587.205 8678.75 -1000.06)
(-10658.1 9721.72 -4553.43)
(12287 5626.27 4877.87)
(10615.7 -3763.31 1041.56)
(6086.92 -2201.64 -728.999)
(-4913.69 2492.68 -7195.06)
(10983.5 -9099.08 -7976.21)
(4244.42 -7161.72 -5018.24)
(3704.52 -4499.83 -3267.37)
(-203.488 -3373.33 -4078.89)
(8000.93 20605.3 -9734.64)
(3640.98 3770.84 -1641.98)
(2512.06 -698.693 120.327)
(502 1361.11 3813.45)
(2537.36 25192.3 636.635)
(4568.6 8606.23 2171)
(5877.12 4228.86 3658.75)
(8343.68 3210.7 5250.72)
)
;
    }
    procBoundary12to20
    {
        type            processor;
        value           nonuniform List<vector> 
50
(
(8723 16605.5 -8547.93)
(6432.18 21422.4 -8757.74)
(1972.07 17199.3 -8122.42)
(-1678.71 14362.1 -5240.59)
(-5898.66 8495.68 -6927.2)
(-8016.77 9188.24 -5187.03)
(100.261 6229.62 -4680.1)
(4082.1 717.305 -4397.21)
(7600.32 -3682.98 -2818.44)
(9930.73 -2761.02 -3530.87)
(3989.56 -2386.96 -4516.27)
(7793.79 7997.02 -6544.77)
(13226.9 7590.13 -8629.84)
(2146 4027.66 -8224.7)
(-5727.27 1469.96 -6863.1)
(-826.062 786.511 -5787.43)
(2627.7 4747.58 -4797.08)
(10039.4 2722.22 -5136.77)
(10372.6 2042.79 -5084.7)
(1291.5 -4723.67 -5826.38)
(11112.3 191.389 -7107.68)
(-6731.24 -603.455 -7075.79)
(-3403.7 3390.04 -7622.46)
(3974.84 5347.36 -10834.2)
(1900.6 4582.8 -6713.76)
(-1405.5 1254.46 -4379.19)
(2182.38 852.394 -3762.59)
(3161.72 1252.52 -2893.57)
(5393.56 -616.829 -4261.5)
(-2321.12 -2672.58 -4742.23)
(11045.9 -846.27 4559.74)
(6146.49 4202.14 1754.93)
(1200.09 5721.96 -626.922)
(5053.83 5034.53 -1791.14)
(14928.7 5266.27 -3839.93)
(8617.69 3814.85 -902.291)
(7381.69 1173.87 561.571)
(8442.92 443.248 1106.48)
(4456.88 -357.265 1678.08)
(2209.56 -448.085 1721.05)
(-16104.6 -1800.42 15699.1)
(-23328.6 2567.74 11043.7)
(-14751.1 6873.57 6488.12)
(-6306.8 7313.56 6058.93)
(4744.91 3679.75 2937.92)
(12679.3 3047.27 2876.5)
(8610.46 677.746 4207.18)
(6734.54 1726.28 3260.49)
(7360.16 1334.31 3673.32)
(5862.14 2390.92 4167.77)
)
;
    }
}


// ************************************************************************* //
