/*--------------------------------*- C++ -*----------------------------------*\
| =========                 |                                                 |
| \\      /  F ield         | OpenFOAM: The Open Source CFD Toolbox           |
|  \\    /   O peration     | Version:  2.4.0                                 |
|   \\  /    A nd           | Web:      www.OpenFOAM.org                      |
|    \\/     M anipulation  |                                                 |
\*---------------------------------------------------------------------------*/
FoamFile
{
    version     2.0;
    format      ascii;
    class       volVectorField;
    location    "0.02";
    object      Uc;
}
// * * * * * * * * * * * * * * * * * * * * * * * * * * * * * * * * * * * * * //

dimensions      [0 1 -1 0 0 0 0];

internalField   nonuniform List<vector> 
200
(
(6.94931e-12 3.794e-12 1.93623e-13)
(1.71196e-10 9.86871e-11 5.31381e-12)
(6.4976e-12 3.74573e-12 2.01694e-13)
(1.37069e-13 7.9018e-14 4.25486e-15)
(2.12078e-15 1.22253e-15 6.58153e-17)
(3.4525e-17 1.47502e-17 -2.53738e-19)
(4.56194e-16 -4.29696e-17 -6.45312e-17)
(1.96599e-14 -1.86114e-15 -2.78318e-15)
(4.66153e-13 -4.41489e-14 -6.59913e-14)
(1.9662e-14 -1.86122e-15 -2.78329e-15)
(1.82058e-14 1.00453e-14 5.13806e-16)
(4.06512e-13 2.34337e-13 1.26178e-14)
(1.71404e-14 9.88107e-15 5.32059e-16)
(3.97717e-16 2.29278e-16 1.23459e-17)
(6.71285e-18 3.86968e-18 2.08328e-19)
(1.12992e-19 5.10876e-20 -1.06473e-22)
(1.15298e-18 -1.08419e-19 -1.63039e-19)
(4.56291e-17 -4.32127e-18 -6.45958e-18)
(9.83774e-16 -9.3205e-17 -1.39268e-16)
(4.56351e-17 -4.32161e-18 -6.45989e-18)
(4.21337e-17 2.34063e-17 1.19998e-18)
(8.58061e-16 4.94637e-16 2.66334e-17)
(3.97904e-17 2.29384e-17 1.23514e-18)
(1.00715e-18 5.80609e-19 3.12638e-20)
(1.84151e-20 1.06156e-20 5.71507e-22)
(3.23058e-22 1.5194e-22 1.207e-24)
(2.62827e-21 -2.46581e-22 -3.71488e-22)
(9.62822e-20 -9.1209e-21 -1.36304e-20)
(1.90332e-18 -1.8037e-19 -2.69444e-19)
(9.62972e-20 -9.12189e-21 -1.36312e-20)
(8.88673e-20 4.959e-20 2.54975e-21)
(1.66032e-18 9.57104e-19 5.15342e-20)
(8.39755e-20 4.84102e-20 2.60669e-21)
(2.30251e-21 1.32737e-21 7.14741e-23)
(4.53369e-23 2.6135e-23 1.40703e-24)
(8.31962e-25 4.02687e-25 6.04066e-27)
(5.53144e-24 -5.17445e-25 -7.81414e-25)
(1.88664e-22 -1.78762e-23 -2.67087e-23)
(3.44348e-21 -3.26386e-22 -4.87477e-22)
(1.88699e-22 -1.78785e-23 -2.67107e-23)
(3.16787e-14 1.59847e-14 1.16336e-15)
(6.33921e-13 3.65403e-13 1.96793e-14)
(2.67221e-14 1.54043e-14 8.2951e-16)
(6.19912e-16 3.57365e-16 1.92433e-17)
(1.04611e-17 6.03022e-18 3.2463e-19)
(1.84324e-19 7.8816e-20 -1.33697e-21)
(2.24949e-18 -2.11537e-19 -3.18071e-19)
(8.90569e-17 -8.4195e-18 -1.25996e-17)
(1.9266e-15 -1.81833e-16 -2.72157e-16)
(6.13412e-16 -2.48506e-17 -5.2028e-17)
(9.21679e-17 4.66434e-17 3.49117e-18)
(1.67227e-15 9.63915e-16 5.19162e-17)
(7.75262e-17 4.46911e-17 2.40661e-18)
(1.96187e-18 1.13097e-18 6.09008e-20)
(3.58643e-20 2.06739e-20 1.11298e-21)
(6.49257e-22 2.93941e-22 -5.09842e-25)
(6.15122e-21 -5.77331e-22 -8.69385e-22)
(2.25473e-19 -2.13237e-20 -3.1897e-20)
(4.47466e-18 -4.22305e-19 -6.31901e-19)
(1.5433e-18 -6.26392e-20 -1.3099e-19)
(2.34847e-19 1.18788e-19 9.13622e-21)
(3.8822e-18 2.23771e-18 1.20531e-19)
(1.96298e-19 1.13158e-19 6.09367e-21)
(5.38106e-21 3.10206e-21 1.67041e-22)
(1.05932e-22 6.10649e-23 3.2875e-24)
(1.98843e-24 9.36466e-25 7.76131e-27)
(1.50902e-23 -1.41263e-24 -2.13165e-24)
(5.15401e-22 -4.87536e-23 -7.29061e-23)
(9.44956e-21 -8.91633e-22 -1.33397e-21)
(3.50916e-21 -1.42645e-22 -2.98019e-22)
(5.41416e-22 2.73167e-22 2.15778e-23)
(8.19363e-21 4.72274e-21 2.54405e-22)
(4.48716e-22 2.58667e-22 1.39297e-23)
(1.32457e-23 7.63587e-24 4.11182e-25)
(2.79372e-25 1.61045e-25 8.67014e-27)
(5.46146e-27 2.64678e-27 4.05241e-29)
(3.40159e-26 -3.17393e-27 -4.80208e-27)
(1.08759e-24 -1.02892e-25 -1.53832e-25)
(1.85327e-23 -1.74812e-24 -2.61519e-24)
(7.37349e-24 -3.00086e-25 -6.26493e-25)
(8.00438e-17 3.72139e-17 3.62475e-18)
(1.30561e-15 7.52504e-16 4.05411e-17)
(6.05199e-17 3.48864e-17 1.87876e-18)
(1.53138e-18 8.82791e-19 4.75379e-20)
(2.79931e-20 1.61361e-20 8.68649e-22)
(5.30648e-22 2.27158e-22 -3.78153e-24)
(6.01597e-21 -5.64704e-22 -8.50205e-22)
(2.20441e-19 -2.08072e-20 -3.11621e-20)
(4.39166e-18 -4.12634e-19 -6.18621e-19)
(2.80273e-18 -1.01689e-19 -2.25337e-19)
(2.56039e-19 1.1869e-19 1.20147e-20)
(3.78855e-18 2.18351e-18 1.17655e-19)
(1.91534e-19 1.10408e-19 5.94611e-21)
(5.25002e-21 3.02646e-21 1.62976e-22)
(1.03346e-22 5.95725e-23 3.20707e-24)
(2.00195e-24 9.07668e-25 -1.22666e-27)
(1.76979e-23 -1.6576e-24 -2.49987e-24)
(6.0467e-22 -5.70913e-23 -8.54641e-23)
(1.11347e-20 -1.04572e-21 -1.56742e-21)
(7.62985e-21 -2.77254e-22 -6.13721e-22)
(7.11952e-22 3.28094e-22 3.44577e-23)
(9.59471e-21 5.52965e-21 2.98009e-22)
(5.25356e-22 3.02836e-22 1.63101e-23)
(1.55067e-23 8.9391e-24 4.81381e-25)
(3.27037e-25 1.88517e-25 1.01491e-26)
(6.53977e-27 3.08426e-27 2.6659e-29)
(4.64985e-26 -4.34236e-27 -6.56394e-27)
(1.48868e-24 -1.40577e-25 -2.10374e-25)
(2.54935e-23 -2.39251e-24 -3.58601e-24)
(1.86729e-23 -6.79334e-25 -1.50254e-24)
(1.77988e-24 8.14088e-25 8.85789e-26)
(2.19377e-23 1.26426e-23 6.8149e-25)
(1.29323e-24 7.45463e-25 4.01508e-26)
(4.08946e-26 2.35744e-26 1.26953e-27)
(9.19926e-28 5.30285e-28 2.85491e-29)
(1.90859e-29 9.26114e-30 1.44677e-31)
(1.11793e-28 -1.0402e-29 -1.57697e-29)
(3.36624e-27 -3.17882e-28 -4.75614e-28)
(5.38908e-26 -5.053e-27 -7.57432e-27)
(4.20298e-26 -1.53043e-27 -3.3829e-27)
(1.47663e-19 6.32263e-20 7.86617e-21)
(1.97266e-18 1.1368e-18 6.12768e-20)
(9.97175e-20 5.74794e-20 3.09586e-21)
(2.73316e-21 1.57554e-21 8.48464e-23)
(5.38006e-23 3.10116e-23 1.66942e-24)
(1.0915e-24 4.67856e-25 -7.61678e-27)
(1.15543e-23 -1.08242e-24 -1.63193e-24)
(3.94395e-22 -3.71563e-23 -5.5696e-23)
(7.29505e-21 -6.81625e-22 -1.02391e-21)
(7.28357e-21 -2.5284e-22 -5.73729e-22)
(5.14826e-22 2.18859e-22 2.84022e-23)
(6.24471e-21 3.59852e-21 1.94023e-22)
(3.41881e-22 1.97066e-22 1.06147e-23)
(1.00906e-23 5.81678e-24 3.13254e-25)
(2.12805e-25 1.22666e-25 6.60368e-27)
(4.39144e-27 1.99404e-27 -1.89851e-30)
(3.63872e-26 -3.40029e-27 -5.13624e-27)
(1.16518e-24 -1.098e-25 -1.64506e-25)
(2.00522e-23 -1.87192e-24 -2.81159e-24)
(2.13356e-23 -7.41684e-25 -1.68123e-24)
(1.55033e-24 6.52717e-25 8.81645e-26)
(1.71336e-23 9.87262e-24 5.32476e-25)
(1.00987e-24 5.82099e-25 3.13562e-26)
(3.19323e-26 1.84075e-26 9.91334e-28)
(7.18293e-28 4.14045e-28 2.22908e-29)
(1.52428e-29 7.19882e-30 6.47952e-32)
(1.01947e-28 -9.49552e-30 -1.438e-29)
(3.07401e-27 -2.89695e-28 -4.33891e-28)
(4.94853e-26 -4.61376e-27 -6.93046e-27)
(5.5932e-26 -1.94635e-27 -4.40855e-27)
(4.17441e-27 1.7384e-27 2.43933e-28)
(4.21902e-26 2.43087e-26 1.31156e-27)
(2.66346e-27 1.53522e-27 8.27054e-29)
(8.98249e-29 5.17797e-29 2.78868e-30)
(2.14672e-30 1.23744e-30 6.66213e-32)
(4.71069e-32 2.2886e-32 3.64541e-34)
(2.60424e-31 -2.41585e-32 -3.67036e-32)
(7.41575e-30 -6.98803e-31 -1.04642e-30)
(1.12187e-28 -1.0444e-29 -1.56921e-29)
(1.34291e-28 -4.67664e-30 -1.05868e-29)
(2.21943e-22 8.76428e-23 1.3403e-23)
(2.44171e-21 1.40684e-21 7.57254e-23)
(1.33671e-22 7.70467e-23 4.14091e-24)
(3.94545e-24 2.27431e-24 1.22182e-25)
(8.32132e-26 4.79642e-26 2.57519e-27)
(1.79879e-27 7.72108e-28 -1.22289e-29)
(1.7859e-26 -1.6694e-27 -2.51399e-27)
(5.70978e-25 -5.36745e-26 -8.03347e-26)
(9.87617e-24 -9.16609e-25 -1.3769e-24)
(1.37894e-23 -4.67327e-25 -1.07123e-24)
(8.37299e-25 3.273e-25 5.22208e-26)
(8.37482e-24 4.82495e-24 2.59778e-25)
(4.93585e-25 2.84495e-25 1.52893e-26)
(1.56079e-26 8.997e-27 4.83282e-28)
(3.51111e-28 2.02384e-28 1.08649e-29)
(7.68905e-30 3.49669e-30 -1.91192e-33)
(5.99519e-29 -5.58844e-30 -8.43219e-30)
(1.80774e-27 -1.69971e-28 -2.5422e-28)
(2.92606e-26 -2.71199e-27 -4.07308e-27)
(4.32535e-26 -1.46787e-27 -3.36052e-27)
(2.71315e-27 1.04772e-27 1.73992e-28)
(2.4749e-26 1.42571e-26 7.67859e-28)
(1.56226e-27 9.00444e-28 4.83888e-29)
(5.26888e-29 3.03718e-29 1.63125e-30)
(1.25928e-30 7.25871e-31 3.89634e-32)
(2.82638e-32 1.33666e-32 1.24625e-34)
(1.78448e-31 -1.65736e-32 -2.50741e-32)
(5.08847e-30 -4.78426e-31 -7.15211e-31)
(7.74466e-29 -7.16495e-30 -1.07617e-29)
(1.20945e-28 -4.10837e-30 -9.39669e-30)
(7.82323e-30 2.98171e-30 5.14306e-31)
(6.53053e-29 3.76159e-29 2.02671e-30)
(4.39543e-30 2.53335e-30 1.36134e-31)
(1.57488e-31 9.07812e-32 4.87522e-33)
(3.98522e-33 2.29715e-33 1.23291e-34)
(9.22194e-35 4.48564e-35 7.25471e-37)
(4.82735e-34 -4.46353e-35 -6.77561e-35)
(1.30464e-32 -1.2264e-33 -1.83271e-33)
(1.87492e-31 -1.73085e-32 -2.60037e-32)
(3.08593e-31 -1.04898e-32 -2.39743e-32)
)
;

boundaryField
{
    inlet
    {
        type            calculated;
        value           nonuniform 0();
    }
    outlet
    {
        type            calculated;
        value           nonuniform 0();
    }
    bottom
    {
        type            calculated;
        value           uniform (0 0 0);
    }
    top
    {
        type            symmetryPlane;
    }
    side1
    {
        type            symmetryPlane;
    }
    side2
    {
        type            symmetryPlane;
    }
    procBoundary12to4
    {
        type            processor;
        value           nonuniform List<vector> 
50
(
(2.22604e-09 1.19372e-09 6.07247e-11)
(6.08334e-08 3.50677e-08 1.88824e-09)
(2.05264e-09 1.1833e-09 6.37165e-11)
(3.89727e-11 2.24671e-11 1.20978e-12)
(5.48201e-13 3.16009e-13 1.7012e-14)
(8.79572e-15 3.43707e-15 -1.47179e-16)
(1.57375e-13 -1.4838e-14 -2.22678e-14)
(7.45508e-12 -7.05319e-13 -1.05539e-12)
(1.96364e-10 -1.85876e-11 -2.77985e-11)
(7.4559e-12 -7.05345e-13 -1.05545e-12)
(9.04117e-12 4.51805e-12 3.19245e-13)
(2.00263e-10 1.15436e-10 6.21665e-12)
(7.59894e-12 4.3805e-12 2.35884e-13)
(1.60267e-13 9.23899e-14 4.97499e-15)
(2.47924e-15 1.42912e-15 7.69321e-17)
(4.33895e-17 1.69536e-17 -7.26365e-19)
(7.12365e-16 -6.70694e-17 -1.00762e-16)
(3.07026e-14 -2.90097e-15 -4.34408e-15)
(7.30066e-13 -6.88924e-14 -1.03166e-13)
(2.13122e-13 -8.61401e-15 -1.80603e-14)
(2.05933e-14 9.54424e-15 8.92494e-16)
(3.71219e-13 2.13959e-13 1.15256e-14)
(1.56462e-14 9.0192e-15 4.85704e-16)
(3.6294e-16 2.09222e-16 1.12664e-17)
(6.12434e-18 3.53019e-18 1.9003e-19)
(1.16108e-19 4.53666e-20 -1.9435e-21)
(1.76161e-18 -1.65593e-19 -2.49065e-19)
(6.966e-17 -6.57152e-18 -9.84888e-18)
(1.51196e-15 -1.42089e-16 -2.13119e-16)
(8.96539e-16 -3.24539e-17 -7.20227e-17)
(3.45884e-17 1.48377e-17 1.76505e-18)
(5.09876e-16 2.93841e-16 1.58351e-17)
(2.3632e-17 1.3622e-17 7.33649e-19)
(5.9795e-19 3.44689e-19 1.8562e-20)
(1.09301e-20 6.30017e-21 3.39126e-22)
(2.23139e-22 8.71926e-23 -3.73246e-24)
(3.14791e-21 -2.95388e-22 -4.44833e-22)
(1.15034e-19 -1.08316e-20 -1.62487e-20)
(2.30084e-18 -2.15096e-19 -3.23249e-19)
(2.15949e-18 -7.47913e-20 -1.69974e-19)
(4.77287e-20 1.89523e-20 2.77028e-21)
(5.78446e-19 3.33303e-19 1.79369e-20)
(2.92394e-20 1.68534e-20 9.05868e-22)
(8.01457e-22 4.61989e-22 2.48227e-23)
(1.57775e-23 9.09394e-24 4.88288e-25)
(3.45089e-25 1.34864e-25 -5.75021e-27)
(4.55063e-24 -4.26189e-25 -6.41061e-25)
(1.54619e-22 -1.4527e-23 -2.17643e-23)
(2.8735e-21 -2.66905e-22 -4.01173e-22)
(3.81069e-21 -1.28844e-22 -2.95878e-22)
)
;
    }
    procBoundary12to11
    {
        type            processor;
        value           nonuniform List<vector> 
20
(
(6.08705e-12 3.54072e-12 -1.3007e-13)
(1.83777e-14 1.01857e-14 -1.63421e-16)
(4.88013e-17 2.58921e-17 9.40975e-20)
(1.17544e-19 5.9992e-20 1.31744e-21)
(2.23412e-13 3.76677e-14 2.35401e-14)
(6.59949e-16 1.1341e-16 6.9439e-17)
(1.70458e-18 2.99031e-19 1.78998e-19)
(3.98185e-21 7.13984e-22 4.17074e-22)
(9.56888e-16 1.37778e-16 1.0836e-16)
(3.06084e-18 4.4702e-19 3.46606e-19)
(8.49476e-21 1.2601e-21 9.61517e-22)
(2.11801e-23 3.19512e-24 2.39537e-24)
(2.32155e-18 3.13611e-19 2.70014e-19)
(8.02345e-21 1.09622e-21 9.33795e-22)
(2.39088e-23 3.30763e-24 2.78354e-24)
(6.36602e-26 8.92718e-27 7.41181e-27)
(4.11409e-21 5.36778e-22 4.84313e-22)
(1.52929e-23 2.01448e-24 1.80177e-24)
(4.87557e-26 6.49042e-27 5.74756e-27)
(1.3825e-28 1.86163e-29 1.6303e-29)
)
;
    }
    procBoundary12to13
    {
        type            processor;
        value           nonuniform List<vector> 
20
(
(5.59761e-16 -4.64081e-17 -7.23744e-17)
(1.41656e-18 -1.17528e-19 -1.83185e-19)
(3.23596e-21 -2.68673e-22 -4.18566e-22)
(6.824e-24 -5.66941e-25 -8.82885e-25)
(2.28042e-14 -7.15155e-16 -1.71482e-15)
(5.29054e-17 -1.65986e-18 -3.97844e-18)
(1.11591e-19 -3.50221e-21 -8.39172e-21)
(2.18574e-22 -6.86158e-24 -1.64373e-23)
(1.03369e-16 -3.24003e-18 -7.7728e-18)
(2.61606e-19 -8.20385e-21 -1.96718e-20)
(5.97763e-22 -1.87523e-23 -4.495e-23)
(1.26089e-24 -3.95661e-26 -9.48163e-26)
(2.55589e-19 -8.00757e-21 -1.92188e-20)
(7.00731e-22 -2.19659e-23 -5.26917e-23)
(1.7243e-24 -5.40734e-26 -1.2966e-25)
(3.8969e-27 -1.22244e-28 -2.93034e-28)
(4.5709e-22 -1.43142e-23 -3.42715e-23)
(1.34968e-24 -4.22924e-26 -1.01176e-25)
(3.55871e-27 -1.11563e-28 -2.66719e-28)
(8.5797e-30 -2.6906e-31 -6.42904e-31)
)
;
    }
    procBoundary12to20
    {
        type            processor;
        value           nonuniform List<vector> 
50
(
(1.73188e-22 9.69032e-23 5.0045e-24)
(3.00408e-21 1.73167e-21 9.3242e-23)
(1.64567e-22 9.48661e-23 5.10833e-24)
(4.85899e-24 2.80103e-24 1.50832e-25)
(1.02504e-25 5.90876e-26 3.18126e-27)
(1.96372e-27 9.75124e-28 2.06066e-29)
(1.07058e-26 -9.97547e-28 -1.51137e-27)
(3.44643e-25 -3.2659e-26 -4.8791e-26)
(5.90549e-24 -5.59798e-25 -8.36019e-25)
(3.48411e-25 -3.30143e-26 -4.93184e-26)
(1.14258e-24 5.74918e-25 4.64191e-26)
(1.6058e-23 9.25516e-24 4.9862e-25)
(9.46813e-25 5.45777e-25 2.93928e-26)
(2.99431e-26 1.72608e-26 9.29522e-28)
(6.73619e-28 3.88294e-28 2.09059e-29)
(1.36887e-29 6.8089e-30 1.46652e-31)
(7.00073e-29 -6.50322e-30 -9.87535e-30)
(2.12509e-27 -2.01051e-28 -3.00561e-28)
(3.4241e-26 -3.22896e-27 -4.83056e-27)
(1.4041e-26 -5.76538e-28 -1.19836e-27)
(4.0394e-27 1.83601e-27 2.05301e-28)
(4.63006e-26 2.66806e-26 1.43855e-27)
(2.92354e-27 1.68515e-27 9.07706e-29)
(9.86031e-29 5.68386e-29 3.06108e-30)
(2.3566e-30 1.35839e-30 7.31374e-32)
(5.063e-32 2.52258e-32 5.53412e-34)
(2.43765e-31 -2.25693e-32 -3.43556e-32)
(7.0056e-30 -6.61535e-31 -9.89704e-31)
(1.06725e-28 -1.00014e-29 -1.49929e-29)
(8.48343e-29 -3.10862e-30 -6.84876e-30)
(1.01281e-29 4.18233e-30 6.03702e-31)
(9.54074e-29 5.49642e-29 2.96673e-30)
(6.42246e-30 3.70169e-30 1.99443e-31)
(2.30112e-31 1.32641e-31 7.14418e-33)
(5.82263e-33 3.35619e-33 1.80707e-34)
(1.31857e-34 6.58023e-35 1.46921e-36)
(5.99655e-34 -5.53216e-35 -8.44303e-35)
(1.63754e-32 -1.54298e-33 -2.31032e-33)
(2.37064e-31 -2.20524e-32 -3.31378e-32)
(2.86775e-31 -1.00371e-32 -2.26608e-32)
(2.01931e-32 7.62261e-33 1.3511e-33)
(1.57545e-31 9.07317e-32 4.89052e-33)
(1.12622e-32 6.4906e-33 3.48784e-34)
(4.27213e-34 2.46245e-34 1.32232e-35)
(1.14105e-35 6.57691e-36 3.5297e-37)
(2.7165e-37 1.35775e-37 3.07192e-39)
(1.17043e-36 -1.07564e-37 -1.64072e-37)
(3.04667e-35 -2.86369e-36 -4.27833e-36)
(4.21069e-34 -3.88373e-35 -5.83463e-35)
(6.95397e-34 -2.37389e-35 -5.41195e-35)
)
;
    }
}


// ************************************************************************* //
