/*--------------------------------*- C++ -*----------------------------------*\
| =========                 |                                                 |
| \\      /  F ield         | OpenFOAM: The Open Source CFD Toolbox           |
|  \\    /   O peration     | Version:  2.4.0                                 |
|   \\  /    A nd           | Web:      www.OpenFOAM.org                      |
|    \\/     M anipulation  |                                                 |
\*---------------------------------------------------------------------------*/
FoamFile
{
    version     2.0;
    format      ascii;
    class       volVectorField;
    location    "0.02";
    object      Ua;
}
// * * * * * * * * * * * * * * * * * * * * * * * * * * * * * * * * * * * * * //

dimensions      [0 1 -1 0 0 0 0];

internalField   nonuniform List<vector> 
200
(
(1.07917 -0.088424 -0.139511)
(2.24455 -0.0698735 -0.168988)
(2.24751 -0.0696798 -0.169063)
(2.24822 -0.0695219 -0.169081)
(2.24849 -0.0693711 -0.169087)
(2.24862 -0.0692228 -0.169091)
(2.2487 -0.0690757 -0.169093)
(2.24875 -0.0689294 -0.169094)
(2.24878 -0.0687836 -0.169094)
(2.24881 -0.0686383 -0.169095)
(1.07916 -0.0890797 -0.13951)
(2.24332 -0.0703377 -0.168957)
(2.24716 -0.070202 -0.169054)
(2.24806 -0.0701137 -0.169077)
(2.2484 -0.0700343 -0.169085)
(2.24857 -0.0699577 -0.169089)
(2.24867 -0.0698825 -0.169092)
(2.24872 -0.0698079 -0.169093)
(2.24876 -0.0697336 -0.169094)
(2.24879 -0.0696597 -0.169095)
(1.07914 -0.0892995 -0.13951)
(2.24193 -0.070509 -0.168922)
(2.24677 -0.0703814 -0.169044)
(2.24789 -0.070314 -0.169072)
(2.24831 -0.0702577 -0.169083)
(2.24851 -0.0702051 -0.169088)
(2.24863 -0.0701539 -0.169091)
(2.2487 -0.0701035 -0.169092)
(2.24874 -0.0700534 -0.169093)
(2.24877 -0.0700033 -0.169094)
(1.07913 -0.0894097 -0.139509)
(2.24038 -0.0706085 -0.168882)
(2.24634 -0.070475 -0.169033)
(2.2477 -0.070416 -0.169067)
(2.24821 -0.0703706 -0.16908)
(2.24845 -0.0703296 -0.169086)
(2.24858 -0.0702904 -0.169089)
(2.24867 -0.070252 -0.169091)
(2.24872 -0.0702132 -0.169093)
(2.24874 -0.0578085 -0.167414)
(2.2488 -0.0698069 -0.169095)
(2.24892 -0.0699523 -0.169099)
(2.24892 -0.069805 -0.169099)
(2.24892 -0.0696579 -0.169099)
(2.24892 -0.0695112 -0.169099)
(2.24892 -0.0693647 -0.169099)
(2.24892 -0.0692186 -0.169099)
(2.24892 -0.0690728 -0.169099)
(2.24892 -0.0689272 -0.169099)
(2.24892 -0.068782 -0.169099)
(2.24876 -0.0702507 -0.169094)
(2.24892 -0.0703222 -0.169099)
(2.24892 -0.0702481 -0.169099)
(2.24892 -0.0701741 -0.169099)
(2.24892 -0.0701001 -0.169099)
(2.24892 -0.0700262 -0.169099)
(2.24892 -0.0699524 -0.169099)
(2.24892 -0.0698787 -0.169099)
(2.24892 -0.069805 -0.169099)
(2.24892 -0.0697315 -0.169099)
(2.24872 -0.0703996 -0.169093)
(2.24892 -0.0704459 -0.169099)
(2.24892 -0.0703964 -0.169099)
(2.24892 -0.070347 -0.169099)
(2.24892 -0.0702975 -0.169099)
(2.24892 -0.0702481 -0.169099)
(2.24892 -0.0701988 -0.169099)
(2.24892 -0.0701494 -0.169099)
(2.24892 -0.0701001 -0.169099)
(2.24892 -0.0700509 -0.169099)
(2.24867 -0.0704746 -0.169092)
(2.24892 -0.0705078 -0.169099)
(2.24892 -0.0704707 -0.169099)
(2.24892 -0.0704336 -0.169099)
(2.24892 -0.0703964 -0.169099)
(2.24892 -0.0703593 -0.169099)
(2.24892 -0.0703223 -0.169099)
(2.24892 -0.0702852 -0.169099)
(2.24892 -0.0702481 -0.169099)
(2.24892 -0.0702104 -0.169098)
(2.24884 -0.0696591 -0.169097)
(2.24892 -0.0698048 -0.169099)
(2.24892 -0.0696579 -0.169099)
(2.24892 -0.0695111 -0.169099)
(2.24892 -0.0693647 -0.169099)
(2.24892 -0.0692186 -0.169099)
(2.24892 -0.0690728 -0.169099)
(2.24892 -0.0689272 -0.169099)
(2.24892 -0.068782 -0.169099)
(2.24892 -0.0686371 -0.169099)
(2.24882 -0.0701756 -0.169096)
(2.24892 -0.070248 -0.169099)
(2.24892 -0.070174 -0.169099)
(2.24892 -0.0701001 -0.169099)
(2.24892 -0.0700262 -0.169099)
(2.24892 -0.0699524 -0.169099)
(2.24892 -0.0698787 -0.169099)
(2.24892 -0.069805 -0.169099)
(2.24892 -0.0697315 -0.169099)
(2.24892 -0.069658 -0.169099)
(2.2488 -0.0703489 -0.169095)
(2.24892 -0.0703963 -0.169099)
(2.24892 -0.0703469 -0.169099)
(2.24892 -0.0702975 -0.169099)
(2.24892 -0.0702481 -0.169099)
(2.24892 -0.0701988 -0.169099)
(2.24892 -0.0701494 -0.169099)
(2.24892 -0.0701001 -0.169099)
(2.24892 -0.0700509 -0.169099)
(2.24884 -0.0699968 -0.169091)
(2.24877 -0.0704359 -0.169095)
(2.24892 -0.0704706 -0.169099)
(2.24892 -0.0704335 -0.169099)
(2.24892 -0.0703964 -0.169099)
(2.24892 -0.0703593 -0.169099)
(2.24892 -0.0703222 -0.169099)
(2.24892 -0.0702852 -0.169099)
(2.24892 -0.0702481 -0.169099)
(2.24892 -0.0702111 -0.169099)
(2.24863 -0.0701574 -0.169072)
(2.24885 -0.0695121 -0.169097)
(2.24892 -0.0696577 -0.169099)
(2.24892 -0.0695111 -0.169099)
(2.24892 -0.0693647 -0.169099)
(2.24892 -0.0692185 -0.169099)
(2.24892 -0.0690727 -0.169099)
(2.24892 -0.0689272 -0.169099)
(2.24892 -0.068782 -0.169099)
(2.24892 -0.0686371 -0.169099)
(2.24892 -0.0684925 -0.169099)
(2.24884 -0.0701013 -0.169096)
(2.24892 -0.0701739 -0.169099)
(2.24892 -0.0701 -0.169099)
(2.24892 -0.0700262 -0.169099)
(2.24892 -0.0699524 -0.169099)
(2.24892 -0.0698787 -0.169099)
(2.24892 -0.069805 -0.169099)
(2.24892 -0.0697315 -0.169099)
(2.24892 -0.069658 -0.169099)
(2.24836 -0.069553 -0.169048)
(2.24882 -0.070299 -0.169096)
(2.24892 -0.0703468 -0.169099)
(2.24892 -0.0702975 -0.169099)
(2.24892 -0.0702481 -0.169099)
(2.24892 -0.0701987 -0.169099)
(2.24892 -0.0701494 -0.169099)
(2.24892 -0.0701001 -0.169099)
(2.24892 -0.0700509 -0.169099)
(2.24875 -0.0699919 -0.169083)
(0.13273 0.0493485 0.0220748)
(2.2488 -0.0703982 -0.169095)
(2.24892 -0.0704335 -0.169099)
(2.24892 -0.0703964 -0.169099)
(2.24892 -0.0703593 -0.169099)
(2.24892 -0.0703222 -0.169099)
(2.24892 -0.0702852 -0.169099)
(2.24892 -0.0702481 -0.169099)
(2.24892 -0.0702111 -0.169099)
(2.24834 -0.0701414 -0.169046)
(-1.44489 0.138199 0.1646)
(2.24886 -0.0693653 -0.168748)
(2.24892 -0.0695107 -0.168785)
(2.24892 -0.0693644 -0.16875)
(2.24892 -0.0692183 -0.168715)
(2.24892 -0.0690725 -0.168681)
(2.24892 -0.068927 -0.168646)
(2.24892 -0.0687818 -0.168611)
(2.24892 -0.0686369 -0.168576)
(2.24892 -0.0684923 -0.168542)
(2.24892 -0.0683479 -0.168507)
(2.24885 -0.0700272 -0.168713)
(2.24892 -0.0700998 -0.16875)
(2.24892 -0.070026 -0.168716)
(2.24892 -0.0699523 -0.168681)
(2.24892 -0.0698786 -0.168646)
(2.24892 -0.0698049 -0.168611)
(2.24892 -0.0697313 -0.168577)
(2.24892 -0.0696578 -0.168542)
(2.24892 -0.0695844 -0.168507)
(2.24704 -0.0694052 -0.168304)
(2.24883 -0.0702493 -0.168678)
(2.24892 -0.0702973 -0.168716)
(2.24892 -0.070248 -0.168681)
(2.24892 -0.0701986 -0.168646)
(2.24892 -0.0701493 -0.168611)
(2.24892 -0.0701 -0.168577)
(2.24892 -0.0700508 -0.168542)
(2.24892 -0.0700015 -0.168507)
(2.24834 -0.0699196 -0.16842)
(-1.44551 0.138321 0.163127)
(2.24882 -0.0703608 -0.168643)
(2.24892 -0.0703962 -0.168681)
(2.24892 -0.0703592 -0.168646)
(2.24892 -0.0703222 -0.168611)
(2.24892 -0.0702851 -0.168577)
(2.24892 -0.0702481 -0.168542)
(2.24892 -0.070211 -0.168507)
(2.24892 -0.070174 -0.168473)
(2.24704 -0.0700309 -0.168269)
(-2.64865 0.206072 0.270991)
)
;

boundaryField
{
    inlet
    {
        type            calculated;
        value           nonuniform 0();
    }
    outlet
    {
        type            calculated;
        value           nonuniform 0();
    }
    bottom
    {
        type            calculated;
        value           uniform (0 0 0);
    }
    top
    {
        type            symmetryPlane;
    }
    side1
    {
        type            symmetryPlane;
    }
    side2
    {
        type            symmetryPlane;
    }
    procBoundary5to4
    {
        type            processor;
        value           nonuniform List<vector> 
20
(
(0.965134 -0.0904443 -0.136627)
(0.965143 -0.0910185 -0.136627)
(0.965153 -0.0912106 -0.136627)
(0.965164 -0.0913067 -0.136628)
(1.88782 -0.0754511 -0.159964)
(1.88775 -0.0760113 -0.159963)
(1.88768 -0.0761992 -0.159961)
(1.8876 -0.0762935 -0.159959)
(2.03888 -0.0728736 -0.163785)
(2.03884 -0.0734911 -0.163784)
(2.0388 -0.0736978 -0.163783)
(2.03876 -0.0738012 -0.163782)
(2.10083 -0.0717297 -0.165352)
(2.1008 -0.0724133 -0.165351)
(2.10077 -0.0726422 -0.165351)
(2.10074 -0.0727566 -0.16535)
(2.13458 -0.0710394 -0.165834)
(2.13456 -0.0717919 -0.1658)
(2.13453 -0.072044 -0.165766)
(2.13451 -0.0721701 -0.165732)
)
;
    }
    procBoundary5to6
    {
        type            processor;
        value           nonuniform List<vector> 
20
(
(2.24878 -0.0684875 -0.169094)
(2.24876 -0.0695788 -0.169094)
(2.24872 -0.0641277 -0.168302)
(2.24706 1.36501 0.0257043)
(2.24892 -0.0686369 -0.169097)
(2.24892 -0.0696577 -0.169097)
(2.24887 -0.0699985 -0.169093)
(2.23969 -0.0587069 -0.167485)
(2.24892 -0.0684923 -0.169097)
(2.24863 -0.069568 -0.169071)
(0.928852 0.00446727 -0.0498441)
(-0.483583 0.0871352 0.0777794)
(2.24703 -0.0682432 -0.168926)
(-1.59918 0.147139 0.178535)
(-3.63634 0.261832 0.36257)
(-3.63666 0.261841 0.362599)
(2.24259 -0.0678525 -0.167902)
(-2.75486 0.212206 0.280634)
(-3.63666 0.261841 0.35992)
(-3.63671 0.261824 0.359788)
)
;
    }
    procBoundary5to13
    {
        type            processor;
        value           nonuniform List<vector> 
50
(
(1.07897 -0.0894542 -0.139506)
(2.23867 -0.0706783 -0.168838)
(2.24585 -0.0705311 -0.16902)
(2.24746 -0.070474 -0.169061)
(2.24806 -0.0704334 -0.169076)
(2.24833 -0.070398 -0.169083)
(2.24848 -0.0703647 -0.169087)
(2.24857 -0.0703307 -0.169089)
(2.2486 -0.0435498 -0.16546)
(2.24725 1.37069 0.0264675)
(2.24861 -0.0705178 -0.16909)
(2.24892 -0.0705448 -0.169098)
(2.24892 -0.0705151 -0.169097)
(2.24892 -0.0704854 -0.169097)
(2.24892 -0.0704556 -0.169097)
(2.24892 -0.0704259 -0.169097)
(2.24892 -0.0703962 -0.169097)
(2.24892 -0.0703665 -0.169097)
(2.24892 -0.0703353 -0.169097)
(2.24889 -0.0477904 -0.166041)
(2.24872 -0.0704848 -0.169093)
(2.24892 -0.070515 -0.169097)
(2.24892 -0.0704853 -0.169097)
(2.24892 -0.0704556 -0.169097)
(2.24892 -0.0704259 -0.169097)
(2.24892 -0.0703962 -0.169097)
(2.24892 -0.0703665 -0.169097)
(2.24892 -0.0703368 -0.169097)
(2.24892 -0.0703063 -0.169097)
(2.2483 -0.0584278 -0.167438)
(2.24875 -0.0704532 -0.169093)
(2.24892 -0.0704853 -0.169097)
(2.24892 -0.0704556 -0.169097)
(2.24892 -0.0704259 -0.169097)
(2.24892 -0.0703962 -0.169097)
(2.24892 -0.0703665 -0.169097)
(2.24892 -0.0703368 -0.169097)
(2.24892 -0.0703071 -0.169097)
(2.2477 -0.070208 -0.168987)
(-2.23768 0.184749 0.236501)
(2.24876 -0.0704219 -0.168607)
(2.24892 -0.0704554 -0.168645)
(2.24892 -0.0704258 -0.16861)
(2.24892 -0.0703961 -0.168575)
(2.24892 -0.0703664 -0.168541)
(2.24892 -0.0703368 -0.168506)
(2.24892 -0.0703071 -0.168471)
(2.24892 -0.0702774 -0.168436)
(2.24516 -0.0700354 -0.168065)
(-3.05159 0.229318 0.307094)
)
;
    }
}


// ************************************************************************* //
