/*--------------------------------*- C++ -*----------------------------------*\
| =========                 |                                                 |
| \\      /  F ield         | OpenFOAM: The Open Source CFD Toolbox           |
|  \\    /   O peration     | Version:  2.4.0                                 |
|   \\  /    A nd           | Web:      www.OpenFOAM.org                      |
|    \\/     M anipulation  |                                                 |
\*---------------------------------------------------------------------------*/
FoamFile
{
    version     2.0;
    format      ascii;
    class       volScalarField;
    location    "0.01";
    object      alpha;
}
// * * * * * * * * * * * * * * * * * * * * * * * * * * * * * * * * * * * * * //

dimensions      [0 0 0 0 0 0 0];

internalField   nonuniform List<scalar> 
40
(
-1.958e-171
-8.2627e-174
-3.48684e-176
-1.47144e-178
-6.20932e-181
-1.59354e-173
-7.59643e-176
-3.57353e-178
-1.66326e-180
-7.67386e-183
-1.07411e-175
-5.33415e-178
-2.628e-180
-1.28448e-182
-6.22997e-185
-7.63335e-178
-3.784e-180
-1.87409e-182
-9.26373e-185
-4.56645e-187
1.2641e-172
5.29823e-175
2.22056e-177
9.30622e-180
3.89994e-182
7.53511e-175
3.70593e-177
1.7827e-179
8.43273e-182
3.93671e-184
2.17187e-177
1.28498e-179
7.19207e-182
3.87016e-184
2.02197e-186
2.40852e-181
1.30081e-182
1.22996e-184
8.88794e-187
5.69322e-189
)
;

boundaryField
{
    inlet
    {
        type            zeroGradient;
    }
    outlet
    {
        type            zeroGradient;
    }
    bottom
    {
        type            fixedValue;
        value           uniform 0;
    }
    top
    {
        type            symmetryPlane;
    }
    side1
    {
        type            symmetryPlane;
    }
    side2
    {
        type            symmetryPlane;
    }
    procBoundary43to27
    {
        type            processor;
        value           nonuniform List<scalar> 10(6.0556e-156 4.10737e-158 2.55281e-160 1.5006e-162 8.47959e-165 3.76637e-157 1.84511e-159 9.00198e-162 4.37861e-164 2.125e-166);
    }
    procBoundary43to42
    {
        type            processor;
        value           nonuniform List<scalar> 8(4.105e-155 4.32672e-157 2.50353e-159 1.01647e-161 1.0156e-156 7.59778e-159 3.28873e-161 7.0075e-164);
    }
    procBoundary43to44
    {
        type            processor;
        value           uniform 0;
    }
    procBoundary43to59
    {
        type            processor;
        value           nonuniform List<scalar> 10(-1.50428e-194 -6.34805e-197 -2.67886e-199 -1.13047e-201 -4.77048e-204 -2.75642e-196 -1.18887e-198 -5.1253e-201 -2.20854e-203 -9.5125e-206);
    }
    procBoundary43to107
    {
        type            processor;
        value           nonuniform List<scalar> 
20
(
1.44993e-175
6.11615e-178
2.57994e-180
1.08828e-182
4.59054e-185
1.45022e-177
6.76234e-180
3.12459e-182
1.43279e-184
6.52784e-187
1.00104e-179
4.93575e-182
2.41153e-184
1.16834e-186
5.61662e-189
5.81585e-182
2.97376e-184
1.50871e-186
7.59618e-189
3.79648e-191
)
;
    }
}


// ************************************************************************* //
