/*--------------------------------*- C++ -*----------------------------------*\
| =========                 |                                                 |
| \\      /  F ield         | OpenFOAM: The Open Source CFD Toolbox           |
|  \\    /   O peration     | Version:  2.4.0                                 |
|   \\  /    A nd           | Web:      www.OpenFOAM.org                      |
|    \\/     M anipulation  |                                                 |
\*---------------------------------------------------------------------------*/
FoamFile
{
    version     2.0;
    format      ascii;
    class       volScalarField;
    location    "0.01";
    object      nut;
}
// * * * * * * * * * * * * * * * * * * * * * * * * * * * * * * * * * * * * * //

dimensions      [0 2 -1 0 0 0 0];

internalField   nonuniform List<scalar> 
40
(
78709.7
44321.9
29759
32789.3
32378.9
85983.2
48974.5
44817.8
36796.8
39016.2
93173.6
54511
42843.7
47891
65006.6
85820.5
87943.4
85447.2
87262.6
82981.5
19673.5
37748.3
40191.4
12991.9
16138.9
44193.3
35146.4
30591.9
10415.7
17613.1
49344.7
24359.4
5625.62
18203.4
35912.4
29332.8
24739.2
29575.4
55425.5
44454.4
)
;

boundaryField
{
    inlet
    {
        type            calculated;
        value           nonuniform 0();
    }
    outlet
    {
        type            calculated;
        value           nonuniform 0();
    }
    bottom
    {
        type            calculated;
        value           nonuniform List<scalar> 
20
(
9.73026e-20
9.60726e-20
1.10632e-19
1.18322e-19
5.50198e-20
6.58049e-20
9.10398e-20
1.29152e-19
5.46458e-20
7.97213e-20
8.55726e-20
1.38189e-19
5.27309e-20
6.31938e-20
8.40359e-20
1.41512e-19
5.85473e-20
7.00819e-20
9.89174e-20
1.45415e-19
)
;
    }
    top
    {
        type            symmetryPlane;
    }
    side1
    {
        type            symmetryPlane;
    }
    side2
    {
        type            symmetryPlane;
    }
    procBoundary43to27
    {
        type            processor;
        value           nonuniform List<scalar> 10(61224.8 54100.3 42603.2 36997.1 34978.9 26725.3 25113.9 42020.3 32375.4 12343.9);
    }
    procBoundary43to42
    {
        type            processor;
        value           nonuniform List<scalar> 8(62042.6 63810.9 84516.6 78186.5 29259.9 34353.2 64842.8 46436.7);
    }
    procBoundary43to44
    {
        type            processor;
        value           nonuniform List<scalar> 8(41885.1 49750.7 80707.9 77425.8 15509.5 16133.1 26772.3 37373.2);
    }
    procBoundary43to59
    {
        type            processor;
        value           nonuniform List<scalar> 10(95713.8 78140.1 79536.4 71855.3 75050.4 35864.2 44772.6 34724.8 36875.4 31958);
    }
    procBoundary43to107
    {
        type            processor;
        value           nonuniform List<scalar> 
20
(
51284.1
48904.6
53593.2
24047.6
34381.9
67429
62124.9
38966.9
31918.7
19306.3
78229.2
47780.1
28841.9
24781
15937.1
47443.8
30275
37269.3
17100.8
10436.4
)
;
    }
}


// ************************************************************************* //
