/*--------------------------------*- C++ -*----------------------------------*\
| =========                 |                                                 |
| \\      /  F ield         | OpenFOAM: The Open Source CFD Toolbox           |
|  \\    /   O peration     | Version:  2.4.0                                 |
|   \\  /    A nd           | Web:      www.OpenFOAM.org                      |
|    \\/     M anipulation  |                                                 |
\*---------------------------------------------------------------------------*/
FoamFile
{
    version     2.0;
    format      ascii;
    class       Cloud<softParticle>;
    location    "0.04/lagrangian/defaultCloud";
    object      positions;
}
// * * * * * * * * * * * * * * * * * * * * * * * * * * * * * * * * * * * * * //

32
(
(0 0 0) 0
(0 0 0) 0
(0 0 0) 0
(0 0 0) 0
(0 0 0) 0
(0 0 0) 0
(0 0 0) 0
(0 0 0) 0
(0 0 0) 0
(0 0 0) 0
(0 0 0) 0
(0 0 0) 0
(0 0 0) 0
(0 0 0) 0
(0 0 0) 0
(0 0 0) 0
(0 0 0) 0
(0 0 0) 0
(0 0 0) 0
(0 0 0) 0
(0 0 0) 0
(0 0 0) 0
(0 0 0) 0
(0 0 0) 0
(0 0 0) 0
(0.000601051 0.0022786 0.00786968) 130
(0 0 0) 0
(3.90625e-09 1.5625e-09 7.5e-09) 0
(0 0 0) 0
(0 0 0) 0
(3.90625e-09 1.5625e-09 7.5e-09) 0
(7.80626e-18 1.89735e-18 3.11708e-19) 0
)


// ************************************************************************* //
