/*--------------------------------*- C++ -*----------------------------------*\
| =========                 |                                                 |
| \\      /  F ield         | OpenFOAM: The Open Source CFD Toolbox           |
|  \\    /   O peration     | Version:  2.4.0                                 |
|   \\  /    A nd           | Web:      www.OpenFOAM.org                      |
|    \\/     M anipulation  |                                                 |
\*---------------------------------------------------------------------------*/
FoamFile
{
    version     2.0;
    format      ascii;
    class       volSymmTensorField;
    location    "0.14";
    object      B;
}
// * * * * * * * * * * * * * * * * * * * * * * * * * * * * * * * * * * * * * //

dimensions      [0 2 -2 0 0 0 0];

internalField   nonuniform List<symmTensor> 
200
(
(9.4931e+25 -7.11821e+25 -8.05803e+25 -8.49618e+25 -7.77811e+24 1.78059e+26)
(1.42419e+27 2.36897e+26 -7.0737e+25 9.53119e+26 -1.49509e+26 1.13066e+27)
(7.30549e+26 -1.68245e+26 -2.81621e+26 2.15368e+26 -1.85286e+26 4.98194e+26)
(2.2815e+27 2.16021e+24 -6.25906e+25 2.13771e+27 -9.05003e+25 2.19334e+27)
(2.52703e+27 -1.15041e+26 -3.61273e+26 1.57509e+27 -5.73707e+26 9.4741e+26)
(2.77878e+25 -3.72865e+24 9.8822e+24 2.71598e+25 -1.29278e+25 -1.71867e+25)
(6.2468e+27 4.17127e+26 2.63917e+26 7.19026e+27 1.48698e+26 6.21283e+27)
(-1.39669e+25 -4.03522e+25 7.39465e+25 2.1355e+25 1.48102e+25 -2.82349e+24)
(1.56066e+27 6.5377e+25 1.10147e+25 1.49612e+27 -1.08082e+25 1.44397e+27)
(1.76186e+26 6.05432e+25 2.29896e+25 2.04204e+26 -2.16033e+24 1.12449e+26)
(8.83367e+26 1.0613e+26 -4.89573e+25 5.5555e+26 -1.03832e+26 6.97387e+26)
(4.53338e+26 -2.49365e+25 -4.53181e+25 2.95617e+26 -5.3623e+25 3.12329e+26)
(2.71662e+26 4.57417e+24 -6.26733e+24 2.55943e+26 -1.07654e+25 2.65516e+26)
(1.63435e+27 2.23897e+25 -6.86308e+25 1.53237e+27 -5.95113e+25 1.28038e+27)
(1.29044e+25 -2.21243e+25 2.73456e+25 -1.09448e+25 -1.12234e+25 -1.80609e+25)
(2.78869e+27 9.98771e+25 7.05149e+25 3.00498e+27 2.73841e+25 2.75375e+27)
(1.02821e+25 -2.07351e+25 1.79122e+25 -1.9104e+25 1.19988e+25 7.97817e+23)
(4.08425e+26 2.34748e+25 1.29231e+25 3.781e+26 -1.15673e+25 3.53915e+26)
(1.28731e+26 2.32267e+25 2.08657e+25 8.86743e+25 -1.88707e+25 5.49078e+25)
(3.92514e+26 4.39283e+25 2.00863e+25 3.52543e+26 -7.9797e+24 3.2126e+26)
(1.43891e+26 -2.16528e+25 6.42423e+24 1.68678e+26 -4.39796e+25 1.42826e+26)
(2.87417e+26 5.82538e+24 -2.21818e+25 1.70481e+26 -4.72223e+25 2.21414e+26)
(1.30596e+27 1.98099e+25 -1.55325e+25 1.24167e+27 -2.96586e+25 1.18653e+27)
(6.42955e+24 -2.67599e+25 6.35914e+25 -7.67779e+25 -2.50318e+25 -9.04447e+24)
(5.70461e+26 3.56272e+25 2.45094e+25 6.37379e+26 -1.77502e+25 5.51998e+26)
(-9.67429e+24 2.35604e+24 1.69589e+25 -2.37987e+25 -5.37884e+24 -2.81196e+24)
(1.13074e+26 6.18153e+23 9.34023e+24 7.95993e+25 -2.2464e+25 9.54447e+25)
(9.40795e+25 4.05459e+25 -1.38034e+25 -1.88106e+25 -9.60202e+25 -2.3776e+24)
(3.25679e+26 2.08881e+25 2.25347e+25 2.40719e+26 -2.48626e+25 2.45423e+26)
(1.18975e+26 9.85154e+25 -6.98319e+25 1.4533e+26 -4.01603e+25 1.21566e+26)
(4.23494e+26 -5.85109e+25 -2.2238e+25 3.17027e+26 -5.27444e+25 2.91134e+26)
(4.26951e+26 -3.26136e+24 -7.07206e+24 3.84026e+26 -7.08981e+25 3.51544e+26)
(2.18134e+26 4.82473e+24 8.55713e+25 8.38352e+25 -8.75955e+25 9.96161e+25)
(3.04216e+26 1.66576e+25 1.58684e+25 2.77636e+26 -7.21992e+25 2.48233e+26)
(2.04441e+26 7.21576e+25 9.05176e+25 3.3378e+25 -6.64025e+25 1.15041e+26)
(1.14101e+26 2.35034e+23 1.38436e+25 9.70554e+25 -4.02863e+25 1.29076e+26)
(4.13586e+25 4.95483e+25 -6.65985e+25 2.28202e+26 -1.49778e+26 1.92977e+26)
(2.1163e+26 1.52841e+25 1.6489e+25 1.21183e+26 -4.25622e+25 1.69452e+26)
(9.03975e+25 5.15054e+25 -2.31426e+25 5.5633e+25 -8.36985e+25 5.81191e+25)
(1.75333e+27 1.58396e+26 3.41449e+24 1.42547e+27 -6.42878e+25 1.45113e+27)
(7.86291e+26 5.84744e+25 -6.61144e+24 4.93616e+26 -4.37142e+25 4.90673e+26)
(4.01012e+26 -7.74518e+25 -3.11676e+25 2.2727e+26 8.16071e+24 2.40553e+26)
(7.84615e+26 8.36154e+25 -5.15039e+25 5.06531e+26 -4.48518e+25 5.82e+26)
(1.30009e+27 -1.70227e+26 -1.10322e+26 1.14253e+27 4.3425e+25 1.13343e+27)
(1.06929e+26 -6.58385e+25 -4.11725e+25 -1.97568e+25 1.4142e+25 1.9905e+26)
(2.833e+27 1.49221e+26 4.62547e+25 3.05064e+27 1.26932e+26 2.95436e+27)
(1.22206e+26 -8.17647e+25 9.68381e+23 4.96891e+25 4.92388e+24 2.04782e+26)
(5.19321e+26 4.44439e+25 8.12116e+24 4.89818e+26 1.40664e+25 4.70743e+26)
(2.66901e+25 1.17177e+25 -9.22993e+24 4.63825e+24 2.79144e+24 8.50948e+24)
(9.36173e+25 2.32477e+25 -7.62611e+24 7.80662e+25 2.44771e+25 7.80984e+25)
(1.14401e+26 9.74461e+24 4.67069e+24 3.18173e+25 -7.16694e+23 4.67217e+25)
(3.49645e+26 -2.03571e+25 -1.96166e+25 1.92439e+26 -1.70486e+25 2.38622e+26)
(8.79907e+26 -4.4756e+25 -4.08985e+25 8.33097e+26 3.26877e+25 7.92789e+26)
(1.79843e+26 -5.54607e+25 -3.74287e+25 7.89966e+24 -2.61212e+25 2.13176e+26)
(1.26135e+27 1.03407e+25 2.62229e+24 1.31178e+27 2.99744e+25 1.27843e+27)
(7.78226e+25 -3.40172e+24 -6.63014e+23 3.98843e+24 -2.42921e+25 9.35186e+25)
(2.49817e+26 2.27921e+25 -9.36274e+24 2.09014e+26 2.61711e+25 2.19422e+26)
(1.50144e+26 -2.51275e+23 -4.82999e+25 7.11583e+25 1.90965e+25 1.12292e+26)
(7.68647e+25 8.73165e+24 -5.7668e+24 4.07193e+25 1.99204e+25 5.17275e+25)
(2.85616e+26 8.20198e+25 4.64987e+24 1.57639e+26 -4.95187e+24 1.33886e+26)
(1.81099e+26 -3.8384e+25 -1.51315e+25 7.23957e+25 6.06788e+24 8.06313e+25)
(1.24633e+26 5.45152e+24 -3.45078e+24 6.96696e+25 2.17288e+24 8.4204e+25)
(7.93127e+25 -3.11792e+25 -2.74795e+24 -3.87246e+24 -1.73212e+25 5.38997e+25)
(1.29095e+26 -2.42258e+25 -4.13903e+24 1.28188e+26 1.57212e+25 1.36159e+26)
(2.7233e+25 4.77695e+23 3.60401e+24 1.93238e+25 -1.18811e+25 2.85606e+25)
(1.54337e+26 2.58019e+25 -1.0353e+25 6.61564e+25 2.57695e+25 9.95935e+25)
(1.10603e+26 -9.99237e+23 -1.39016e+25 6.55745e+25 1.26131e+25 8.63682e+25)
(1.12667e+26 6.80473e+23 -1.20117e+25 5.55369e+25 1.48936e+25 8.50133e+25)
(1.87213e+26 7.30856e+25 -1.29787e+26 1.21915e+25 1.13428e+25 9.57348e+25)
(1.06873e+27 2.03215e+25 -4.74067e+25 9.07357e+26 6.76083e+24 9.4205e+26)
(4.91717e+25 1.02299e+24 -3.36274e+24 3.56947e+25 -3.06853e+24 4.17359e+25)
(1.33485e+26 -3.20543e+25 1.1628e+25 5.84814e+25 6.25428e+24 6.65243e+25)
(5.9327e+25 -2.27479e+25 -7.49441e+24 1.92614e+25 1.67046e+24 4.9877e+25)
(6.32817e+25 1.33336e+24 1.54682e+25 4.25342e+25 -2.48553e+25 3.42952e+25)
(6.17754e+25 1.31124e+25 -2.54776e+25 4.73968e+25 2.78452e+24 2.00156e+25)
(1.52906e+25 -2.55929e+24 3.54173e+24 -2.01941e+24 3.06365e+24 4.66935e+24)
(2.15542e+26 -3.64013e+24 -3.73427e+24 1.44276e+26 7.71389e+24 1.65622e+26)
(2.33878e+26 7.32102e+25 -1.81407e+26 1.21046e+26 1.39457e+25 1.95858e+26)
(3.23391e+26 -4.27507e+23 -1.3078e+25 2.44555e+26 2.51405e+24 2.78991e+26)
(7.37994e+25 3.66338e+25 -2.38854e+25 3.2175e+25 -9.45181e+24 7.16917e+25)
(6.89852e+25 2.59043e+25 1.57084e+24 -3.47307e+25 2.78057e+21 -1.51004e+25)
(2.81554e+26 -3.33416e+25 -2.46098e+25 1.35858e+26 4.18253e+23 1.72001e+26)
(7.02403e+26 -4.56559e+25 -8.57713e+24 4.50621e+26 8.59415e+25 6.05007e+26)
(3.49302e+26 -5.05354e+25 -9.56316e+25 -3.90492e+26 -2.28842e+26 3.70345e+26)
(1.05641e+27 2.45166e+25 -3.29418e+25 1.10107e+27 5.0875e+25 1.07868e+27)
(8.65178e+26 -3.22096e+26 -8.97475e+25 -6.34218e+26 -7.69775e+25 7.93945e+26)
(2.65366e+26 2.15897e+25 -5.33328e+24 2.5767e+26 8.76251e+24 2.68523e+26)
(1.28636e+26 4.43203e+25 -5.12079e+25 7.61018e+25 2.31117e+25 1.48637e+26)
(2.83798e+25 3.58984e+24 -4.00848e+24 3.21027e+25 6.49519e+24 5.31035e+25)
(6.33685e+25 -3.52625e+24 -2.88063e+25 4.01872e+25 -1.42454e+25 8.00769e+25)
(7.78934e+25 -2.04407e+25 -8.85104e+24 3.34117e+25 -9.38542e+24 5.68442e+25)
(2.40564e+26 3.67081e+25 -1.06373e+25 9.9807e+25 1.67376e+25 1.3698e+26)
(3.29967e+26 -2.84277e+26 6.29938e+25 1.1642e+26 2.39238e+25 3.37613e+26)
(3.2712e+26 -7.44264e+23 -2.28088e+24 3.18174e+26 4.18591e+24 3.22036e+26)
(1.18223e+27 -7.45241e+26 4.54335e+25 -6.72194e+26 5.68714e+25 9.43241e+26)
(8.25645e+25 8.35538e+24 2.42818e+24 8.01526e+25 8.11328e+24 8.87469e+25)
(1.24065e+27 2.79919e+26 -7.38302e+25 1.25628e+27 3.46514e+25 1.23929e+27)
(5.98568e+25 -1.12817e+25 -2.04994e+25 3.3991e+25 8.43054e+24 7.60831e+25)
(3.77131e+26 -1.52883e+25 -5.49102e+25 2.99848e+26 1.19745e+25 3.79498e+26)
(9.71664e+25 4.03643e+24 -1.52185e+25 5.80009e+25 3.34212e+24 9.12936e+25)
(1.34825e+26 1.39016e+25 -8.58008e+24 5.1296e+25 4.613e+23 1.0065e+26)
(1.22355e+26 -1.34955e+26 3.77856e+25 -1.97424e+25 1.65844e+25 8.6562e+25)
(2.15528e+26 2.05874e+24 -1.15264e+24 1.81546e+26 9.15239e+23 1.95401e+26)
(7.97203e+26 -4.51658e+26 1.12208e+26 3.79136e+26 8.40762e+24 6.22254e+26)
(6.62547e+23 4.023e+23 -1.87138e+24 -1.8753e+24 2.38244e+24 5.07238e+24)
(1.98703e+27 1.7052e+26 -2.46949e+25 2.24582e+27 1.48057e+25 2.05407e+27)
(3.15801e+25 -1.0267e+25 -8.99259e+24 -1.22072e+25 -2.34504e+24 2.51101e+25)
(3.97881e+26 -2.16727e+25 -2.05568e+25 3.08885e+26 1.50135e+25 3.6199e+26)
(1.20765e+26 3.66985e+24 -1.93478e+25 6.58181e+25 5.5836e+24 1.07317e+26)
(2.98155e+26 2.1822e+25 -1.46411e+26 7.49168e+25 2.24698e+25 2.4794e+26)
(1.42301e+26 -4.11121e+25 1.50448e+25 -4.98691e+24 1.0105e+25 6.24669e+25)
(1.62119e+26 1.08319e+25 -3.39578e+24 1.09348e+26 1.34561e+25 1.26399e+26)
(5.30667e+26 -2.17897e+26 7.81912e+25 3.16977e+26 -2.68157e+25 4.45696e+26)
(1.24337e+25 -7.07089e+24 -7.27885e+24 -7.24623e+24 -2.26461e+24 1.26365e+25)
(9.38997e+26 7.41805e+25 1.0307e+25 1.12692e+27 1.75034e+25 1.01482e+27)
(2.98826e+25 -4.75631e+24 -3.35316e+24 -1.49727e+25 -4.05728e+24 1.63125e+25)
(2.45682e+26 -5.55551e+24 -6.0492e+24 1.83154e+26 1.27611e+25 2.09063e+26)
(4.19708e+25 6.98515e+24 -6.25219e+24 1.14041e+25 4.07056e+24 3.45246e+25)
(2.7677e+26 -1.55998e+24 -1.35046e+26 1.51308e+26 1.38543e+25 2.72825e+26)
(2.26495e+26 -5.85091e+24 -1.85892e+25 1.81176e+26 4.70757e+24 2.17676e+26)
(1.74002e+26 5.18591e+25 -4.22135e+25 4.53765e+25 -1.64366e+25 1.13002e+26)
(1.14761e+27 4.06512e+26 1.30241e+26 8.1242e+26 1.56025e+25 1.13135e+27)
(4.92547e+26 -8.99295e+25 4.21259e+25 3.17926e+26 2.30582e+25 4.11342e+26)
(1.09806e+27 -9.20597e+25 -3.04147e+25 9.41261e+26 -6.95438e+24 1.04033e+27)
(1.50014e+26 -4.11913e+25 7.80278e+24 -5.34248e+24 -3.78974e+25 8.23902e+25)
(1.35963e+26 9.90195e+24 3.38214e+24 1.30626e+26 2.62814e+24 1.38059e+26)
(1.85138e+26 9.42609e+25 -5.23796e+25 2.05423e+26 8.05985e+24 2.18818e+26)
(4.62213e+25 2.70292e+24 -2.32607e+24 4.62228e+25 -3.95533e+24 7.47044e+25)
(2.4694e+26 -6.51144e+25 -6.04167e+25 2.98955e+25 1.1976e+25 1.92087e+26)
(7.84521e+25 1.54835e+25 -1.25558e+25 6.81002e+25 -5.8494e+24 8.84476e+25)
(6.20976e+25 3.00334e+25 1.61547e+25 1.1444e+24 2.35231e+25 7.08972e+25)
(1.79188e+26 -1.50734e+24 3.0197e+25 4.4734e+25 -1.57334e+25 1.22155e+26)
(6.39732e+26 -8.30004e+24 -2.43583e+24 3.38975e+26 -7.24675e+24 5.44733e+26)
(4.08665e+26 -8.89756e+25 3.56663e+25 3.34334e+26 4.62125e+24 3.5202e+26)
(1.99971e+25 5.23076e+23 3.50782e+24 2.93506e+25 -1.14407e+25 3.90294e+25)
(3.10403e+26 5.89514e+25 -5.6137e+25 3.92443e+26 6.31683e+25 3.18763e+26)
(3.257e+25 -8.74067e+24 -5.63678e+24 1.78667e+25 -1.02021e+25 3.83508e+25)
(1.61636e+26 -2.32209e+25 6.91732e+24 7.88834e+25 1.99691e+25 1.14377e+26)
(4.44491e+25 9.77932e+24 -5.05571e+24 3.12097e+25 -5.25451e+24 5.12461e+25)
(2.32713e+26 -9.37024e+24 -3.59724e+25 2.23532e+26 -1.50576e+24 2.63584e+26)
(-1.79712e+25 -1.09471e+25 -2.67851e+24 1.00014e+25 -3.02583e+25 4.03159e+25)
(3.19502e+26 -1.01035e+25 -1.0639e+25 3.31828e+26 -1.74383e+25 3.05037e+26)
(3.15023e+26 -4.49805e+25 3.09235e+25 1.117e+26 -4.5099e+24 2.49079e+26)
(9.83963e+25 -4.50056e+24 -2.48326e+24 7.42503e+25 -9.0515e+24 8.73519e+25)
(1.57454e+26 9.56953e+24 -4.09216e+24 2.34581e+26 4.76385e+25 1.73972e+26)
(3.46375e+25 -5.82648e+24 -4.06879e+24 1.89672e+25 -8.02649e+24 2.95431e+25)
(1.6384e+26 -2.33807e+25 2.24894e+25 1.00088e+26 2.42756e+25 1.22387e+26)
(2.20523e+25 3.87566e+23 7.37307e+24 8.50399e+24 -4.77215e+24 2.06539e+25)
(1.26941e+26 -2.10238e+25 -2.38677e+25 1.05865e+26 6.56126e+24 1.35057e+26)
(3.06885e+25 3.56598e+24 -8.57545e+23 2.98076e+25 4.46232e+24 4.85135e+25)
(-4.82133e+23 5.12363e+25 -5.4371e+25 7.98861e+25 3.03692e+24 7.55307e+25)
(3.95429e+26 -8.22163e+25 3.13213e+25 2.38235e+26 -6.17597e+24 3.61755e+26)
(7.5666e+26 -4.04087e+25 8.13964e+24 6.70958e+26 -5.01367e+24 7.08793e+26)
(1.85093e+26 6.44153e+25 1.2096e+25 2.08999e+26 4.23715e+25 2.1402e+26)
(3.39591e+25 6.50705e+24 -5.66573e+24 2.07643e+25 -6.49284e+24 3.08301e+25)
(8.0736e+25 -1.06978e+25 2.53938e+25 6.17161e+25 2.24374e+25 6.71638e+25)
(2.50342e+25 -5.12479e+23 9.11051e+24 1.30333e+25 2.37072e+24 2.40472e+25)
(7.99099e+25 -2.40907e+25 -9.96614e+24 4.93945e+25 1.01005e+25 6.49259e+25)
(2.34506e+25 1.08443e+25 9.16945e+24 2.21348e+25 2.61176e+24 3.32812e+25)
(1.41675e+26 -4.08987e+25 -1.21794e+26 4.33298e+25 2.50732e+25 1.27848e+26)
(2.05199e+26 2.67785e+25 2.08821e+25 1.45415e+26 -6.50112e+24 2.08821e+26)
(1.25607e+26 1.00417e+24 3.22767e+25 3.92441e+25 -4.55611e+24 8.97965e+25)
(2.48887e+26 1.59695e+24 -6.32658e+25 1.26477e+26 -1.04007e+26 1.79396e+26)
(5.48954e+26 -1.03919e+26 -2.63573e+25 4.59392e+26 3.14831e+25 4.93408e+26)
(2.73905e+26 -2.17102e+25 8.83979e+24 1.69466e+26 4.06917e+24 2.62845e+26)
(6.76032e+26 9.94364e+25 -9.52569e+21 8.35435e+26 3.235e+25 7.18069e+26)
(1.18295e+25 3.58057e+24 3.17535e+24 -1.51322e+25 4.3642e+24 3.81425e+25)
(1.1956e+26 9.93118e+25 -2.39283e+24 9.49339e+25 -4.59424e+25 1.05026e+26)
(5.69762e+25 1.22741e+25 -2.68065e+25 7.0466e+25 -3.88182e+24 9.2893e+25)
(3.23339e+26 -6.71697e+25 1.40333e+25 5.32276e+25 2.5055e+25 2.70299e+26)
(2.58151e+25 1.39348e+25 -3.99635e+23 2.22657e+24 -4.76485e+24 3.68779e+25)
(1.65483e+26 5.8743e+25 -7.80091e+21 2.76409e+25 -2.3904e+25 1.57454e+26)
(2.34481e+26 -3.53633e+25 2.3133e+25 1.41081e+26 1.28734e+25 1.78272e+26)
(5.77357e+26 -1.14754e+26 -1.26504e+25 3.60902e+26 -2.63865e+24 4.98963e+26)
(2.56406e+26 2.10847e+25 -4.43545e+24 3.23487e+26 8.22131e+24 2.69077e+26)
(1.32289e+25 3.58727e+25 -6.97925e+24 4.13905e+25 -1.75646e+24 5.6717e+25)
(5.5267e+25 3.11318e+25 -2.7326e+25 1.6902e+25 7.18042e+24 5.33902e+25)
(8.46674e+25 -1.35571e+25 -2.05402e+25 5.08711e+25 7.767e+23 1.03808e+26)
(3.52313e+26 -3.71375e+25 2.75969e+25 2.33937e+26 2.35981e+25 2.96497e+26)
(8.33883e+25 3.20308e+25 2.64587e+25 4.77781e+25 -9.77655e+23 7.42288e+25)
(6.14908e+25 -1.05484e+25 1.79063e+24 5.79398e+25 -8.81501e+24 7.05789e+25)
(1.34327e+26 1.36082e+23 2.1103e+25 7.71767e+25 -1.64537e+24 1.32564e+26)
(2.55644e+26 -2.56736e+25 -2.7324e+22 1.10322e+26 -6.46351e+24 2.09596e+26)
(8.02945e+25 5.88245e+24 4.57279e+24 1.02845e+26 -1.91973e+24 9.36784e+25)
(7.18201e+25 7.49035e+24 -4.38577e+24 9.01013e+25 -4.77674e+23 8.5221e+25)
(2.35537e+25 -3.89348e+24 -1.60895e+24 3.95628e+24 7.97045e+24 2.2157e+25)
(5.28049e+25 -9.88504e+24 -3.97262e+24 3.4366e+25 -1.5022e+24 5.32654e+25)
(1.89759e+26 -4.82882e+24 6.16907e+24 1.57225e+26 7.38839e+24 1.70576e+26)
(8.50487e+25 2.11149e+25 1.57352e+25 4.74159e+25 -4.42464e+24 4.47841e+25)
(7.32623e+25 1.48393e+25 -1.15682e+26 8.05019e+25 1.66955e+25 1.12633e+26)
(2.39455e+26 -2.01596e+25 2.42801e+25 1.26028e+26 1.07368e+25 2.53899e+26)
(5.81562e+26 -2.60262e+25 1.227e+25 5.04078e+26 -1.21764e+25 5.58232e+26)
(1.02511e+26 3.5349e+25 1.19214e+25 1.14093e+26 8.05058e+24 1.30058e+26)
(3.53171e+25 9.3052e+24 -5.55123e+24 5.89957e+25 4.99705e+23 5.65543e+25)
(7.3659e+24 1.52606e+24 1.01716e+25 4.44136e+24 -1.11338e+24 1.3851e+25)
(1.17343e+25 3.5866e+23 -2.14926e+24 4.92213e+24 4.17552e+23 1.38658e+25)
(9.04009e+25 -4.81165e+24 5.48687e+24 5.96465e+25 5.35977e+24 6.40621e+25)
(7.31944e+25 1.37263e+25 8.88931e+24 4.26607e+25 -4.62984e+24 3.69106e+25)
(3.83804e+25 -2.97795e+25 -6.5523e+25 -1.94504e+25 -2.60455e+24 -2.00444e+25)
(8.29494e+25 5.75371e+25 1.0363e+25 7.02806e+25 -4.05853e+25 7.1384e+25)
)
;

boundaryField
{
    inlet
    {
        type            calculated;
        value           nonuniform 0();
    }
    outlet
    {
        type            calculated;
        value           nonuniform 0();
    }
    bottom
    {
        type            calculated;
        value           nonuniform List<symmTensor> 
40
(
(-3.39053e+10 -3.1714e+11 -6.8411e+11 -8.35388e+11 1.43671e+11 1.1516e+12)
(1.07008e+12 6.73472e+11 -1.04276e+12 -1.01015e+12 -1.31379e+12 2.89985e+11)
(-1.548e+11 -3.04162e+11 3.79093e+11 1.93382e+11 -1.26304e+12 -1.97152e+11)
(7.16602e+11 -5.09865e+11 -3.21395e+11 -2.11156e+11 -8.27231e+11 -4.75449e+11)
(1.16844e+12 9.12058e+11 -1.3156e+12 -6.45206e+11 -1.31273e+12 3.83265e+11)
(7.12739e+11 -1.36005e+11 2.8068e+11 -1.47479e+11 -4.17604e+11 -5.8463e+09)
(6.46578e+11 7.76494e+10 -7.44357e+11 -9.12113e+11 -1.29107e+12 -1.04662e+09)
(5.17184e+11 -3.52587e+10 1.55413e+11 5.31171e+10 -1.64126e+12 -4.1342e+11)
(6.11875e+11 -3.558e+11 -4.9087e+11 -4.77614e+11 2.89093e+11 1.2125e+12)
(2.58258e+11 3.93747e+11 -1.07511e+12 -1.09488e+12 -1.94306e+12 -5.01994e+11)
(1.22808e+12 2.58064e+11 3.07336e+11 3.90635e+11 -8.37599e+11 -5.70372e+11)
(3.66439e+11 2.86048e+10 5.54741e+11 -4.2979e+11 -1.02016e+12 -6.03073e+11)
(1.42173e+12 4.75642e+10 -2.32553e+12 -1.74434e+12 -3.74059e+12 -9.36011e+11)
(1.23728e+12 1.1812e+11 1.69045e+11 6.99271e+11 -1.48289e+11 -1.20342e+12)
(-1.89186e+11 -2.21319e+11 6.15339e+11 -8.77357e+11 -8.34082e+11 -8.79736e+11)
(3.38822e+11 1.053e+11 4.75984e+11 1.70799e+11 -1.1196e+12 7.62331e+11)
(1.65034e+12 -2.05936e+11 -9.19181e+09 -5.37519e+10 -6.24012e+11 -2.20747e+12)
(-1.6309e+11 -3.62344e+11 4.87948e+11 -5.53682e+11 -1.455e+12 -1.97659e+12)
(1.23164e+11 3.57887e+11 6.61746e+11 7.95375e+11 -6.37383e+11 5.36765e+11)
(3.17639e+11 3.56906e+11 6.26038e+11 -5.28473e+11 -7.60626e+11 -5.0183e+11)
(-1.0045e+11 -8.82033e+10 1.08375e+11 -1.15306e+11 -2.89747e+12 -3.27255e+12)
(-3.94891e+10 9.45129e+11 1.13823e+12 2.00729e+12 1.19103e+11 -4.26613e+11)
(-1.75828e+11 3.11967e+10 3.78755e+11 -3.62852e+11 -4.36656e+11 -5.76796e+11)
(5.85296e+10 2.37973e+09 6.44831e+11 -1.1406e+11 -8.44309e+11 1.58692e+12)
(-7.58638e+11 1.79313e+12 1.79864e+12 3.29705e+12 6.92752e+11 -2.12134e+12)
(-1.29737e+11 -3.37153e+11 3.12603e+11 -6.07556e+11 -3.1394e+11 -7.73384e+11)
(2.94324e+11 9.07387e+09 4.14003e+11 -1.97054e+11 -8.22148e+11 8.6e+11)
(-3.18956e+11 1.50427e+11 -1.99314e+10 2.48295e+11 -9.61561e+11 -4.74782e+11)
(-5.96273e+11 -3.78728e+11 2.75686e+11 -2.64758e+11 -5.50319e+11 -9.32557e+11)
(6.7296e+11 4.30416e+11 5.8005e+11 1.16938e+11 -5.62691e+11 -2.64671e+10)
(1.8484e+11 1.44173e+11 1.79094e+11 -2.16573e+11 -7.71821e+11 -6.18481e+11)
(4.57968e+11 1.58868e+11 4.26443e+11 -4.82166e+11 -8.78939e+11 7.05126e+11)
(1.27267e+12 9.93314e+11 4.62068e+11 2.92058e+11 -4.46021e+11 -4.31564e+11)
(3.84861e+11 2.8294e+11 5.3879e+11 -1.0309e+11 -6.57854e+11 -7.62923e+11)
(6.90247e+11 2.19669e+11 5.39209e+11 -2.03223e+11 -5.77533e+11 2.242e+11)
(7.01937e+09 3.46254e+11 2.15777e+11 -2.26691e+11 -1.05055e+12 -4.95332e+11)
(4.53489e+10 6.06249e+11 3.85446e+11 3.25904e+11 -5.29768e+11 -1.00231e+12)
(5.90806e+11 5.59694e+11 7.36302e+11 8.15406e+10 -2.26677e+11 -1.12354e+11)
(-4.26301e+11 8.49696e+11 -9.35025e+10 -1.98987e+11 -7.04612e+11 -6.35966e+11)
(1.57784e+12 9.84606e+11 1.48987e+11 -4.60189e+11 -5.72347e+11 -3.0297e+11)
)
;
    }
    top
    {
        type            symmetryPlane;
    }
    side1
    {
        type            symmetryPlane;
    }
    side2
    {
        type            symmetryPlane;
    }
    procBoundary11to3
    {
        type            processor;
        value           nonuniform List<symmTensor> 
50
(
(1.14933e+26 2.2966e+26 -4.39868e+25 -1.28043e+25 1.565e+25 3.42766e+25)
(-1.07038e+26 -1.32601e+26 -4.70931e+25 -1.25116e+26 5.52967e+24 1.00867e+26)
(-6.10765e+25 1.20555e+27 1.21769e+27 -2.17441e+26 -4.39253e+26 1.38854e+26)
(4.77993e+25 -7.85489e+25 -3.63616e+26 -5.06354e+26 -1.21369e+26 8.488e+26)
(5.1004e+26 -7.81389e+25 -6.31712e+26 -5.18864e+26 -6.24725e+26 -5.16808e+25)
(2.5846e+27 -6.65304e+26 -1.20892e+27 -1.78103e+26 -1.1912e+27 -1.10006e+27)
(-1.2003e+25 2.70583e+24 6.72297e+24 4.01369e+25 -1.05148e+25 -3.52358e+25)
(-1.07396e+27 1.20314e+27 6.5446e+26 2.17547e+27 3.88674e+26 -4.16765e+26)
(-1.84881e+26 -3.90548e+25 4.19919e+25 6.37933e+25 7.31755e+24 -9.48631e+25)
(1.6777e+26 1.18026e+26 -7.69038e+24 1.12701e+25 -2.39447e+25 -7.78304e+25)
(5.47335e+25 4.43903e+25 4.01794e+25 -1.24159e+25 -4.12054e+24 -2.95722e+25)
(3.3753e+26 1.80908e+26 1.95339e+25 -1.01279e+26 -4.00438e+25 -1.18285e+26)
(1.66107e+26 -2.26961e+26 -2.69177e+24 -2.84183e+26 -6.93322e+25 -2.6903e+25)
(1.01735e+26 4.45539e+25 -1.71955e+25 -4.6517e+25 -8.94549e+25 -1.32351e+26)
(4.95006e+26 -1.92493e+26 -1.84437e+26 -1.56897e+26 -4.98285e+25 -8.52594e+25)
(-1.01631e+25 -3.58616e+25 -2.50495e+25 -6.1421e+25 2.90555e+24 3.14028e+25)
(-3.18719e+26 1.41943e+26 7.99739e+25 3.12231e+26 2.67404e+26 1.4428e+26)
(-7.14502e+25 -9.5634e+25 -2.58403e+24 -9.20431e+25 1.39502e+25 3.70521e+25)
(1.14681e+26 5.84375e+25 2.06962e+24 -3.58637e+25 2.11742e+25 -1.49419e+25)
(-2.87309e+24 3.56984e+25 1.37225e+25 -2.50583e+25 1.01249e+25 -7.08305e+23)
(6.85199e+25 9.98337e+24 -2.18622e+25 -1.25823e+25 -2.06666e+24 -1.95914e+25)
(1.74365e+26 5.84435e+25 1.18744e+26 -2.43762e+26 2.90823e+25 -3.16548e+25)
(1.98755e+26 2.01543e+25 1.00481e+26 -5.66047e+25 -5.44588e+25 -4.84008e+25)
(7.92923e+25 -2.50457e+26 -1.68316e+26 1.81371e+25 6.04044e+25 9.29938e+25)
(-5.65667e+25 -5.74511e+25 -2.0724e+26 -1.07064e+26 -1.2824e+26 7.08106e+25)
(-4.1598e+25 1.10024e+26 -4.4291e+25 1.29168e+26 7.00842e+25 7.31752e+25)
(5.61175e+24 -3.94433e+24 -2.3156e+25 -8.97704e+25 -1.97832e+25 2.69066e+25)
(6.22552e+25 2.95158e+25 -5.75465e+23 -4.52579e+25 2.90109e+24 1.82824e+25)
(5.12725e+24 -1.15688e+25 -3.24758e+25 -6.44627e+25 2.31362e+24 4.60755e+25)
(-1.0577e+25 6.76659e+24 1.36462e+24 -1.11086e+25 4.22365e+24 2.00457e+25)
(1.20596e+26 2.62421e+26 1.33128e+26 -3.43181e+26 9.36453e+24 8.21603e+25)
(8.88615e+25 2.33684e+24 -3.01273e+25 -2.61105e+25 -1.95845e+25 1.91344e+25)
(-1.14156e+26 2.15889e+26 2.19241e+26 -1.36468e+26 -3.61416e+24 -2.28605e+25)
(-5.1404e+23 -2.12657e+25 9.05902e+24 -1.22475e+25 -1.0182e+25 -1.02193e+25)
(1.27509e+26 -1.76934e+26 -1.05393e+26 -1.46842e+25 3.07051e+25 -1.50503e+25)
(1.76163e+25 4.67476e+25 -1.2923e+25 -8.19261e+25 -3.69754e+25 -9.35175e+24)
(5.83032e+25 2.52088e+25 2.1078e+25 -5.15366e+25 1.04773e+25 3.42795e+25)
(-7.04849e+24 3.24423e+25 -1.14528e+25 -2.97302e+25 -1.63272e+25 1.10203e+25)
(-3.56112e+25 1.25221e+25 -2.36076e+23 1.37658e+25 -2.15609e+25 4.79805e+25)
(6.83775e+25 -7.66432e+25 -1.3458e+26 -1.48827e+26 -2.34292e+25 5.35154e+25)
(3.38633e+25 -8.9797e+23 1.39349e+24 -1.65183e+25 4.58485e+24 1.35545e+25)
(4.12391e+25 2.77262e+25 1.28658e+25 -1.0226e+26 -6.76795e+25 2.12846e+25)
(3.6282e+25 -7.10167e+25 3.60379e+24 -4.0634e+24 9.44832e+24 3.09898e+25)
(3.49532e+25 -1.45904e+24 -7.28688e+25 -2.00091e+25 -8.52418e+25 -2.90238e+25)
(7.63506e+25 -1.55569e+26 -1.06291e+26 -1.13624e+26 8.06409e+25 1.12337e+26)
(1.41121e+25 -1.78276e+25 4.0029e+25 -7.88085e+25 7.41265e+23 3.14896e+25)
(-1.39279e+26 2.04667e+26 3.80796e+25 2.51587e+26 4.75085e+25 1.8814e+24)
(3.73891e+24 -2.40042e+25 9.80691e+24 -8.21901e+25 6.25503e+24 2.88192e+25)
(5.92988e+25 8.06488e+25 1.50891e+25 -6.54773e+24 -5.36076e+25 -4.00523e+25)
(-2.84674e+25 4.18851e+25 -5.19663e+25 1.14753e+25 -1.17429e+25 1.51616e+25)
)
;
    }
    procBoundary11to10
    {
        type            processor;
        value           nonuniform List<symmTensor> 
20
(
(4.99646e+25 1.25037e+26 -2.52307e+25 -1.04694e+26 -5.99252e+25 1.68386e+25)
(-2.49476e+25 -2.03823e+25 -1.08198e+25 -4.58689e+24 -4.17211e+25 -2.19156e+24)
(1.50366e+26 -6.32786e+25 -3.00137e+25 -3.80133e+25 -4.26949e+25 -4.80382e+25)
(8.30054e+25 1.3042e+25 -2.90736e+25 -6.51328e+25 -5.99194e+25 -2.16313e+25)
(2.96599e+25 1.86329e+25 2.25368e+25 -1.32515e+25 5.35819e+23 -3.28504e+25)
(4.52233e+25 -1.86196e+25 2.18121e+24 -2.21265e+25 -1.41394e+24 -1.87601e+25)
(1.79101e+25 -1.21668e+24 -4.25657e+24 -1.54247e+25 -6.69157e+24 -5.78766e+23)
(3.71145e+25 -1.46868e+25 -5.00934e+23 -2.41086e+25 2.28672e+24 -2.21357e+25)
(2.02886e+25 7.95744e+23 -1.35928e+25 5.09371e+24 -1.50421e+25 -3.88641e+24)
(1.5025e+25 -4.93697e+24 -1.63291e+25 -1.42663e+25 5.38006e+24 -6.57593e+24)
(3.60008e+25 -1.06914e+25 4.59129e+24 -4.65353e+25 -8.29991e+24 -1.00229e+24)
(5.74365e+24 -1.23372e+24 -1.87605e+24 -5.02749e+24 1.35768e+24 1.48116e+24)
(4.63673e+25 5.11238e+25 5.72388e+24 -5.68467e+25 2.71451e+25 2.85181e+25)
(-3.05628e+25 -1.58081e+25 5.94325e+24 -1.0024e+24 -3.49646e+25 1.01554e+25)
(-6.26845e+23 -7.27524e+25 5.92885e+24 1.28997e+25 6.53445e+24 7.67179e+24)
(1.10497e+25 3.29902e+25 -2.01996e+25 -4.88483e+25 -1.30082e+25 2.15485e+25)
(7.62105e+24 1.65502e+25 -2.63429e+24 -2.36132e+25 -3.06722e+24 1.46736e+25)
(2.71437e+22 1.75324e+25 1.26001e+25 -2.1884e+25 -3.51492e+24 2.17471e+25)
(-2.18788e+25 1.11763e+24 -6.80769e+24 -6.91168e+24 -1.28256e+25 2.45562e+25)
(-1.68176e+25 2.57191e+25 -1.34389e+25 -1.68833e+25 -1.7114e+25 2.94492e+25)
)
;
    }
    procBoundary11to12
    {
        type            processor;
        value           nonuniform List<symmTensor> 
20
(
(4.91507e+25 1.06926e+26 1.91036e+25 2.70263e+25 -2.32386e+24 -5.66509e+25)
(-1.32833e+26 6.61761e+25 -4.12247e+25 7.49835e+25 -5.09574e+25 -5.62975e+25)
(4.50409e+26 2.11435e+26 8.0915e+24 4.36384e+25 -2.95573e+24 -1.56335e+26)
(-1.19027e+24 2.61659e+24 -7.16713e+25 -3.56257e+25 -8.95654e+24 -1.68122e+25)
(-1.54703e+24 5.69998e+25 6.45613e+24 5.83682e+23 -1.8902e+24 -2.40548e+25)
(5.62295e+25 5.37061e+25 -3.48575e+25 -1.84792e+25 -1.6114e+24 -5.60458e+24)
(-2.13516e+26 3.29559e+26 -1.65464e+26 -6.23406e+25 -5.93711e+25 3.39e+25)
(1.94173e+26 1.30679e+26 -1.86552e+26 -8.96787e+25 -1.96973e+25 9.47051e+24)
(3.86676e+24 1.0334e+25 -1.66716e+25 -1.26867e+25 3.00913e+23 1.58715e+25)
(3.32078e+25 5.01344e+25 -4.56398e+25 -5.81682e+25 -2.33937e+25 -2.19376e+25)
(4.57508e+25 1.55643e+25 -4.1858e+25 -3.81487e+25 4.71504e+24 3.01127e+25)
(5.52442e+24 6.51548e+24 -4.75325e+25 -5.36582e+25 -2.36447e+25 8.20075e+24)
(-1.99879e+25 -1.60647e+24 -5.43552e+25 -2.64082e+25 -1.67616e+25 3.08094e+25)
(-1.90237e+25 1.96838e+25 -2.92441e+24 -1.08942e+25 8.00412e+24 4.04251e+25)
(-3.13518e+24 -1.05372e+25 -7.75212e+25 -8.75053e+25 4.71458e+25 1.2256e+25)
(2.94512e+25 -1.1646e+25 -2.29475e+25 -3.39814e+25 2.18989e+23 1.82327e+25)
(-2.47691e+24 2.48731e+25 9.25773e+24 -9.64359e+24 3.80741e+24 2.18704e+25)
(-3.11186e+25 9.23329e+24 -6.17313e+25 -1.0409e+24 -1.4238e+24 3.50812e+25)
(-4.06876e+25 7.36937e+25 5.19735e+25 7.71562e+24 -2.14352e+25 4.90249e+25)
(-1.29498e+26 1.76892e+26 -3.12284e+26 1.3031e+26 -3.44093e+25 3.68861e+25)
)
;
    }
    procBoundary11to19
    {
        type            processor;
        value           nonuniform List<symmTensor> 
50
(
(6.21166e+25 8.6428e+24 -2.40947e+25 -3.18589e+25 -8.29125e+25 -3.77125e+25)
(1.03447e+26 4.52033e+23 4.78541e+24 -6.61357e+24 -1.11206e+26 -7.76121e+25)
(6.26391e+25 1.02002e+25 2.44169e+25 -2.78767e+25 -7.93628e+25 -3.58378e+25)
(9.15702e+25 6.8088e+24 1.33931e+26 -1.08698e+26 -1.10865e+26 -2.37275e+25)
(4.39921e+25 2.78727e+24 -2.77115e+24 -2.90845e+25 -5.56663e+25 1.84e+25)
(5.98974e+25 1.94105e+26 4.17892e+25 -1.61151e+26 -5.09105e+25 3.76768e+25)
(1.02665e+25 -4.57259e+25 2.61126e+25 -1.06802e+25 -4.90145e+25 3.93701e+25)
(-4.90067e+25 -3.30345e+25 -8.41731e+25 6.10898e+25 -1.36198e+26 2.49523e+25)
(8.94819e+25 1.8105e+25 1.83899e+25 -4.44834e+25 -5.65414e+25 -1.57339e+25)
(4.50983e+23 1.27963e+25 -8.4768e+25 -4.45825e+25 -5.71213e+25 -3.07101e+25)
(4.62959e+25 -1.00078e+25 4.10713e+24 -1.85429e+25 2.99498e+24 -2.64236e+25)
(-6.5034e+24 9.5562e+24 -9.14439e+24 -5.34958e+24 -6.50631e+24 2.9062e+24)
(4.58884e+25 1.08312e+25 3.05401e+25 -2.8091e+25 -1.50988e+25 -1.3477e+25)
(-1.4076e+25 -1.71357e+24 -1.99242e+25 1.03351e+26 -5.0102e+25 -2.97006e+25)
(-3.48982e+24 -1.53787e+25 2.64213e+25 -2.62162e+25 1.8574e+25 -1.69961e+25)
(4.28773e+25 -2.50316e+24 2.48534e+24 -1.42291e+25 3.83552e+23 -3.38467e+24)
(1.06615e+26 4.76291e+25 -6.01977e+25 -1.01865e+26 -7.38764e+24 -4.01154e+25)
(1.81443e+25 -6.65093e+24 -1.34369e+25 -1.70023e+25 6.75315e+24 1.6707e+24)
(-1.65144e+25 1.45728e+25 -1.12117e+26 8.8796e+24 -2.13115e+25 8.39484e+24)
(7.2014e+25 -2.0871e+25 -6.43289e+25 -4.52824e+25 1.10466e+24 -2.58463e+24)
(1.65634e+25 1.74223e+25 -2.48629e+24 -1.91563e+25 4.2445e+24 8.7737e+24)
(4.32135e+25 -8.44486e+25 4.00037e+25 -3.4124e+25 -1.24034e+25 6.97699e+24)
(2.72488e+25 8.86838e+24 5.21598e+24 -3.59674e+25 -1.71829e+25 2.37137e+25)
(-2.41539e+25 1.49191e+25 1.37563e+25 2.49817e+25 7.09991e+24 2.61795e+24)
(2.04114e+25 2.12892e+24 2.44e+23 -2.80185e+25 -2.71141e+24 2.55316e+24)
(2.22382e+25 9.34126e+23 -3.41026e+24 -1.51785e+25 1.12115e+25 -2.52564e+24)
(7.71578e+24 9.24813e+24 2.52375e+24 -6.42139e+24 3.36254e+24 2.0152e+24)
(3.78064e+25 1.00709e+24 -7.6378e+25 -2.28323e+25 -5.13831e+24 -2.75581e+24)
(3.91635e+24 -9.58072e+24 -1.68019e+25 -1.24343e+25 9.13246e+24 1.07349e+25)
(-3.62439e+24 -3.65749e+24 -4.55079e+25 -7.1141e+23 -8.75461e+24 3.92331e+24)
(4.81764e+25 -2.15856e+25 1.19336e+25 -4.8527e+25 -2.67984e+24 2.42829e+25)
(1.30307e+26 -8.76814e+25 4.4029e+25 -3.1338e+26 1.30009e+25 5.75872e+25)
(-4.36805e+25 4.45119e+25 2.29124e+25 2.29566e+25 3.49649e+25 1.36292e+25)
(-4.98118e+24 6.45386e+25 -2.43966e+25 -2.13276e+23 -3.59992e+24 5.69666e+24)
(-2.16003e+23 1.32649e+25 2.26672e+25 -7.15622e+24 1.63141e+25 -5.7092e+24)
(6.98418e+24 2.08648e+24 8.22618e+24 -6.08453e+24 7.29201e+24 5.62511e+24)
(6.41874e+24 -8.91648e+24 -1.60431e+24 -1.12922e+25 6.54731e+24 -2.96663e+24)
(-1.10435e+24 1.29579e+25 3.79613e+24 6.91815e+23 2.12533e+24 3.10533e+24)
(7.27946e+24 -4.07999e+25 -8.81817e+25 -1.8383e+25 -1.00536e+24 -2.27215e+25)
(7.91648e+24 -1.04233e+25 -1.38668e+25 -1.19119e+25 -2.89772e+24 6.42689e+24)
(5.82962e+25 -5.10139e+25 4.36774e+25 -1.31494e+26 -1.84643e+25 2.68226e+25)