/*--------------------------------*- C++ -*----------------------------------*\
| =========                 |                                                 |
| \\      /  F ield         | OpenFOAM: The Open Source CFD Toolbox           |
|  \\    /   O peration     | Version:  2.4.0                                 |
|   \\  /    A nd           | Web:      www.OpenFOAM.org                      |
|    \\/     M anipulation  |                                                 |
\*---------------------------------------------------------------------------*/
FoamFile
{
    version     2.0;
    format      ascii;
    class       volScalarField;
    location    "0.01";
    object      alpha;
}
// * * * * * * * * * * * * * * * * * * * * * * * * * * * * * * * * * * * * * //

dimensions      [0 0 0 0 0 0 0];

internalField   nonuniform List<scalar> 
60
(
1.19131e-198
5.02522e-201
2.11976e-203
8.94164e-206
3.77173e-208
2.01006e-200
9.00885e-203
4.02369e-205
1.79158e-207
7.95493e-210
1.80175e-202
8.55027e-205
4.03103e-207
1.88932e-209
8.80833e-212
1.14575e-204
5.74077e-207
2.84969e-209
1.40279e-211
6.85327e-214
6.37981e-201
2.89816e-203
1.30983e-205
5.89353e-208
2.64136e-210
1.15923e-202
5.56665e-205
2.65203e-207
1.25464e-209
5.89851e-212
1.11331e-204
5.63548e-207
2.8229e-209
1.40091e-211
6.89411e-214
7.55398e-207
4.02146e-209
2.11366e-211
1.09827e-213
5.64794e-216
1.97434e-202
8.4511e-205
3.62032e-207
1.55206e-209
6.65837e-212
1.46298e-204
7.29475e-207
3.5696e-209
1.72181e-211
8.21138e-214
7.50935e-207
4.17076e-209
2.25298e-211
1.19013e-213
6.17263e-216
3.58556e-209
2.12107e-211
1.22117e-213
6.86872e-216
3.78647e-218
)
;

boundaryField
{
    inlet
    {
        type            zeroGradient;
    }
    outlet
    {
        type            zeroGradient;
    }
    bottom
    {
        type            fixedValue;
        value           nonuniform 0();
    }
    top
    {
        type            symmetryPlane;
    }
    side1
    {
        type            symmetryPlane;
    }
    side2
    {
        type            symmetryPlane;
    }
    procBoundary123to59
    {
        type            processor;
        value           nonuniform List<scalar> 
20
(
-2.75642e-196
-1.18887e-198
-5.1253e-201
-2.20854e-203
-9.5125e-206
-4.75526e-198
-2.17816e-200
-9.93803e-203
-4.51834e-205
-2.04769e-207
-4.35604e-200
-2.11171e-202
-1.01658e-204
-4.86312e-207
-2.31321e-209
-2.8298e-202
-1.44781e-204
-7.3355e-207
-3.68416e-209
-1.83566e-211
)
;
    }
    procBoundary123to107
    {
        type            processor;
        value           nonuniform List<scalar> 
15
(
5.81585e-182
2.97376e-184
1.50871e-186
7.59618e-189
3.79648e-191
4.51981e-184
2.42117e-186
1.28458e-188
6.75276e-191
3.51841e-193
1.89179e-186
1.06146e-188
5.88648e-191
3.22818e-193
1.75165e-195
)
;
    }
    procBoundary123to122
    {
        type            processor;
        value           nonuniform List<scalar> 
12
(
4.42858e-182
1.29125e-184
3.44552e-187
1.18611e-189
4.38076e-184
2.01875e-186
8.57304e-189
3.49962e-191
1.9968e-186
1.07791e-188
5.20179e-191
2.29422e-193
)
;
    }
    procBoundary123to124
    {
        type            processor;
        value           uniform 0;
    }
}


// ************************************************************************* //
