/*--------------------------------*- C++ -*----------------------------------*\
| =========                 |                                                 |
| \\      /  F ield         | OpenFOAM: The Open Source CFD Toolbox           |
|  \\    /   O peration     | Version:  2.4.0                                 |
|   \\  /    A nd           | Web:      www.OpenFOAM.org                      |
|    \\/     M anipulation  |                                                 |
\*---------------------------------------------------------------------------*/
FoamFile
{
    version     2.0;
    format      ascii;
    class       volVectorField;
    location    "0.16";
    object      U;
}
// * * * * * * * * * * * * * * * * * * * * * * * * * * * * * * * * * * * * * //

dimensions      [0 1 -1 0 0 0 0];

internalField   nonuniform List<vector> 
200
(
(5.23236e+14 -7.07914e+14 7.22895e+14)
(-7.17482e+14 -2.67882e+15 -7.48572e+14)
(3.59352e+14 -9.37053e+14 6.59176e+14)
(-1.11103e+15 -1.85278e+15 -2.49854e+14)
(-4.06629e+13 -6.11199e+14 8.58381e+14)
(-1.6863e+15 -1.25543e+15 2.23614e+14)
(-3.89258e+14 3.49939e+14 2.69299e+14)
(-1.70307e+15 -4.22264e+14 1.52251e+15)
(-1.18769e+14 2.59941e+15 -3.61054e+15)
(-8.00416e+14 7.42279e+14 2.2837e+15)
(-4.63701e+14 -2.48067e+15 -4.94414e+14)
(2.29692e+14 -7.15722e+14 5.4209e+14)
(-9.71558e+14 -1.68719e+15 -1.89993e+14)
(-2.67343e+14 -5.90896e+14 6.19803e+14)
(-1.68023e+15 -1.06857e+15 1.93587e+14)
(-9.24977e+14 -2.11809e+14 7.98789e+14)
(-2.3178e+15 -1.2251e+15 4.32147e+14)
(-1.1456e+15 -2.70511e+13 1.1035e+15)
(-1.29064e+15 -1.96036e+15 4.87176e+14)
(-4.94909e+14 9.68728e+14 5.97128e+14)
(1.42222e+14 -4.83722e+14 5.35128e+14)
(-6.10401e+14 -1.53796e+15 -1.18699e+14)
(-2.61878e+14 -4.0554e+14 4.85715e+14)
(-1.42324e+15 -7.93476e+14 1.60087e+14)
(-8.12562e+14 -1.99764e+13 5.99435e+14)
(-2.24841e+15 -1.02095e+15 2.68288e+14)
(-1.05039e+15 1.66409e+14 1.03477e+15)
(-1.17244e+15 -4.44769e+15 1.30722e+14)
(-9.72545e+14 6.04335e+14 5.44162e+14)
(-8.74032e+14 -2.73588e+15 -7.85299e+13)
(-9.88656e+13 -1.58741e+15 2.41873e+14)
(-1.45217e+14 -2.10985e+14 3.91868e+14)
(-1.02857e+15 -5.01015e+14 8.35307e+13)
(-5.22328e+14 1.51893e+14 4.55483e+14)
(-2.08406e+15 -5.78862e+14 1.97953e+14)
(-9.63617e+14 4.44089e+14 9.36326e+14)
(-1.07228e+15 -5.63491e+15 -4.17537e+13)
(-9.05626e+14 3.53621e+14 7.1294e+13)
(-1.27862e+15 -4.10766e+15 -1.88769e+14)
(-9.53951e+14 5.6385e+14 2.54179e+14)
(-7.37153e+14 -2.41838e+15 -8.13146e+14)
(5.9353e+14 -1.01903e+15 5.42035e+14)
(-9.44324e+14 -2.01849e+15 -4.24032e+14)
(3.5743e+14 -9.84387e+14 7.30571e+14)
(-1.12306e+15 -1.73857e+15 -3.33193e+13)
(1.39916e+14 -7.76861e+14 1.04058e+15)
(-1.38571e+15 -1.45001e+15 5.17197e+14)
(-1.37236e+12 -4.23907e+14 1.02651e+15)
(-1.41429e+15 -9.82251e+14 1.47717e+15)
(-5.2443e+12 1.27154e+15 -8.07983e+14)
(4.92273e+14 -7.13758e+14 5.58665e+14)
(-8.18297e+14 -1.8046e+15 -3.92984e+14)
(1.71363e+14 -7.64458e+14 5.71933e+14)
(-1.11966e+15 -1.39855e+15 -1.89934e+13)
(-2.1867e+14 -5.33365e+14 7.85655e+14)
(-1.46454e+15 -1.02933e+15 4.19254e+14)
(-6.63982e+14 -3.37127e+14 1.01855e+15)
(-1.66787e+15 -1.20279e+15 6.84121e+14)
(-8.24477e+14 -2.44192e+14 1.25586e+15)
(-1.00806e+15 -1.59108e+15 5.31461e+14)
(-5.45775e+14 -1.61541e+15 -2.16372e+14)
(1.91664e+14 -4.35131e+14 5.24407e+14)
(-9.226e+14 -1.06112e+15 -2.58039e+13)
(-2.18498e+14 -2.92671e+14 6.24241e+14)
(-1.25502e+15 -6.71015e+14 3.24277e+14)
(-5.995e+14 -2.93445e+13 7.65132e+14)
(-1.51117e+15 -8.81278e+14 5.12726e+14)
(-6.89248e+14 1.7251e+14 9.64245e+14)
(-7.28097e+14 -2.55137e+15 1.92958e+14)
(-7.25163e+14 5.12529e+14 6.24535e+14)
(2.61549e+14 -4.391e+13 6.25583e+14)
(-5.33183e+14 -8.07929e+14 -6.33934e+12)
(-8.208e+13 -5.94098e+13 5.23801e+14)
(-9.11315e+14 -4.036e+14 2.16232e+14)
(-3.72704e+14 1.45312e+14 5.09008e+14)
(-1.33897e+15 -4.94678e+14 3.87225e+14)
(-5.80238e+14 4.23402e+14 7.42418e+14)
(-6.51884e+14 -3.45221e+15 -7.97734e+13)
(-6.63502e+14 3.97339e+14 1.47836e+14)
(-9.37575e+14 -1.56929e+15 -3.39429e+14)
(6.87378e+14 -7.48718e+14 2.66617e+14)
(-8.77689e+14 -1.63099e+15 -6.64136e+14)
(4.64962e+14 -8.67708e+14 1.94359e+14)
(-9.42803e+14 -1.45761e+15 -3.4942e+14)
(2.65174e+14 -8.29842e+14 4.91988e+14)
(-1.05593e+15 -1.39908e+15 -3.37674e+12)
(8.01388e+13 -6.86857e+14 7.64017e+14)
(-1.2005e+15 -1.24645e+15 4.07312e+14)
(-8.17842e+13 -5.27512e+14 9.7912e+14)
(-1.17306e+15 -1.03627e+15 7.84544e+14)
(-6.90858e+14 -1.5274e+15 -5.00174e+14)
(4.35838e+14 -6.05306e+14 2.65103e+14)
(-8.49688e+14 -1.15429e+15 -3.30698e+14)
(1.24055e+14 -6.39549e+14 3.81078e+14)
(-9.89856e+14 -1.03105e+15 -9.89555e+12)
(-1.70684e+14 -4.71051e+14 6.33401e+14)
(-1.15013e+15 -8.22841e+14 3.58252e+14)
(-4.61296e+14 -2.96628e+14 8.36228e+14)
(-1.16345e+15 -9.8459e+14 4.39097e+14)
(-6.21749e+14 -1.55122e+14 9.15423e+14)
(4.38915e+14 -2.60494e+14 4.47404e+14)
(-6.73393e+14 -9.68454e+14 -2.602e+14)
(1.40239e+14 -3.79743e+14 3.14367e+14)
(-8.07159e+14 -6.76874e+14 -6.27452e+13)
(-1.46248e+14 -2.80192e+14 4.84356e+14)
(-9.5187e+14 -4.88101e+14 2.70189e+14)
(-3.82369e+14 -8.21096e+13 6.69463e+14)
(-9.9572e+14 -7.23386e+14 3.73104e+14)
(-5.03392e+14 6.68477e+13 7.14038e+14)
(-6.419e+14 -1.24757e+15 1.20717e+13)
(-4.60419e+14 -9.38529e+14 -6.97913e+13)
(2.48283e+14 -7.42847e+13 3.58606e+14)
(-5.78772e+14 -4.51574e+14 -1.11848e+14)
(6.21003e+12 -1.04843e+14 3.33878e+14)
(-6.48649e+14 -2.09912e+14 1.08391e+14)
(-1.80158e+14 3.54831e+13 4.26906e+14)
(-7.66353e+14 -3.2502e+14 3.05373e+14)
(-3.37876e+14 2.46257e+14 5.31182e+14)
(-4.45846e+14 -1.60442e+15 -1.27302e+14)
(-5.23826e+14 3.63369e+13 1.78599e+14)
(-7.38666e+14 -1.30411e+15 -6.39127e+14)
(4.68434e+14 -6.12439e+14 6.71935e+13)
(-8.40729e+14 -9.08163e+14 -4.43398e+14)
(1.76079e+14 -6.87335e+14 9.59385e+13)
(-9.62771e+14 -7.68968e+14 -2.42973e+14)
(1.05939e+13 -6.01823e+14 3.37467e+14)
(-1.02707e+15 -7.58859e+14 -1.12493e+13)
(-1.40335e+14 -4.6895e+14 5.02251e+14)
(-1.0209e+15 -7.08036e+14 2.46107e+14)
(-2.56874e+14 -3.63114e+14 6.96253e+14)
(5.30421e+14 -3.63093e+14 2.82892e+14)
(-7.14266e+14 -8.47534e+14 -4.00645e+14)
(1.88834e+14 -5.33563e+14 8.33903e+13)
(-8.15473e+14 -4.38456e+14 -2.39414e+14)
(-5.62685e+13 -5.35253e+14 2.41445e+14)
(-9.17008e+14 -3.94179e+14 -3.43169e+13)
(-2.40616e+14 -3.73556e+14 4.12157e+14)
(-9.03831e+14 -3.23931e+14 1.91726e+14)
(-3.94205e+14 -2.13169e+14 5.25111e+14)
(-8.29545e+14 -5.05923e+14 2.06669e+14)
(-6.05902e+14 -8.4237e+14 -2.51326e+14)
(3.22328e+14 -2.72883e+14 2.15115e+14)
(-6.6615e+14 -3.04089e+14 -2.19377e+14)
(2.05956e+12 -4.03063e+14 1.27402e+14)
(-7.68874e+14 -1.06379e+13 -7.98743e+13)
(-1.90827e+14 -3.08207e+14 3.05414e+14)
(-7.77509e+14 2.6193e+13 8.68927e+13)
(-3.04797e+14 -1.54464e+14 3.75133e+14)
(-6.80141e+14 -1.02296e+14 1.38329e+14)
(-4.08388e+14 -5.41514e+13 3.6508e+14)
(4.11745e+14 5.21376e+12 4.44233e+14)
(-5.44003e+14 -3.60454e+14 -1.65893e+14)
(1.38209e+14 -1.9364e+14 1.09207e+14)
(-5.95345e+14 2.34666e+14 -1.14773e+14)
(-7.1109e+13 -2.43928e+14 1.02528e+14)
(-6.3572e+14 4.03923e+14 -4.61845e+13)
(-1.77737e+14 -1.42405e+14 1.90761e+14)
(-5.75212e+14 3.52448e+14 -1.00047e+13)
(-2.67613e+14 -4.97187e+13 1.94066e+14)
(-5.6155e+14 1.87609e+14 -1.13229e+14)
(4.15821e+14 -3.57634e+14 2.81349e+14)
(-6.40867e+14 -7.37681e+14 -4.25547e+14)
(8.42791e+13 -5.36642e+14 9.92119e+13)
(-7.19399e+14 -3.68346e+14 -3.4289e+14)
(-1.89644e+14 -5.5997e+14 1.40528e+14)
(-8.04191e+14 -1.36861e+14 -3.18256e+14)
(-3.77105e+14 -4.27164e+14 1.81252e+14)
(-8.39656e+14 -9.85926e+13 -1.51723e+14)
(-5.03577e+14 -2.18217e+14 1.47896e+14)
(-8.15815e+14 -1.32254e+14 9.95324e+13)
(-5.33514e+14 -7.60895e+14 -3.94851e+14)
(2.73386e+14 -3.45165e+14 2.2144e+14)
(-5.72725e+14 -4.12931e+14 -2.88204e+14)
(-5.90412e+13 -5.1793e+14 4.23387e+13)
(-6.25484e+14 -1.05388e+13 -3.40469e+14)
(-2.93175e+14 -4.89681e+14 9.6007e+13)
(-6.66355e+14 1.75037e+14 -3.40065e+14)
(-4.66179e+14 -2.93324e+14 8.02952e+13)
(-6.51968e+14 1.43229e+14 -1.73829e+14)
(-5.33269e+14 -3.97094e+13 4.00671e+13)
(4.53261e+14 -4.13772e+13 4.4598e+14)
(-4.69703e+14 -4.88531e+14 -2.66001e+14)
(1.50498e+14 -2.9971e+14 1.28935e+14)
(-4.79906e+14 -1.06323e+14 -1.88517e+14)
(-1.14789e+14 -4.48615e+14 -7.40359e+12)
(-5.10223e+14 2.91848e+14 -3.93901e+14)
(-3.0684e+14 -3.77976e+14 3.85394e+13)
(-5.09114e+14 3.85257e+14 -3.9641e+14)
(-4.51513e+14 -1.87794e+14 -1.19147e+13)
(-4.86692e+14 2.24509e+14 -2.78573e+14)
(-4.65131e+14 -5.6724e+14 -1.75239e+14)
(4.07459e+14 3.82225e+13 4.03491e+14)
(-3.5838e+14 -2.38527e+14 -1.49887e+14)
(1.11413e+14 -2.11637e+14 5.07054e+13)
(-3.63897e+14 1.4267e+14 -1.29529e+14)
(-9.01934e+13 -3.44986e+14 -4.8047e+13)
(-3.73502e+14 4.54688e+14 -4.20049e+14)
(-2.57673e+14 -2.81166e+14 -2.58139e+13)
(-3.73233e+14 4.56455e+14 -4.74197e+14)
(-4.1898e+14 -1.38573e+14 -9.88416e+13)
)
;

boundaryField
{
    inlet
    {
        type            calculated;
        value           uniform (6 0 0);
    }
    outlet
    {
        type            calculated;
        value           nonuniform 0();
    }
    bottom
    {
        type            calculated;
        value           uniform (0 0 0);
    }
    top
    {
        type            symmetryPlane;
    }
    side1
    {
        type            symmetryPlane;
    }
    side2
    {
        type            symmetryPlane;
    }
    procBoundary16to8
    {
        type            processor;
        value           nonuniform List<vector> 
50
(
(-6.73071e+14 -3.17345e+15 -1.35422e+15)
(7.38188e+14 -7.95523e+14 9.30564e+14)
(-8.26562e+14 -2.66314e+15 -7.58002e+14)
(6.03607e+14 -9.0704e+14 9.76587e+14)
(-1.1713e+15 -1.87973e+15 -2.829e+14)
(3.5727e+14 1.50871e+14 -1.54113e+14)
(-1.26635e+15 -1.03465e+15 1.0632e+15)
(8.63841e+13 1.79076e+15 -3.6656e+15)
(-9.91057e+14 -2.33487e+14 2.20603e+15)
(1.48963e+14 3.20801e+15 -5.7913e+15)
(7.90548e+14 -1.07552e+15 6.5686e+14)
(-9.21747e+14 -2.55562e+15 -9.52304e+14)
(7.60518e+14 -1.17749e+15 6.53723e+14)
(-9.22479e+14 -2.22951e+15 -4.67979e+14)
(7.59639e+14 -1.06046e+15 9.93904e+14)
(-9.4307e+14 -1.88543e+15 -6.25621e+13)
(8.05876e+14 -4.4719e+14 4.53191e+14)
(-8.72163e+14 -1.5317e+15 9.09877e+14)
(6.65583e+14 1.24378e+15 -2.80369e+15)
(-4.64486e+14 -4.74566e+14 1.73321e+15)
(-8.79283e+14 -2.06147e+15 -1.05395e+15)
(8.00956e+14 -9.45588e+14 1.26582e+14)
(-9.49496e+14 -1.75606e+15 -6.79939e+14)
(6.65271e+14 -9.82469e+14 2.69236e+14)
(-9.23746e+14 -1.74862e+15 -3.70379e+14)
(6.30293e+14 -8.90645e+14 5.97932e+14)
(-9.27874e+14 -1.5614e+15 -3.75345e+13)
(6.12142e+14 -6.72425e+14 5.59199e+14)
(-9.6365e+14 -1.18918e+15 3.95694e+14)
(3.22535e+14 2.12591e+14 -8.45891e+14)
(6.59325e+14 -6.48242e+14 9.29207e+13)
(-9.02074e+14 -1.30839e+15 -6.80101e+14)
(4.33621e+14 -7.21064e+14 -2.19296e+13)
(-9.74988e+14 -1.07314e+15 -4.27274e+14)
(2.9842e+14 -6.86571e+14 1.67811e+14)
(-1.04907e+15 -1.08292e+15 -2.27289e+14)
(2.4826e+14 -5.81275e+14 3.66692e+14)
(-1.00736e+15 -9.99209e+14 -1.15068e+13)
(1.85542e+14 -4.8414e+14 4.07886e+14)
(-9.7023e+14 -9.02314e+14 2.73245e+14)
(-6.77205e+14 -1.0859e+15 -6.08784e+14)
(2.94462e+14 -5.16115e+14 1.63871e+14)
(-8.13688e+14 -6.9674e+14 -3.92881e+14)
(-8.8896e+12 -5.4899e+14 1.60821e+14)
(-9.00825e+14 -4.70251e+14 -3.02389e+14)
(-1.74238e+14 -4.83497e+14 2.40549e+14)
(-9.50613e+14 -3.82437e+14 -1.84751e+14)
(-2.92035e+14 -3.75408e+14 2.08237e+14)
(-9.29591e+14 -3.6349e+14 -1.51777e+13)
(-3.78087e+14 -2.59672e+14 2.32087e+14)
)
;
    }
    procBoundary16to17
    {
        type            processor;
        value           nonuniform List<vector> 
20
(
(7.9543e+14 4.31921e+15 -5.12659e+15)
(-3.2544e+14 -6.21424e+14 5.41261e+14)
(-6.76435e+14 9.69256e+14 6.50511e+14)
(-1.16246e+15 -1.62e+15 -3.54534e+14)
(-7.65603e+14 -4.28124e+13 1.89612e+15)
(-5.38586e+14 1.93083e+14 1.19157e+15)
(-7.49167e+14 -1.09283e+15 7.43354e+13)
(-7.61608e+14 3.76221e+14 3.87484e+14)
(-2.5701e+14 -2.65105e+14 1.25838e+15)
(-8.72255e+14 -1.07399e+15 2.08618e+14)
(-6.22387e+14 3.25765e+13 3.82463e+14)
(-9.15196e+14 -1.06738e+14 -1.92943e+14)
(-9.09825e+14 -7.3018e+14 3.23763e+14)
(-4.9249e+14 -9.22714e+13 5.13313e+14)
(-6.64565e+14 -3.24669e+14 -2.529e+13)
(-4.38666e+14 -7.92477e+13 6.77517e+13)
(-4.93754e+14 6.08393e+12 3.29376e+14)
(-6.36597e+14 2.98517e+12 2.15602e+13)
(-5.47367e+14 2.16863e+13 -1.02226e+14)
(-4.08418e+14 1.50224e+14 -3.52847e+14)
)
;
    }
    procBoundary16to24
    {
        type            processor;
        value           nonuniform List<vector> 
50
(
(-6.99752e+14 -8.32634e+14 5.59008e+14)
(-6.75023e+14 -1.17009e+14 -3.4491e+14)
(-3.75791e+14 2.20119e+14 4.30929e+14)
(-1.61621e+15 2.88276e+14 1.89092e+14)
(-3.58239e+14 1.00061e+15 6.82839e+14)
(-7.23827e+14 -4.72933e+15 -1.47286e+14)
(-4.6012e+14 1.14463e+14 -2.32292e+14)
(-1.13913e+15 -3.88977e+15 -2.13144e+14)
(-9.43587e+14 9.09832e+13 -1.58839e+13)
(-1.34979e+15 -2.20942e+15 -3.81218e+14)
(-8.73163e+13 -8.95766e+14 3.43449e+14)
(5.88132e+13 3.32766e+14 4.95563e+14)
(-6.48072e+14 -1.08748e+14 1.58523e+14)
(-1.68984e+14 3.03119e+14 4.0687e+14)
(-9.10062e+14 1.50844e+14 2.85746e+14)
(-1.73448e+14 7.38462e+14 3.48761e+14)
(-5.21963e+14 -2.95606e+15 -3.17907e+14)
(-4.23214e+14 1.86054e+14 -1.01129e+14)
(-8.29961e+14 -1.39193e+15 -6.23506e+14)
(-7.18626e+14 1.13644e+14 2.65029e+13)
(3.25691e+14 2.72807e+14 5.56948e+14)
(-3.12624e+14 -3.61336e+14 -9.97724e+13)
(1.69806e+14 1.02137e+14 2.38098e+14)
(-3.95749e+14 -3.29571e+13 -4.2131e+13)
(8.54204e+13 1.10301e+14 1.96895e+14)
(-3.31746e+14 1.24482e+14 8.76532e+13)
(1.89919e+12 3.38688e+14 1.91751e+14)
(-3.52087e+14 -1.24406e+15 -2.32647e+14)
(-3.27815e+14 -7.84483e+13 3.94022e+13)
(-7.51168e+14 4.33051e+14 -3.53654e+14)
(-4.46377e+14 -5.29388e+14 -2.76184e+13)
(2.6051e+14 2.00019e+13 2.48188e+14)
(-4.96135e+14 1.20505e+14 -1.05568e+14)
(5.28882e+13 -1.14063e+14 1.53286e+13)
(-5.16863e+14 5.89355e+14 -1.20098e+14)
(-5.17995e+13 -1.46521e+14 -7.63563e+12)
(-4.98191e+14 7.08912e+14 -1.57284e+14)
(-1.37224e+14 -1.01799e+14 8.08928e+12)
(-4.86792e+14 6.54396e+14 -2.28277e+14)
(-2.78753e+14 -9.12212e+13 8.97389e+12)
(4.73024e+14 2.32847e+14 5.60978e+14)
(-3.6784e+14 -4.50571e+14 -1.29073e+14)
(4.46556e+14 1.53016e+14 3.73747e+14)
(-2.2451e+14 -4.53967e+13 -5.38919e+13)
(2.03144e+14 -7.21442e+13 3.65995e+13)
(-2.13537e+14 2.91963e+14 -9.6566e+13)
(1.2944e+13 -2.45573e+14 -8.54684e+13)
(-2.13994e+14 4.80263e+14 -4.03311e+14)
(-1.64285e+14 -2.28335e+14 -9.52818e+13)
(-2.54851e+14 3.94275e+14 -4.8735e+14)
)
;
    }
}


// ************************************************************************* //
