/*--------------------------------*- C++ -*----------------------------------*\
| =========                 |                                                 |
| \\      /  F ield         | OpenFOAM: The Open Source CFD Toolbox           |
|  \\    /   O peration     | Version:  2.4.0                                 |
|   \\  /    A nd           | Web:      www.OpenFOAM.org                      |
|    \\/     M anipulation  |                                                 |
\*---------------------------------------------------------------------------*/
FoamFile
{
    version     2.0;
    format      ascii;
    class       surfaceScalarField;
    location    "0.05";
    object      phia;
}
// * * * * * * * * * * * * * * * * * * * * * * * * * * * * * * * * * * * * * //

dimensions      [0 3 -1 0 0 0 0];

internalField   nonuniform List<scalar> 
490
(
-4.13313e-05
4.15295e-06
1.64141e-05
-4.35492e-05
4.53466e-06
1.73883e-05
-4.76303e-05
4.63819e-06
1.68501e-05
-5.35874e-05
4.78314e-06
1.60631e-05
-6.3132e-05
5.00075e-06
1.47943e-05
-8.1066e-05
5.36396e-06
1.23367e-05
-9.30443e-05
6.09201e-06
4.03115e-06
-9.30615e-05
6.09279e-06
4.01888e-06
-9.3068e-05
6.09306e-06
4.01479e-06
6.09322e-06
4.01275e-06
-9.30791e-05
6.09337e-06
4.00879e-06
-9.30815e-05
6.09348e-06
4.0077e-06
-9.30836e-05
6.09355e-06
4.00663e-06
-9.30854e-05
6.09361e-06
4.00568e-06
-9.3087e-05
6.09367e-06
4.00486e-06
-9.30884e-05
6.09372e-06
4.00416e-06
-9.3089e-05
6.09376e-06
4.00359e-06
-9.30889e-05
6.09375e-06
4.00358e-06
-9.30888e-05
6.09375e-06
4.00358e-06
6.09376e-06
4.00359e-06
-9.30886e-05
6.09371e-06
4.00357e-06
-9.30887e-05
6.09372e-06
4.00357e-06
-9.30887e-05
6.09372e-06
4.00357e-06
-9.30888e-05
6.09373e-06
4.00357e-06
-9.30888e-05
6.09373e-06
4.00358e-06
-9.30889e-05
6.09374e-06
4.00358e-06
-9.30889e-05
6.09374e-06
4.00358e-06
-9.30888e-05
6.09374e-06
4.00358e-06
-9.30887e-05
6.09373e-06
4.00358e-06
6.09373e-06
4.00358e-06
-9.3088e-05
4.00354e-06
-9.30881e-05
4.00355e-06
-9.30882e-05
4.00355e-06
-9.30883e-05
4.00356e-06
-9.30884e-05
4.00356e-06
-9.30885e-05
4.00356e-06
-9.30885e-05
4.00357e-06
-9.30884e-05
4.00356e-06
-9.30883e-05
4.00356e-06
4.00356e-06
-1.63685e-05
3.42151e-06
2.03171e-05
-1.63784e-05
3.73155e-06
2.15992e-05
-1.87028e-05
3.78693e-06
2.14164e-05
-2.2662e-05
3.87348e-06
2.11267e-05
-3.10643e-05
4.02824e-06
2.06037e-05
-6.49039e-05
4.38506e-06
1.93898e-05
-9.29275e-05
6.08745e-06
1.35503e-05
-9.29889e-05
6.09025e-06
1.35141e-05
-9.30119e-05
6.09118e-06
1.34802e-05
6.09166e-06
1.3444e-05
-9.30527e-05
6.09239e-06
1.29719e-05
-9.30616e-05
6.09279e-06
1.32787e-05
-9.30694e-05
6.09304e-06
1.32422e-05
-9.30762e-05
6.09327e-06
1.31806e-05
-9.3082e-05
6.09346e-06
1.30578e-05
-9.30868e-05
6.09362e-06
1.27045e-05
-9.3089e-05
6.09376e-06
4.14312e-06
-9.3089e-05
6.09376e-06
4.08163e-06
-9.30889e-05
6.09375e-06
4.06093e-06
6.09375e-06
4.05055e-06
-9.30887e-05
6.09372e-06
4.02123e-06
-9.30887e-05
6.09372e-06
4.01906e-06
-9.30888e-05
6.09373e-06
4.01536e-06
-9.30888e-05
6.09373e-06
4.01168e-06
-9.30889e-05
6.09374e-06
4.0085e-06
-9.30889e-05
6.09374e-06
4.00579e-06
-9.30889e-05
6.09375e-06
4.00358e-06
-9.30889e-05
6.09374e-06
4.00358e-06
-9.30888e-05
6.09374e-06
4.00358e-06
6.09373e-06
4.00358e-06
-9.30881e-05
3.98986e-06
-9.30882e-05
4.00125e-06
-9.30883e-05
4.00355e-06
-9.30884e-05
4.00356e-06
-9.30885e-05
4.00356e-06
-9.30886e-05
4.00356e-06
-9.30886e-05
4.00357e-06
-9.30885e-05
4.00356e-06
-9.30884e-05
4.00356e-06
4.00356e-06
-2.62724e-06
2.94725e-07
2.21142e-05
-1.21251e-06
5.79837e-07
2.30589e-05
-1.21238e-06
5.9123e-07
2.3067e-05
-1.2124e-06
6.09959e-07
2.30749e-05
-1.21245e-06
6.46638e-07
2.30828e-05
-1.30517e-06
7.50833e-07
2.30908e-05
-1.51061e-06
3.26348e-06
2.30636e-05
-1.75591e-06
3.28835e-06
2.30322e-05
-2.04026e-06
3.30247e-06
2.29968e-05
3.31475e-06
2.29574e-05
-4.2693e-06
3.26302e-06
2.2316e-05
-3.9038e-06
3.36949e-06
2.27913e-05
-4.39827e-06
3.38281e-06
2.27605e-05
-5.3089e-06
3.40262e-06
2.27044e-05
-7.6242e-06
3.44023e-06
2.2587e-05
-5.0541e-05
3.54522e-06
2.2239e-05
-9.20413e-05
6.05288e-06
1.36711e-05
-9.24367e-05
6.07088e-06
1.36022e-05
-9.25862e-05
6.07694e-06
1.35735e-05
6.07998e-06
1.35548e-05
-9.29071e-05
6.06185e-06
9.13699e-06
-9.29542e-05
6.08475e-06
1.21864e-05
-9.29928e-05
6.09026e-06
1.34837e-05
-9.3026e-05
6.09135e-06
1.34753e-05
-9.30544e-05
6.09229e-06
1.34563e-05
-9.30782e-05
6.09309e-06
1.33971e-05
-9.30888e-05
6.09374e-06
4.84843e-06
-9.30888e-05
6.09374e-06
4.49225e-06
-9.30887e-05
6.09373e-06
4.36683e-06
6.09373e-06
4.30278e-06
-9.30649e-05
1.6009e-06
-9.30847e-05
1.62401e-06
-9.30882e-05
3.92156e-06
-9.30883e-05
4.07381e-06
-9.30884e-05
4.04632e-06
-9.30885e-05
4.02287e-06
-9.30885e-05
4.00359e-06
-9.30884e-05
4.00358e-06
-9.30883e-05
4.00357e-06
4.00357e-06
-1.88433e-06
3.72012e-07
2.26854e-05
-1.21227e-06
5.03654e-07
2.30021e-05
-1.21222e-06
5.03666e-07
2.30164e-05
-1.21222e-06
5.03666e-07
2.30306e-05
-1.21223e-06
5.03667e-07
2.30449e-05
-1.21223e-06
5.03668e-07
2.30592e-05
-1.21223e-06
5.04313e-07
2.30449e-05
-1.21223e-06
5.05102e-07
2.30306e-05
-1.21223e-06
5.06034e-07
2.30164e-05
5.07107e-07
2.30022e-05
-1.5511e-06
1.11464e-07
2.28108e-05
-1.21235e-06
4.11998e-07
2.2988e-05
-1.21225e-06
5.17308e-07
2.30023e-05
-1.21225e-06
5.20415e-07
2.30165e-05
-1.21226e-06
5.26457e-07
2.30307e-05
-1.22288e-06
5.44414e-07
2.3045e-05
-1.24647e-06
3.05145e-06
2.30285e-05
-1.27475e-06
3.15668e-06
2.30116e-05
-1.30772e-06
3.19438e-06
2.29942e-05
3.21422e-06
2.29764e-05
-2.16408e-05
-7.69926e-07
1.40428e-05
-6.28284e-06
-4.96572e-07
2.02193e-05
-1.71621e-06
3.00997e-06
2.29397e-05
-1.86202e-06
3.2947e-06
2.29453e-05
-2.25645e-06
3.30892e-06
2.29389e-05
-4.37458e-05
3.33377e-06
2.28918e-05
-8.66565e-05
5.84583e-06
1.43355e-05
-8.89773e-05
5.95027e-06
1.39693e-05
-8.98899e-05
5.98703e-06
1.38338e-05
6.00579e-06
1.37596e-05
-8.61964e-05
-7.75574e-07
-8.89384e-05
-7.63595e-07
-9.2038e-05
2.83329e-06
-9.25423e-05
1.34994e-05
-9.27889e-05
1.35125e-05
-9.29952e-05
1.3489e-05
-9.30882e-05
7.69486e-06
-9.30881e-05
6.48119e-06
-9.3088e-05
5.95442e-06
5.6598e-06
-1.21224e-06
5.03654e-07
-1.21222e-06
5.03664e-07
-1.21222e-06
5.03666e-07
-1.21223e-06
5.03666e-07
-1.21223e-06
5.03667e-07
-1.21223e-06
5.03667e-07
-1.21223e-06
5.03667e-07
-1.21222e-06
5.03666e-07
-1.21222e-06
5.03666e-07
5.03665e-07
-1.21265e-06
1.47911e-07
-1.21229e-06
3.92853e-07
-1.21223e-06
5.036e-07
-1.21223e-06
5.03668e-07
-1.21223e-06
5.03668e-07
-1.21223e-06
5.03668e-07
-1.21223e-06
5.03799e-07
-1.21223e-06
5.0396e-07
-1.21223e-06
5.04149e-07
5.04367e-07
-2.25108e-05
-7.82328e-07
-6.27299e-06
-5.37635e-07
-1.21533e-06
-3.24153e-07
-1.21224e-06
5.03534e-07
-1.21224e-06
5.07166e-07
-1.2144e-06
5.09959e-07
-1.21919e-06
2.20962e-06
-1.22495e-06
2.56672e-06
-1.23166e-06
2.72166e-06
2.8083e-06
-8.61734e-05
-8.15068e-05
-3.91923e-05
-1.43483e-06
-1.37316e-06
-2.93519e-05
-6.31514e-05
-7.15614e-05
-7.55252e-05
)
;

boundaryField
{
    inlet
    {
        type            calculated;
        value           nonuniform 0();
    }
    outlet
    {
        type            calculated;
        value           nonuniform 0();
    }
    bottom
    {
        type            calculated;
        value           uniform 0;
    }
    top
    {
        type            symmetryPlane;
        value           uniform 0;
    }
    side1
    {
        type            symmetryPlane;
        value           nonuniform 0();
    }
    side2
    {
        type            symmetryPlane;
        value           nonuniform 0();
    }
    procBoundary21to13
    {
        type            processor;
        value           nonuniform List<scalar> 
50
(
3.12926e-06
-2.02383e-06
-2.38277e-06
-2.62825e-06
-3.02283e-06
-3.77784e-06
-6.08425e-06
-6.08859e-06
-6.09007e-06
-6.09084e-06
3.85951e-06
-9.04659e-07
-1.12428e-06
-1.24179e-06
-1.45782e-06
-1.98562e-06
-6.05936e-06
-6.07476e-06
-6.07995e-06
-6.08257e-06
4.16337e-06
-3.88781e-07
-4.80511e-07
-4.78206e-07
-4.75379e-07
-4.71851e-07
-4.82606e-07
-4.94189e-07
-5.06748e-07
-5.20378e-07
4.0518e-06
-4.36838e-07
-4.78197e-07
-4.75372e-07
-4.71837e-07
-4.67295e-07
-4.71837e-07
-4.75373e-07
-4.78202e-07
-4.80517e-07
-4.6584e-07
-4.78204e-07
-4.75377e-07
-4.71842e-07
-4.67297e-07
-4.6124e-07
-4.67297e-07
-4.71842e-07
-4.75377e-07
-4.78205e-07
)
;
    }
    procBoundary21to20
    {
        type            processor;
        value           nonuniform List<scalar> 
20
(
5.32612e-05
9.20965e-05
9.30884e-05
9.30878e-05
4.12922e-05
9.03517e-05
9.30884e-05
9.30879e-05
3.4443e-05
3.22491e-05
8.72047e-05
9.29989e-05
3.33814e-05
3.02293e-05
4.33709e-05
8.61695e-05
1.44632e-06
1.33083e-06
4.43101e-05
8.61744e-05
)
;
    }
    procBoundary21to22
    {
        type            processor;
        value           nonuniform List<scalar> 
20
(
-9.30709e-05
-9.30883e-05
-9.30883e-05
-9.3088e-05
-9.30238e-05
-9.30885e-05
-9.30886e-05
-9.30883e-05
-2.36e-06
-9.26659e-05
-9.30884e-05
-9.30882e-05
-1.21222e-06
-1.34505e-06
-9.0363e-05
-9.3068e-05
-1.21222e-06
-1.21223e-06
-1.23931e-06
-7.78004e-05
)
;
    }
    procBoundary21to29
    {
        type            processor;
        value           nonuniform List<scalar> 
50
(
5.85569e-06
5.8368e-06
5.81363e-06
5.78563e-06
5.75141e-06
5.70864e-06
5.65369e-06
5.70864e-06
5.75142e-06
5.78564e-06
5.83286e-06
5.8129e-06
5.78556e-06
5.75133e-06
5.70854e-06
5.65353e-06
5.58022e-06
5.65353e-06
5.70854e-06
5.75133e-06
2.37434e-06
2.49337e-06
5.77183e-06
5.78557e-06
5.75135e-06
5.70856e-06
5.6536e-06
5.70856e-06
5.75134e-06
5.78557e-06
-1.35149e-06
-1.33474e-06
2.06843e-06
4.44204e-06
5.7694e-06
5.74432e-06
5.70861e-06
5.75135e-06
5.78557e-06
5.81357e-06
-1.35642e-06
-1.35701e-06
-1.25392e-06
-4.23225e-07
4.17342e-07
5.34567e-07
4.29269e-06
4.83212e-06
5.06928e-06
5.20729e-06
)
;
    }
}


// ************************************************************************* //
