/*--------------------------------*- C++ -*----------------------------------*\
| =========                 |                                                 |
| \\      /  F ield         | OpenFOAM: The Open Source CFD Toolbox           |
|  \\    /   O peration     | Version:  2.4.0                                 |
|   \\  /    A nd           | Web:      www.OpenFOAM.org                      |
|    \\/     M anipulation  |                                                 |
\*---------------------------------------------------------------------------*/
FoamFile
{
    version     2.0;
    format      ascii;
    class       volVectorField;
    location    "0.05";
    object      Ua;
}
// * * * * * * * * * * * * * * * * * * * * * * * * * * * * * * * * * * * * * //

dimensions      [0 1 -1 0 0 0 0];

internalField   nonuniform List<vector> 
200
(
(-16.3315 -3.31618 -3.27683)
(-15.6896 -3.14718 -3.11782)
(-15.0389 -2.8968 -2.81009)
(-14.5731 -2.19488 -1.66128)
(-23.2281 14.4389 29.3428)
(-23.4101 14.8225 30.0548)
(-23.4102 14.8228 30.0552)
(-23.4102 14.8227 30.0552)
(-23.3581 14.7805 30.0292)
(-8.02313 2.36753 22.2945)
(-23.3721 14.7326 29.8893)
(-23.3917 14.7835 29.9827)
(-23.4033 14.8095 30.0306)
(-23.4087 14.8201 30.0502)
(-23.4102 14.8228 30.0552)
(-23.4102 14.8228 30.0552)
(-23.4102 14.8228 30.0552)
(-23.4103 14.8228 30.0552)
(-23.4108 14.8232 30.0557)
(-23.4771 14.8651 30.056)
(-23.4105 14.8229 30.0552)
(-23.4102 14.8228 30.0552)
(-23.4102 14.8228 30.0552)
(-23.4102 14.8228 30.0552)
(-23.4102 14.8228 30.0552)
(-23.4102 14.8228 30.0552)
(-23.4103 14.8228 30.0552)
(-23.4103 14.8228 30.0552)
(-23.4106 14.8231 30.0555)
(-23.4304 14.8356 30.0558)
(-23.4106 14.823 30.0552)
(-23.4102 14.8228 30.0552)
(-23.4102 14.8228 30.0552)
(-23.4102 14.8228 30.0552)
(-23.4103 14.8228 30.0552)
(-23.4103 14.8228 30.0552)
(-23.4103 14.8228 30.0552)
(-23.4103 14.8228 30.0552)
(-23.4104 14.8229 30.0553)
(-23.4104 14.8229 30.0555)
(-15.66 -3.21408 -3.24136)
(-14.9552 -3.06946 -3.13075)
(-14.1958 -2.91361 -3.00158)
(-13.3684 -2.74382 -2.84864)
(-14.1541 -2.89458 -2.98817)
(-18.8074 5.23389 12.2401)
(-23.4009 14.8097 30.0306)
(-23.4032 14.8219 30.0534)
(-21.033 14.3952 29.3282)
(-6.80843 2.74521 22.1089)
(-14.9928 -3.01115 -2.90896)
(-14.2086 -2.78243 -2.68202)
(-13.4601 -2.41811 -2.19923)
(-13.1584 -1.29602 -0.283193)
(-23.2866 14.6142 29.6641)
(-23.4076 14.8226 30.0546)
(-23.4064 14.8225 30.0544)
(-23.4029 14.8218 30.0533)
(-20.6502 14.3366 29.2436)
(-18.1552 13.9332 28.4864)
(-23.3842 14.7737 29.9635)
(-23.3966 14.8014 30.0149)
(-23.404 14.8157 30.0414)
(-23.4073 14.8214 30.0523)
(-23.4079 14.8228 30.0549)
(-23.4072 14.8226 30.0547)
(-23.406 14.8223 30.0542)
(-23.4025 14.8216 30.0532)
(-20.0732 14.2089 29.0904)
(-17.0708 13.6752 28.2101)
(-23.4087 14.8232 30.0551)
(-23.4081 14.8228 30.055)
(-23.4079 14.8227 30.0549)
(-23.4077 14.8226 30.0548)
(-23.4073 14.8225 30.0546)
(-23.4066 14.8223 30.0544)
(-23.4054 14.822 30.054)
(-23.4018 14.8213 30.0529)
(-19.2673 14.0501 28.8637)
(-15.5995 13.3721 27.8048)
(-14.9553 -3.06948 -3.13066)
(-14.1949 -2.91343 -3.00143)
(-13.366 -2.74332 -2.8482)
(-12.446 -2.55452 -2.66364)
(-13.3334 -2.73664 -2.85087)
(-14.0863 -2.89118 -3.00905)
(-12.1624 -2.6127 -2.20152)
(38.1788 3.19792 12.0573)
(46.9054 1.71125 9.82591)
(46.912 1.70613 9.82434)
(-14.1454 -2.90321 -2.90651)
(-13.2812 -2.72587 -2.77526)
(-12.3652 -2.5379 -2.62125)
(-11.3875 -2.33727 -2.43737)
(-12.2063 -2.50364 -2.58295)
(21.4916 3.68195 11.7849)
(33.8591 4.15197 13.5698)
(39.7145 3.05448 11.893)
(46.9138 1.70946 9.82375)
(46.9276 1.70738 9.82125)
(-13.1687 -2.66159 -2.49328)
(-11.8191 -2.3568 -2.12725)
(-9.51566 -1.82515 -1.23964)
(-2.14991 -0.209466 2.19863)
(27.4805 5.31713 15.3265)
(31.3272 4.62659 14.3)
(35.6837 3.80691 13.0516)
(40.8092 2.84759 11.5795)
(46.9203 1.70781 9.8219)
(46.9301 1.70613 9.82017)
(20.3717 6.6957 17.3989)
(22.5408 6.28601 16.7991)
(24.9273 5.83293 16.1275)
(27.5729 5.33088 15.3756)
(30.5285 4.77214 14.5311)
(33.8558 4.14627 13.5776)
(37.6307 3.43949 12.4937)
(41.9478 2.63383 11.2525)
(46.9256 1.70623 9.82041)
(46.9318 1.7048 9.81925)
(-14.1949 -2.91344 -3.00135)
(-13.3652 -2.74316 -2.84805)
(-12.4437 -2.55404 -2.66317)
(-11.3878 -2.33732 -2.43689)
(-12.4444 -2.55418 -2.663)
(-13.326 -2.73514 -2.85167)
(-14.0722 -2.8883 -3.01134)
(-14.4985 -3.00039 -3.09799)
(35.9968 0.856642 7.52057)
(44.8654 1.52532 9.30028)
(-13.2811 -2.72586 -2.77515)
(-12.3642 -2.5377 -2.62109)
(-11.3847 -2.3367 -2.43686)
(-10.3297 -2.12016 -2.21047)
(-11.3859 -2.33694 -2.43649)
(-12.274 -2.5199 -2.62607)
(0.162269 -1.40275 0.573041)
(44.2769 2.18004 10.5348)
(46.9299 1.70649 9.82)
(47.2152 1.71552 9.81914)
(-12.5139 -2.56836 -2.57852)
(-11.517 -2.3638 -2.42625)
(-10.4886 -2.15278 -2.24541)
(-9.44779 -1.93918 -2.0217)
(-9.92613 -2.09237 -2.08219)
(38.7814 2.64005 10.9935)
(42.7564 2.48833 11.0164)
(44.7738 2.10844 10.4393)
(46.9314 1.70549 9.81929)
(47.0698 1.70933 9.81867)
(-9.90655 -2.16834 -1.7723)
(-6.62517 -1.69356 -0.93499)
(0.859253 -0.783391 1.15319)
(19.7545 1.17295 6.42707)
(40.4712 2.91125 11.6557)
(41.9778 2.63183 11.2409)
(43.5417 2.33706 10.7933)
(45.1927 2.02832 10.3191)
(46.9324 1.70436 9.81865)
(46.9756 1.70482 9.81822)
(-14.9255 -3.06337 -3.11532)
(-14.1502 -2.90428 -2.98806)
(-13.3354 -2.73706 -2.83522)
(-12.4488 -2.55509 -2.64987)
(-13.3288 -2.7357 -2.83616)
(-14.0745 -2.88876 -2.99373)
(-14.7139 -3.02001 -3.12854)
(-15.1604 -3.12472 -3.22146)
(26.538 0.0870004 5.4493)
(42.5404 1.30862 8.6336)
(-14.0728 -2.88833 -2.89446)
(-13.1904 -2.70727 -2.76484)
(-12.2948 -2.52348 -2.61081)
(-11.391 -2.33798 -2.42352)
(-12.2841 -2.52129 -2.61263)
(-13.0469 -2.67833 -2.77375)
(-6.04988 -2.158 -1.16104)
(45.8241 1.94964 10.1047)
(47.2131 1.71543 9.78139)
(47.7435 1.73369 9.77827)
(-13.335 -2.73685 -2.70024)
(-12.3631 -2.53745 -2.5708)
(-11.4025 -2.34035 -2.41826)
(-10.4958 -2.15428 -2.23195)
(-11.0554 -2.30798 -2.33975)
(39.6894 1.93365 9.60137)
(45.1467 2.12343 10.3924)
(46.0824 1.91855 10.0952)
(47.0678 1.70926 9.78366)
(47.3557 1.71876 9.78066)
(-11.5171 -2.48101 -2.23027)
(-9.09514 -2.14132 -1.75019)
(-3.68238 -1.5495 -0.50218)
(13.5704 -0.015304 3.65644)
(43.8671 2.3484 10.7209)
(44.6327 2.19506 10.5118)
(45.3732 2.03417 10.2786)
(46.1522 1.87074 10.0362)
(46.9738 1.70476 9.7859)
(47.083 1.70776 9.783)
)
;

boundaryField
{
    inlet
    {
        type            calculated;
        value           nonuniform 0();
    }
    outlet
    {
        type            calculated;
        value           nonuniform 0();
    }
    bottom
    {
        type            calculated;
        value           uniform (0 0 0);
    }
    top
    {
        type            symmetryPlane;
    }
    side1
    {
        type            symmetryPlane;
    }
    side2
    {
        type            symmetryPlane;
    }
    procBoundary21to13
    {
        type            processor;
        value           nonuniform List<vector> 
50
(
(-17.0329 -3.49591 -3.58502)
(-16.5073 -3.38806 -3.49469)
(-15.9306 -3.26971 -3.3896)
(-15.2906 -3.13835 -3.26574)
(-15.9177 -3.26138 -3.38053)
(-17.7265 2.11507 7.85212)
(-17.5897 10.0883 27.1053)
(-11.6272 5.28278 24.1367)
(3.75071 -7.14738 16.4023)
(3.8034 -7.18949 16.3738)
(-16.5065 -3.38789 -3.49448)
(-15.9291 -3.26941 -3.38932)
(-15.2878 -3.13778 -3.26521)
(-14.563 -2.98902 -3.11658)
(-15.2728 -3.1347 -3.26665)
(-15.882 -3.25965 -3.39302)
(-16.4246 -3.214 -3.14633)
(-11.4862 4.46389 22.422)
(3.74868 -7.14368 16.4024)
(3.80339 -7.18948 16.3735)
(-15.929 -3.26938 -3.38925)
(-15.2871 -3.13765 -3.26509)
(-14.5611 -2.98864 -3.1162)
(-13.7165 -2.81528 -2.9352)
(-14.5618 -2.98878 -3.11609)
(-15.2672 -3.13356 -3.26704)
(-15.8643 -3.25611 -3.3948)
(-16.339 -3.35699 -3.49231)
(10.1731 -1.79765 3.63076)
(4.31835 -7.05755 16.2176)
(-15.287 -3.13761 -3.26502)
(-14.5605 -2.98852 -3.11608)
(-13.7147 -2.81491 -2.93482)
(-12.6812 -2.60279 -2.71365)
(-13.7147 -2.81492 -2.93482)
(-14.5612 -2.98866 -3.11597)
(-15.2668 -3.13348 -3.26697)
(-15.8639 -3.25604 -3.39475)
(-16.374 -3.36097 -3.50388)
(-16.7332 -3.4651 -3.52353)
(-15.9158 -3.26668 -3.37098)
(-15.2737 -3.1349 -3.24875)
(-14.5635 -2.98914 -3.10035)
(-13.7184 -2.81568 -2.92152)
(-14.5635 -2.98913 -3.10035)
(-15.2687 -3.13387 -3.24924)
(-15.8656 -3.25638 -3.37495)
(-16.3773 -3.3614 -3.48243)
(-16.8199 -3.45237 -3.57513)
(-17.1856 -3.53484 -3.63804)
)
;
    }
    procBoundary21to20
    {
        type            processor;
        value           nonuniform List<vector> 
20
(
(-18.0666 -3.68579 -3.357)
(-23.3619 14.6601 29.7613)
(-23.4129 14.8244 30.0566)
(-23.4142 14.8253 30.0574)
(-17.2578 -3.54174 -3.31206)
(-16.8058 -3.40807 -3.02645)
(-24.163 15.2296 29.8854)
(-24.2474 15.3536 30.057)
(-16.4096 -3.36774 -3.21875)
(-15.7795 -3.23833 -2.9973)
(-14.9144 -3.03282 -2.6792)
(18.7813 7.14817 17.3382)
(-15.5091 -3.183 -3.11158)
(-14.7207 -3.02113 -2.88771)
(-13.9619 -2.86536 -2.69112)
(-12.1894 -2.56741 -2.18231)
(-16.3489 -3.35532 -3.20688)
(-15.5906 -3.19961 -2.98891)
(-14.8409 -3.04572 -2.79563)
(-13.5101 -2.83358 -2.47444)
)
;
    }
    procBoundary21to22
    {
        type            processor;
        value           nonuniform List<vector> 
20
(
(-2.34084 -2.03745 18.2615)
(-24.1126 15.2671 30.0569)
(-23.9469 15.1623 30.057)
(-23.7135 15.0147 30.0569)
(-1.44735 -1.75023 18.2276)
(-16.3203 13.9994 27.7568)
(-14.7527 13.5956 27.3717)
(-12.548 13.0103 26.8354)
(48.1172 1.74637 9.82493)
(47.932 1.74267 9.82073)
(47.6617 1.73162 9.81994)
(47.337 1.71848 9.81927)
(48.7119 1.73063 9.63858)
(49.2259 1.7877 9.8192)
(48.6752 1.76677 9.81886)
(47.8858 1.73697 9.81854)
(49.0174 1.69057 9.3555)
(50.5506 1.83482 9.77558)
(49.7307 1.80414 9.77801)
(48.506 1.75852 9.78067)
)
;
    }
    procBoundary21to29
    {
        type            processor;
        value           nonuniform List<vector> 
50
(
(-23.4105 14.8229 30.0552)
(-23.4105 14.8229 30.0552)
(-23.4105 14.8229 30.0552)
(-23.4105 14.8229 30.0552)
(-23.4105 14.8229 30.0552)
(-23.4105 14.8229 30.0552)
(-23.4105 14.8229 30.0552)
(-23.4105 14.8229 30.0552)
(-23.4104 14.8229 30.0552)
(-23.4103 14.8229 30.0552)
(-23.4069 14.8222 30.0542)
(-23.4068 14.8222 30.0542)
(-23.4067 14.8222 30.0542)
(-23.4066 14.8222 30.0542)
(-23.4063 14.8221 30.0541)
(-23.4058 14.822 30.0539)
(-23.4047 14.8218 30.0536)
(-23.401 14.8212 30.0525)
(-17.9914 13.8122 28.4963)
(-13.3522 12.9468 27.1616)
(24.8777 5.81242 16.1634)
(26.8456 5.44582 15.5973)
(28.9814 5.04797 14.9829)
(31.3073 4.61471 14.3137)
(33.8499 4.14107 13.5822)
(36.6411 3.62114 12.7792)
(39.719 3.0478 11.8937)
(43.13 2.41242 10.9124)
(46.9299 1.70459 9.81925)
(46.9325 1.70322 9.81853)
(37.663 3.43032 12.4739)
(38.6835 3.2399 12.1859)
(39.7379 3.04275 11.8857)
(40.8294 2.83873 11.5732)
(41.9613 2.62757 11.2483)
(43.1358 2.40888 10.9107)
(44.3549 2.18219 10.56)
(45.6204 1.94703 10.196)
(46.9337 1.70297 9.81815)
(46.9351 1.7019 9.81785)
(42.0014 2.62162 11.1617)
(42.5789 2.51459 11.0096)
(43.1629 2.40493 10.8506)
(43.7574 2.293 10.6855)
(44.365 2.179 10.515)
(44.987 2.06296 10.3395)
(45.6232 1.94482 10.1597)
(46.2728 1.82448 9.97575)
(46.9347 1.70188 9.78822)
(46.9359 1.70088 9.78537)
)
;
    }
}


// ************************************************************************* //
