/*--------------------------------*- C++ -*----------------------------------*\
| =========                 |                                                 |
| \\      /  F ield         | OpenFOAM: The Open Source CFD Toolbox           |
|  \\    /   O peration     | Version:  2.4.0                                 |
|   \\  /    A nd           | Web:      www.OpenFOAM.org                      |
|    \\/     M anipulation  |                                                 |
\*---------------------------------------------------------------------------*/
FoamFile
{
    version     2.0;
    format      ascii;
    class       volSymmTensorField;
    location    "0.01";
    object      B;
}
// * * * * * * * * * * * * * * * * * * * * * * * * * * * * * * * * * * * * * //

dimensions      [0 2 -2 0 0 0 0];

internalField   nonuniform List<symmTensor> 
40
(
(1.08789e+22 -4.77793e+16 1.25862e+18 1.08806e+22 8.84751e+14 1.08821e+22)
(5.12375e+21 -2.50375e+17 1.6422e+18 5.12477e+21 8.56226e+17 5.13268e+21)
(7.81966e+21 1.19215e+15 -7.5426e+17 7.81565e+21 -5.69948e+17 7.8215e+21)
(1.09961e+22 6.52649e+17 3.42535e+18 1.09962e+22 -2.02964e+15 1.09996e+22)
(1.70868e+22 5.50029e+17 2.04372e+18 1.70886e+22 -3.8633e+17 1.7089e+22)
(6.34679e+22 -1.86679e+18 8.84928e+18 6.34755e+22 3.02094e+18 6.34775e+22)
(1.75138e+22 -1.05595e+18 2.62206e+18 1.75145e+22 -9.67215e+16 1.75151e+22)
(9.33506e+21 2.1158e+17 1.29998e+18 9.3369e+21 -7.68945e+16 9.33745e+21)
(2.67899e+22 8.88079e+17 3.25765e+18 2.67933e+22 1.85784e+16 2.67941e+22)
(1.92269e+22 3.41975e+17 2.39808e+18 1.92286e+22 -4.21992e+17 1.92294e+22)
(1.04179e+23 -3.12683e+18 3.80326e+18 1.04186e+23 1.63626e+18 1.04187e+23)
(6.80069e+22 -6.05379e+17 1.56513e+18 6.80105e+22 1.48278e+18 6.80104e+22)
(5.2914e+22 -2.64729e+17 2.32057e+18 5.29167e+22 4.18106e+17 5.29163e+22)
(3.86829e+22 -2.08764e+17 3.10912e+18 3.86857e+22 5.07944e+17 3.86868e+22)
(1.5893e+22 5.00043e+16 1.61552e+18 1.58935e+22 3.3815e+17 1.58941e+22)
(1.59103e+23 -2.5671e+18 1.26453e+18 1.59107e+23 1.5212e+17 1.59108e+23)
(2.02011e+23 -1.02819e+18 2.4094e+18 2.02012e+23 3.7988e+18 2.02011e+23)
(1.43117e+23 -9.28853e+17 3.09596e+18 1.43118e+23 1.30518e+18 1.43118e+23)
(7.62873e+22 -6.65787e+17 3.5344e+18 7.62895e+22 8.92131e+17 7.62899e+22)
(3.0704e+22 -2.76968e+17 2.07763e+18 3.07049e+22 4.7049e+17 3.07054e+22)
(1.11493e+23 4.65598e+18 1.68237e+18 1.11512e+23 3.31771e+17 1.11504e+23)
(7.01774e+22 6.87454e+17 6.58724e+16 7.01839e+22 8.38217e+16 7.01822e+22)
(2.46677e+22 1.05388e+17 3.16432e+17 2.46712e+22 5.0583e+16 2.46717e+22)
(1.27964e+22 3.79629e+17 1.43965e+18 1.27981e+22 -6.94384e+16 1.28027e+22)
(5.06476e+21 1.09019e+17 1.09321e+18 5.06359e+21 -3.28653e+17 5.0658e+21)
(1.62018e+23 1.84489e+18 2.27459e+18 1.62033e+23 1.63099e+18 1.62029e+23)
(5.21509e+23 9.31709e+17 5.64996e+17 5.21524e+23 6.99964e+17 5.21517e+23)
(7.61164e+22 -7.96442e+17 3.53042e+17 7.61196e+22 1.36044e+17 7.61195e+22)
(2.88319e+22 -7.11073e+16 8.91129e+17 2.88347e+22 -5.63477e+16 2.88354e+22)
(2.02234e+22 1.90497e+17 3.37672e+17 2.02244e+22 -1.05549e+17 2.02244e+22)
(1.77679e+23 3.15367e+18 1.02958e+18 1.77679e+23 1.58377e+18 1.77679e+23)
(7.78402e+23 -6.18566e+17 5.23499e+17 7.78412e+23 9.97725e+17 7.78407e+23)
(4.4493e+23 -3.08879e+18 2.17517e+17 4.44936e+23 1.6712e+17 4.44935e+23)
(8.47036e+22 -4.01467e+17 7.16286e+17 8.47064e+22 1.22983e+17 8.47057e+22)
(4.50367e+22 7.74382e+17 6.14734e+17 4.50417e+22 1.55788e+17 4.50408e+22)
(2.40192e+23 2.36966e+18 -3.73174e+17 2.40192e+23 -1.78566e+17 2.40192e+23)
(1.10061e+23 -4.32499e+17 -3.77817e+17 1.10064e+23 1.15883e+18 1.10066e+23)
(6.33944e+23 -4.46844e+18 1.43236e+18 6.33948e+23 5.60457e+17 6.33948e+23)
(9.54998e+22 -1.05936e+18 1.09876e+18 9.55022e+22 2.95991e+17 9.55018e+22)
(3.12925e+22 -9.96747e+16 9.61455e+17 3.12951e+22 2.16064e+17 3.12948e+22)
)
;

boundaryField
{
    inlet
    {
        type            calculated;
        value           nonuniform 0();
    }
    outlet
    {
        type            calculated;
        value           nonuniform 0();
    }
    bottom
    {
        type            calculated;
        value           nonuniform 0();
    }
    top
    {
        type            symmetryPlane;
    }
    side1
    {
        type            symmetryPlane;
    }
    side2
    {
        type            symmetryPlane;
    }
    procBoundary66to2
    {
        type            processor;
        value           nonuniform List<symmTensor> 
20
(
(-1.47191e+19 -7.02303e+18 2.38709e+19 4.56746e+18 -3.24146e+18 1.52421e+19)
(-1.29795e+19 -2.34894e+18 5.74386e+18 5.74603e+17 5.08423e+17 4.76394e+18)
(-4.6229e+18 -4.40247e+16 6.2475e+18 7.92256e+17 -9.36318e+16 -4.72918e+17)
(-6.32039e+17 -4.78049e+17 9.36255e+18 2.07651e+18 -1.12867e+18 -2.29523e+18)
(-1.40351e+18 -9.65087e+17 6.1144e+18 1.29232e+18 -4.43543e+17 1.42765e+17)
(-1.54601e+19 -6.68873e+18 1.99331e+19 2.01709e+17 -1.45655e+18 9.1022e+18)
(-8.43371e+18 -4.74137e+18 1.54234e+19 2.75573e+17 -5.91298e+17 6.34676e+18)
(-2.15059e+18 8.8233e+17 4.21439e+18 1.18811e+17 -8.07891e+17 1.52194e+18)
(-8.72836e+17 2.18099e+17 5.39734e+18 2.19234e+17 -1.11542e+18 2.63029e+16)
(-2.71492e+17 -6.181e+17 2.98584e+18 8.47573e+16 4.55499e+16 3.62925e+16)
(-7.60443e+18 -2.63983e+18 1.78112e+19 -1.093e+18 2.68052e+18 7.81249e+18)
(-1.86219e+18 -1.1777e+18 7.69886e+18 -6.71757e+17 -1.07405e+17 1.74275e+18)
(3.221e+17 1.95476e+17 3.94051e+18 -6.09436e+17 -3.43804e+17 1.21763e+18)
(-8.4049e+17 -9.58534e+16 4.14911e+18 -6.50737e+17 4.80654e+17 5.2866e+17)
(-6.32672e+17 -2.73942e+17 3.37396e+18 -3.43159e+17 3.63976e+17 3.79611e+17)
(-4.64498e+18 -1.91267e+18 9.37855e+18 -1.89061e+18 4.38967e+18 4.14394e+18)
(-8.7828e+17 -5.10705e+17 2.95103e+18 -1.1218e+18 2.67321e+18 -2.16642e+17)
(-5.24237e+15 -2.37184e+16 3.66034e+18 -8.69424e+17 9.62237e+17 2.13638e+16)
(-3.85356e+17 -2.64456e+16 5.01279e+18 -7.80626e+17 1.59569e+18 5.60463e+17)
(-4.0535e+17 8.04365e+16 3.20015e+18 -6.04938e+17 8.89222e+17 8.80455e+17)
)
;
    }
    procBoundary66to65
    {
        type            processor;
        value           nonuniform List<symmTensor> 8((-1.13873e+19 -1.36064e+18 5.71661e+18 6.03062e+18 -3.12639e+17 7.36562e+18) (-4.98055e+18 -2.06916e+18 3.82869e+18 2.30182e+18 3.70294e+17 2.46948e+18) (-1.82576e+19 -1.56039e+19 1.88613e+19 5.14494e+18 4.20363e+18 7.56018e+18) (-1.09727e+19 -5.59347e+18 4.5749e+18 6.48135e+18 1.39568e+18 5.28924e+18) (-5.51208e+18 3.157e+18 7.73695e+17 5.57893e+18 4.84429e+16 1.08832e+18) (-1.50217e+19 3.86968e+18 3.78524e+18 9.34597e+18 1.23347e+18 2.29294e+18) (-2.6863e+18 -9.03709e+17 2.80293e+18 5.56029e+17 1.35534e+18 8.67106e+17) (3.52283e+18 -3.75856e+18 2.69166e+18 -1.09265e+18 -6.76064e+16 2.46813e+17));
    }
    procBoundary66to67
    {
        type            processor;
        value           nonuniform List<symmTensor> 8((-8.89096e+16 1.07058e+16 1.21116e+17 8.32422e+16 -5.41751e+16 1.06719e+17) (-3.27167e+17 -2.04159e+16 4.70269e+17 1.02575e+17 -6.45781e+16 1.66016e+17) (2.93324e+16 5.25531e+16 9.0794e+17 -2.67137e+17 5.66157e+17 5.3369e+17) (-3.91943e+17 -1.30724e+17 -3.13226e+17 -2.83038e+17 1.96696e+17 1.08791e+18) (2.51387e+17 3.36298e+17 7.15251e+16 -6.66734e+17 -2.40702e+17 4.26135e+17) (-1.22719e+18 2.36936e+17 2.48582e+17 7.22781e+17 -1.76322e+17 4.16432e+17) (-3.00291e+18 3.11543e+17 3.49433e+17 1.35862e+18 4.76921e+17 8.31107e+17) (1.05081e+18 7.35649e+17 -2.87925e+16 -1.63087e+17 1.13e+17 9.05118e+16));
    }
    procBoundary66to82
    {
        type            processor;
        value           nonuniform List<symmTensor> 10((-2.63914e+18 -3.12842e+18 1.36899e+18 1.4761e+18 1.87744e+18 1.26851e+18) (-8.0866e+17 -1.05667e+18 9.50421e+17 3.2488e+17 2.17544e+18 6.04309e+17) (-5.98822e+17 -7.536e+17 1.63021e+18 4.5914e+17 1.76694e+18 9.49498e+17) (-3.61467e+17 -5.75805e+17 2.49238e+18 5.26959e+17 7.89886e+17 6.6113e+17) (-4.30641e+17 -6.7124e+17 1.85535e+18 4.38044e+17 5.10015e+17 2.18329e+17) (-1.10038e+17 -7.63078e+17 -9.07233e+16 2.16803e+18 -2.08469e+17 1.15553e+18) (4.72627e+18 -3.78728e+18 4.02184e+17 -7.01636e+18 2.0928e+18 1.41962e+18) (2.90586e+18 -4.59062e+18 1.13e+18 -1.90565e+18 1.1366e+18 1.068e+18) (1.82441e+17 -2.1481e+18 7.20861e+17 -5.14724e+17 2.48594e+17 6.37097e+17) (-3.43181e+17 -1.08307e+18 5.08819e+17 -1.78921e+17 1.15467e+17 3.87015e+17));
    }
}


// ************************************************************************* //
