/*--------------------------------*- C++ -*----------------------------------*\
| =========                 |                                                 |
| \\      /  F ield         | OpenFOAM: The Open Source CFD Toolbox           |
|  \\    /   O peration     | Version:  2.4.0                                 |
|   \\  /    A nd           | Web:      www.OpenFOAM.org                      |
|    \\/     M anipulation  |                                                 |
\*---------------------------------------------------------------------------*/
FoamFile
{
    version     2.0;
    format      ascii;
    class       surfaceScalarField;
    location    "0.01";
    object      phib;
}
// * * * * * * * * * * * * * * * * * * * * * * * * * * * * * * * * * * * * * //

dimensions      [0 3 -1 0 0 0 0];

internalField   nonuniform List<scalar> 
82
(
-1.12399e+06
-16497.4
207166
-1.112e+06
24280.2
275740
-1.14849e+06
191238
343655
-1.03679e+06
106493
326005
-51297.3
123936
-1.42763e+06
-153738
307055
-1.52616e+06
64609.9
378207
-1.34337e+06
114284
439351
-1.04678e+06
-42463.7
366685
-99191.6
217666
-1.75731e+06
-505982
83567
-1.42819e+06
-403904
658413
-1.02693e+06
-226646
450442
-723939
-104741
276753
-79394.1
216274
-1.15965e+06
384912
-1.39608e+06
1.12203e+06
-1.09615e+06
550249
-786778
254592
162440
-2.93833e+06
-593135
-2.13122e+06
-531363
-1.53914e+06
-248428
-1.34419e+06
131055
193282
-5.67266e+06
-1.63288e+06
-3.47002e+06
-2.3558e+06
-2.8813e+06
-397793
-2.4254e+06
41838.4
-15758
-7.64441e+06
-1.52661e+06
-4.80455e+06
-4.53724e+06
-3.43259e+06
-1.3193e+06
-2.52849e+06
-585513
-552701
-6.70433e+06
-5.63819e+06
-4.22152e+06
-3.33931e+06
)
;

boundaryField
{
    inlet
    {
        type            fixedValue;
        value           nonuniform 0();
    }
    outlet
    {
        type            calculated;
        value           nonuniform 0();
    }
    bottom
    {
        type            fixedValue;
        value           nonuniform 0();
    }
    top
    {
        type            symmetryPlane;
        value           nonuniform List<scalar> 
20
(
-2.85399e-17
-6.25198e-17
-1.22007e-16
-4.05494e-16
-3.25813e-17
-7.87586e-17
-3.74311e-16
-3.50596e-16
-1.82447e-17
-5.49841e-17
-8.16082e-17
-7.96288e-17
-1.8134e-17
-6.62411e-17
-4.30438e-17
-4.82293e-17
-3.58541e-17
-4.77063e-17
-3.56498e-17
-8.08765e-17
)
;
    }
    side1
    {
        type            symmetryPlane;
        value           uniform 0;
    }
    side2
    {
        type            symmetryPlane;
        value           nonuniform 0();
    }
    procBoundary66to2
    {
        type            processor;
        value           nonuniform List<scalar> 
20
(
-310597
-312009
-498404
-544203
-267929
-427616
-320015
-545178
-514320
-364080
-484802
-519018
-510773
-517468
-299079
-488940
-672252
-707984
-438254
-269606
)
;
    }
    procBoundary66to65
    {
        type            processor;
        value           nonuniform List<scalar> 8(1.24392e+06 1.68543e+06 2.51079e+06 1.59477e+06 3.73863e+06 7.01946e+06 7.62171e+06 7.53373e+06);
    }
    procBoundary66to67
    {
        type            processor;
        value           nonuniform List<scalar> 8(-841496 -852474 -660931 -659404 -1.41354e+06 -1.99869e+06 -1.77527e+06 -3.00157e+06);
    }
    procBoundary66to82
    {
        type            processor;
        value           nonuniform List<scalar> 10(-837068 -617257 -368846 -230447 -99601.8 -1.97111e+06 -4.48135e+06 -2.18573e+06 -1.21313e+06 -728006);
    }
}


// ************************************************************************* //
