/*--------------------------------*- C++ -*----------------------------------*\
| =========                 |                                                 |
| \\      /  F ield         | OpenFOAM: The Open Source CFD Toolbox           |
|  \\    /   O peration     | Version:  2.4.0                                 |
|   \\  /    A nd           | Web:      www.OpenFOAM.org                      |
|    \\/     M anipulation  |                                                 |
\*---------------------------------------------------------------------------*/
FoamFile
{
    version     2.0;
    format      ascii;
    class       volScalarField;
    location    "0.03";
    object      alpha;
}
// * * * * * * * * * * * * * * * * * * * * * * * * * * * * * * * * * * * * * //

dimensions      [0 0 0 0 0 0 0];

internalField   nonuniform List<scalar> 
200
(
6.4745e-26
6.69171e-24
6.37675e-22
5.42163e-20
3.96738e-18
2.35593e-16
1.01617e-14
2.40996e-13
1.01619e-14
2.35792e-16
2.25607e-28
2.20773e-26
1.98475e-24
1.58424e-22
1.08201e-20
5.95398e-19
2.35894e-17
5.08689e-16
2.35902e-17
5.971e-19
6.87542e-31
6.40245e-29
5.46003e-27
4.11641e-25
2.64158e-23
1.35696e-21
4.97832e-20
9.84288e-19
4.97858e-20
1.36507e-21
1.90792e-33
1.69427e-31
1.37397e-29
9.81257e-28
5.93798e-26
2.86058e-24
9.77403e-23
1.78399e-21
9.77471e-23
2.88644e-24
4.43195e-28
4.33076e-26
3.88704e-24
3.0973e-22
2.11188e-20
1.16061e-18
4.59599e-17
9.91288e-16
4.6074e-17
3.40267e-18
1.61934e-30
1.50577e-28
1.28213e-26
9.65086e-25
6.18408e-23
3.17323e-21
1.16368e-19
2.30124e-18
1.16682e-19
8.84907e-21
5.19155e-33
4.60988e-31
3.73803e-29
2.66934e-27
1.61526e-25
7.78232e-24
2.65998e-22
4.85675e-21
2.66768e-22
2.07478e-23
1.51383e-35
1.28589e-33
9.94884e-32
6.75518e-30
3.87078e-28
1.75723e-26
5.62378e-25
9.53591e-24
5.64115e-25
4.497e-26
1.63925e-30
1.52825e-28
1.30691e-26
9.91367e-25
6.44623e-23
3.40989e-21
1.34601e-19
3.40185e-18
4.59208e-17
9.88967e-16
6.2838e-33
5.5992e-31
4.56506e-29
3.28992e-27
2.02405e-25
1.00818e-23
3.72934e-22
8.83901e-21
1.16035e-19
2.29523e-18
2.11729e-35
1.80746e-33
1.40853e-31
9.67157e-30
5.64846e-28
2.65971e-26
9.26343e-25
2.06945e-23
2.64417e-22
4.84278e-21
6.48052e-38
5.30781e-36
3.95962e-34
2.59489e-32
1.44157e-30
6.43381e-29
2.11731e-27
4.47804e-26
5.57339e-25
9.50595e-24
4.80176e-30
5.681e-28
6.37549e-26
6.64998e-24
6.33884e-22
5.39113e-20
3.94644e-18
2.34436e-16
1.01157e-14
2.39998e-13
1.84507e-32
2.08058e-30
2.21961e-28
2.19311e-26
1.97218e-24
1.5747e-22
1.07586e-20
5.92226e-19
2.34726e-17
5.06364e-16
6.1451e-35
6.63331e-33
6.75842e-31
6.35765e-29
5.42332e-27
4.08998e-25
2.62548e-23
1.34917e-21
4.95155e-20
9.79367e-19
1.85708e-37
1.92221e-35
1.87387e-33
1.68177e-31
1.36419e-29
9.74562e-28
5.89937e-26
2.84296e-24
9.71734e-23
1.77431e-21
3.66043e-32
4.12241e-30
4.39122e-28
4.33123e-26
3.88731e-24
3.09741e-22
2.11191e-20
1.1606e-18
4.59589e-17
9.91237e-16
1.46244e-34
1.57645e-32
1.60367e-30
1.50595e-28
1.28222e-26
9.65123e-25
6.18413e-23
3.17318e-21
1.16363e-19
2.30105e-18
5.09475e-37
5.27258e-35
5.13875e-33
4.61039e-31
3.73828e-29
2.66942e-27
1.61526e-25
7.78208e-24
2.65981e-22
4.85624e-21
1.60934e-39
1.60143e-37
1.49773e-35
1.28602e-33
9.9494e-32
6.7553e-30
3.87072e-28
1.75715e-26
5.62333e-25
9.53468e-24
)
;

boundaryField
{
    inlet
    {
        type            zeroGradient;
    }
    outlet
    {
        type            zeroGradient;
    }
    bottom
    {
        type            fixedValue;
        value           uniform 0;
    }
    top
    {
        type            symmetryPlane;
    }
    side1
    {
        type            symmetryPlane;
    }
    side2
    {
        type            symmetryPlane;
    }
    procBoundary24to16
    {
        type            processor;
        value           nonuniform List<scalar> 
50
(
1.56367e-23
1.71671e-21
1.74497e-19
1.59129e-17
1.25729e-15
8.12633e-14
3.85216e-12
1.01491e-10
3.85216e-12
8.12644e-14
1.021e-25
1.05318e-23
1.00136e-21
8.49314e-20
6.20033e-18
3.67518e-16
1.5842e-14
3.7578e-13
1.58778e-14
1.14019e-15
3.61147e-28
3.53326e-26
3.17962e-24
2.54786e-22
1.75823e-20
9.92591e-19
4.20612e-17
1.14047e-15
1.58419e-14
3.75006e-13
1.04114e-27
1.29859e-25
1.54111e-23
1.70666e-21
1.73528e-19
1.58297e-17
1.25116e-15
8.08977e-14
3.83635e-12
1.01116e-10
7.64965e-30
9.03568e-28
1.01207e-25
1.05327e-23
1.00141e-21
8.49335e-20
6.20038e-18
3.67518e-16
1.58419e-14
3.75779e-13
)
;
    }
    procBoundary24to25
    {
        type            processor;
        value           nonuniform List<scalar> 
20
(
3.97908e-18
1.09157e-20
2.6874e-23
6.08907e-26
1.32801e-19
3.63433e-22
8.95341e-25
2.03495e-27
4.55407e-17
1.14343e-19
2.59662e-22
5.46189e-25
1.01148e-14
2.34704e-17
4.95108e-20
9.71641e-23
4.59544e-17
1.16351e-19
2.65955e-22
5.62278e-25
)
;
    }
}


// ************************************************************************* //
