/*--------------------------------*- C++ -*----------------------------------*\
| =========                 |                                                 |
| \\      /  F ield         | OpenFOAM: The Open Source CFD Toolbox           |
|  \\    /   O peration     | Version:  2.4.0                                 |
|   \\  /    A nd           | Web:      www.OpenFOAM.org                      |
|    \\/     M anipulation  |                                                 |
\*---------------------------------------------------------------------------*/
FoamFile
{
    version     2.0;
    format      ascii;
    class       volVectorField;
    location    "0.03";
    object      Ua;
}
// * * * * * * * * * * * * * * * * * * * * * * * * * * * * * * * * * * * * * //

dimensions      [0 1 -1 0 0 0 0];

internalField   nonuniform List<vector> 
200
(
(16.0317 -3.53431 2.0674)
(16.0316 -3.53432 2.06738)
(16.0314 -3.53433 2.06735)
(16.0313 -3.53435 2.06732)
(16.0312 -3.53436 2.0673)
(16.0311 -3.53438 2.06727)
(16.031 -3.53439 2.06725)
(16.0309 -3.53441 2.06723)
(16.0309 -3.5344 2.06723)
(16.0309 -3.53436 2.06737)
(16.0321 -3.53426 2.06751)
(16.032 -3.53428 2.06747)
(16.0318 -3.53429 2.06744)
(16.0316 -3.53431 2.0674)
(16.0315 -3.53433 2.06736)
(16.0313 -3.53436 2.06732)
(16.0311 -3.53438 2.06727)
(16.0309 -3.53441 2.06723)
(16.0309 -3.5344 2.06723)
(16.0309 -3.53436 2.06738)
(16.0324 -3.53426 2.06757)
(16.0322 -3.53427 2.06753)
(16.0321 -3.53429 2.06749)
(16.0319 -3.53431 2.06744)
(16.0317 -3.53433 2.0674)
(16.0315 -3.53436 2.06735)
(16.0312 -3.53438 2.06729)
(16.031 -3.53441 2.06723)
(16.031 -3.5344 2.06723)
(16.0309 -3.53436 2.06739)
(16.0327 -3.51588 2.06763)
(16.0325 -3.51678 2.06758)
(16.0323 -3.51768 2.06753)
(16.0321 -3.51859 2.06748)
(16.0319 -3.5195 2.06743)
(16.0316 -3.52042 2.06737)
(16.0313 -3.52136 2.06731)
(16.031 -3.5223 2.06723)
(16.031 -3.52137 2.06723)
(16.0309 -3.5204 2.0674)
(16.032 -3.53428 2.06747)
(16.0318 -3.53429 2.06744)
(16.0317 -3.53431 2.0674)
(16.0315 -3.53432 2.06737)
(16.0313 -3.53434 2.06733)
(16.0312 -3.53436 2.0673)
(16.0311 -3.53438 2.06727)
(16.0309 -3.5344 2.06726)
(16.028 -3.52813 2.08914)
(15.2399 -1.85131 7.94616)
(16.0324 -3.53424 2.06757)
(16.0322 -3.53426 2.06753)
(16.032 -3.53427 2.06748)
(16.0318 -3.53429 2.06744)
(16.0316 -3.53431 2.06739)
(16.0314 -3.53434 2.06735)
(16.0312 -3.53437 2.0673)
(16.0309 -3.53439 2.06727)
(16.0278 -3.52765 2.09082)
(15.2623 -1.89908 7.7793)
(16.0327 -3.53424 2.06763)
(16.0325 -3.53425 2.06758)
(16.0322 -3.53427 2.06753)
(16.032 -3.53429 2.06748)
(16.0318 -3.53431 2.06743)
(16.0315 -3.53434 2.06738)
(16.0313 -3.53437 2.06732)
(16.0309 -3.53439 2.06727)
(16.0276 -3.5272 2.09241)
(15.2839 -1.94504 7.61875)
(16.0329 -3.51494 2.06768)
(16.0327 -3.51584 2.06763)
(16.0325 -3.51674 2.06758)
(16.0322 -3.51765 2.06752)
(16.032 -3.51856 2.06747)
(16.0317 -3.51948 2.0674)
(16.0313 -3.52042 2.06734)
(16.0309 -3.52136 2.06728)
(16.0274 -3.51282 2.09399)
(15.3044 -1.98055 7.46598)
(16.0049 -3.47603 2.271)
(15.9992 -3.46428 2.31207)
(15.9911 -3.4475 2.37069)
(15.9789 -3.42194 2.46002)
(15.959 -3.3798 2.60727)
(15.9224 -3.30227 2.87819)
(15.8434 -3.13429 3.4651)
(15.6231 -2.66518 5.10407)
(14.8336 -0.983666 10.9783)
(14.8293 -0.977268 10.9992)
(16.004 -3.47318 2.28095)
(15.998 -3.46086 2.32398)
(15.9895 -3.44327 2.38547)
(15.9766 -3.4164 2.47938)
(15.9556 -3.372 2.63453)
(15.9169 -3.29011 2.92068)
(15.8334 -3.11259 3.54099)
(15.6031 -2.62238 5.25368)
(14.834 -0.984194 10.9766)
(14.8291 -0.977252 10.9992)
(16.0034 -3.47137 2.28734)
(15.9972 -3.45857 2.33206)
(15.9883 -3.44024 2.3961)
(15.9749 -3.41219 2.49415)
(15.9528 -3.36571 2.65657)
(15.9122 -3.27977 2.95688)
(15.8244 -3.09333 3.60832)
(15.585 -2.58375 5.3887)
(14.8343 -0.984737 10.9747)
(14.829 -0.977238 10.9991)
(16.0029 -3.44981 2.29331)
(15.9964 -3.43748 2.3397)
(15.9872 -3.4194 2.40627)
(15.9732 -3.39116 2.50844)
(15.9501 -3.3437 2.6781)
(15.9076 -3.255 2.99238)
(15.8157 -3.0616 3.67388)
(15.5679 -2.53707 5.51639)
(14.8345 -0.9814 10.9728)
(14.8288 -0.973625 10.999)
(14.8335 -0.979556 10.9946)
(14.8331 -0.97901 10.9964)
(14.8328 -0.978556 10.9978)
(14.8324 -0.978185 10.9989)
(14.8321 -0.977893 10.9997)
(14.8318 -0.977672 11.0003)
(14.8315 -0.977518 11.0006)
(14.8312 -0.977418 11.0006)
(14.8307 -0.977356 11.0003)
(14.8294 -0.97728 10.9994)
(14.834 -0.979634 10.9949)
(14.8336 -0.979076 10.9966)
(14.8332 -0.978608 10.9981)
(14.8328 -0.978222 10.9992)
(14.8325 -0.977915 11)
(14.8321 -0.977682 11.0006)
(14.8317 -0.977517 11.0008)
(14.8313 -0.977411 11.0008)
(14.8307 -0.977345 11.0004)
(14.8292 -0.977262 10.9992)
(14.8344 -0.979767 10.9948)
(14.8339 -0.979181 10.9966)
(14.8335 -0.978688 10.9981)
(14.8331 -0.978279 10.9993)
(14.8327 -0.977952 11.0002)
(14.8323 -0.977703 11.0007)
(14.8319 -0.977525 11.001)
(14.8314 -0.97741 11.0009)
(14.8307 -0.977337 11.0004)
(14.8289 -0.977245 10.999)
(14.8347 -0.97433 10.9946)
(14.8342 -0.973961 10.9965)
(14.8338 -0.973686 10.9981)
(14.8333 -0.973499 10.9993)
(14.8329 -0.973397 11.0002)
(14.8325 -0.973377 11.0008)
(14.832 -0.973434 11.0011)
(14.8315 -0.973557 11.001)
(14.8306 -0.973729 11.0004)
(14.8286 -0.973882 10.9988)
(14.8331 -0.977951 10.9098)
(14.8328 -0.97781 10.9147)
(14.8326 -0.977692 10.9195)
(14.8324 -0.977594 10.9242)
(14.8321 -0.977516 10.9289)
(14.8319 -0.977456 10.9334)
(14.8316 -0.977412 10.9378)
(14.8312 -0.977378 10.942)
(14.8306 -0.977344 10.9461)
(14.8292 -0.977262 10.9494)
(14.8335 -0.977966 10.9057)
(14.8332 -0.977821 10.9106)
(14.833 -0.977698 10.9154)
(14.8327 -0.977596 10.9201)
(14.8324 -0.977515 10.9247)
(14.8321 -0.977452 10.9292)
(14.8317 -0.977405 10.9335)
(14.8313 -0.977369 10.9377)
(14.8306 -0.977334 10.9416)
(14.8289 -0.977244 10.9447)
(14.8338 -0.978 10.9018)
(14.8335 -0.977847 10.9067)
(14.8332 -0.977718 10.9114)
(14.8329 -0.97761 10.916)
(14.8326 -0.977523 10.9206)
(14.8323 -0.977456 10.925)
(14.8319 -0.977405 10.9292)
(14.8314 -0.977366 10.9333)
(14.8306 -0.977326 10.9371)
(14.8286 -0.977227 10.94)
(14.8341 -0.972211 10.8978)
(14.8338 -0.972294 10.9027)
(14.8335 -0.972401 10.9073)
(14.8332 -0.972531 10.9119)
(14.8328 -0.972684 10.9164)
(14.8324 -0.972857 10.9207)
(14.832 -0.973049 10.9249)
(14.8314 -0.973255 10.9289)
(14.8305 -0.973462 10.9326)
(14.8284 -0.973606 10.9353)
)
;

boundaryField
{
    inlet
    {
        type            calculated;
        value           uniform (0 0 0);
    }
    outlet
    {
        type            calculated;
        value           nonuniform 0();
    }
    bottom
    {
        type            calculated;
        value           uniform (0 0 0);
    }
    top
    {
        type            symmetryPlane;
    }
    side1
    {
        type            symmetryPlane;
    }
    side2
    {
        type            symmetryPlane;
    }
    procBoundary24to16
    {
        type            processor;
        value           nonuniform List<vector> 
50
(
(16.0312 -3.53438 2.06729)
(16.0312 -3.53438 2.06728)
(16.0311 -3.53439 2.06726)
(16.031 -3.5344 2.06725)
(16.031 -3.5344 2.06724)
(16.0309 -3.53441 2.06723)
(16.0309 -3.53441 2.06723)
(16.0309 -3.53441 2.06723)
(16.0309 -3.53441 2.06723)
(16.0309 -3.53438 2.06736)
(16.0314 -3.53436 2.06734)
(16.0313 -3.53437 2.06732)
(16.0312 -3.53438 2.0673)
(16.0311 -3.53439 2.06727)
(16.031 -3.5344 2.06725)
(16.0309 -3.5344 2.06724)
(16.0309 -3.53441 2.06724)
(16.0309 -3.53441 2.06725)
(16.0282 -3.52864 2.08738)
(15.2165 -1.80151 8.12013)
(16.0061 -3.4798 2.25797)
(16.0007 -3.46869 2.29681)
(15.9931 -3.45283 2.35222)
(15.9816 -3.42869 2.43656)
(15.9629 -3.38899 2.57527)
(15.9286 -3.31614 2.82979)
(15.8546 -3.15848 3.38062)
(15.6452 -2.71244 4.93892)
(14.8333 -0.983151 10.98)
(14.8294 -0.977288 10.9993)
(14.833 -0.979528 10.9941)
(14.8327 -0.97898 10.9959)
(14.8323 -0.978528 10.9974)
(14.8321 -0.978164 10.9985)
(14.8318 -0.97788 10.9994)
(14.8316 -0.977669 11)
(14.8314 -0.977523 11.0004)
(14.8311 -0.977429 11.0005)
(14.8307 -0.977369 11.0003)
(14.8297 -0.9773 10.9995)
(14.8325 -0.977962 10.914)
(14.8323 -0.97782 10.9189)
(14.8321 -0.977703 10.9237)
(14.8319 -0.977607 10.9284)
(14.8317 -0.977531 10.933)
(14.8315 -0.977473 10.9375)
(14.8313 -0.977429 10.9419)
(14.831 -0.977395 10.9463)
(14.8306 -0.97736 10.9505)
(14.8294 -0.977282 10.9541)
)
;
    }
    procBoundary24to25
    {
        type            processor;
        value           nonuniform List<vector> 
20
(
(16.0315 -3.53409 2.06783)
(16.0315 -3.5341 2.06784)
(16.0314 -3.53412 2.06784)
(16.0314 -3.51925 2.06785)
(13.9577 -1.31637 8.78072)
(14.0554 -1.35425 8.72857)
(14.1446 -1.39031 8.67505)
(14.2253 -1.41845 8.61998)
(13.4583 -0.886866 9.98268)
(13.5624 -0.893717 10.06)
(13.6526 -0.899655 10.127)
(13.7316 -0.901276 10.1856)
(13.3309 -0.878479 9.88809)
(13.4672 -0.887456 9.9893)
(13.5809 -0.89494 10.0736)
(13.6771 -0.897942 10.145)
(13.4674 -0.887473 9.93974)
(13.581 -0.894951 10.0196)
(13.6772 -0.901281 10.0864)
(13.7597 -0.903119 10.1431)
)
;
    }
}


// ************************************************************************* //
