/*--------------------------------*- C++ -*----------------------------------*\
| =========                 |                                                 |
| \\      /  F ield         | OpenFOAM: The Open Source CFD Toolbox           |
|  \\    /   O peration     | Version:  2.4.0                                 |
|   \\  /    A nd           | Web:      www.OpenFOAM.org                      |
|    \\/     M anipulation  |                                                 |
\*---------------------------------------------------------------------------*/
FoamFile
{
    version     2.0;
    format      ascii;
    class       volVectorField;
    location    "0.03";
    object      Ub;
}
// * * * * * * * * * * * * * * * * * * * * * * * * * * * * * * * * * * * * * //

dimensions      [0 1 -1 0 0 0 0];

internalField   nonuniform List<vector> 
200
(
(5.94698 -0.64 0.137165)
(6.08488 -1.17063 0.155114)
(5.68531 -2.13528 0.90392)
(7.43511 6.25456 -1.07836)
(6.51804 -2.53345 -0.487225)
(6.12483 -4.11176 0.765762)
(5.80001 -4.42242 0.945284)
(7.83961 -1.93783 0.389825)
(7.91812 -3.07305 0.0571832)
(7.34998 -5.16647 1.77089)
(5.9571 0.0190124 0.0835157)
(5.67164 -1.36799 0.274824)
(5.61737 -2.00787 0.441574)
(4.84316 -5.42646 2.78078)
(8.99032 3.1347 -0.967124)
(6.58252 -2.84376 -0.732466)
(5.69521 -6.63419 2.07272)
(5.29374 -5.38615 1.12459)
(6.03555 -4.49618 2.30487)
(4.26559 -2.18306 -1.37217)
(6.09923 0.230017 0.124041)
(5.72238 -0.96847 0.484412)
(5.05806 -2.38162 0.79621)
(4.73528 -1.51981 0.215856)
(4.05613 -5.05237 3.61331)
(7.38376 0.441207 0.667387)
(3.69382 -1.15489 -1.16882)
(3.66762 -6.51836 4.99527)
(0.408064 -0.621497 -2.83789)
(0.831491 -3.76254 2.20588)
(5.98424 -0.184518 0.221665)
(5.02041 -0.988968 1.02488)
(6.12848 0.258332 -1.18233)
(3.24565 -0.605247 0.663696)
(2.40985 -0.971873 1.89326)
(2.06292 -1.49715 1.6436)
(-0.089866 -4.67208 5.27848)
(-3.86526 1.50182 -4.74301)
(-3.60447 -3.09263 3.02588)
(-6.23103 1.40356 -5.00867)
(5.87616 -0.353928 0.106757)
(6.06026 -1.06425 0.338657)
(6.36322 -0.255036 -0.152428)
(6.58436 0.554509 0.721676)
(4.88139 -3.05721 -0.0415635)
(6.32116 -2.78366 0.91375)
(6.96752 -1.83258 0.806739)
(7.42835 -2.16876 0.818057)
(6.74539 -2.70537 0.755347)
(7.72894 0.611082 -0.91227)
(5.96832 -0.478197 0.376249)
(6.11978 -0.469504 0.301342)
(5.92394 -0.483401 1.80162)
(7.21213 1.76565 -2.38813)
(5.58192 -2.41042 -0.657445)
(5.32332 -4.33101 2.80179)
(6.83839 -3.02209 2.47031)
(7.96035 -1.55145 0.826385)
(7.65904 -1.89799 1.19023)
(7.60423 -3.32162 2.04553)
(6.01054 -0.171121 0.271267)
(5.88594 -0.852477 0.715297)
(6.20313 -0.499298 -0.249771)
(5.26821 -2.40286 2.40123)
(9.95617 9.11465 -19.1704)
(6.04914 -1.3119 0.635716)
(6.55667 -3.9105 4.9523)
(6.95567 -2.00475 2.5381)
(7.43609 -2.80036 3.0208)
(6.64037 -0.138543 0.759978)
(5.97562 -0.0839068 0.149897)
(5.58827 -0.47735 0.721594)
(5.17261 -0.576743 2.2445)
(4.08757 -0.320682 2.4415)
(5.75115 -2.61839 0.170315)
(8.6853 -1.16709 -0.589093)
(5.77489 -0.288395 2.54859)
(6.34556 -2.22345 6.16822)
(3.82943 0.271128 1.10015)
(4.53746 -2.22177 3.90665)
(6.00517 -0.2359 0.0379969)
(6.05848 -0.762638 0.0375104)
(6.17014 -0.354323 0.155015)
(6.54544 -0.584323 0.180822)
(7.07258 0.0615764 -1.02396)
(6.41978 -4.20865 -0.701214)
(5.61165 0.602715 -4.29446)
(5.7651 -0.508842 0.140064)
(7.0209 -1.0228 -0.186029)
(6.89033 -2.7896 0.936652)
(5.9131 0.13114 0.144774)
(5.99004 -0.429516 0.257712)
(6.18315 -0.68015 0.388189)
(5.95933 0.290297 -0.753112)
(5.64516 -1.31203 2.98754)
(3.99464 17.4067 -19.0577)
(7.35422 -1.61175 -1.59288)
(6.35408 -2.36445 0.819122)
(6.81042 -1.8158 0.45157)
(7.7301 1.33812 -2.03852)
(6.06257 -0.166538 0.302339)
(6.01535 -0.638251 0.677211)
(6.35633 -0.605151 0.917534)
(6.57574 -0.0230101 -0.127621)
(5.17612 -0.596788 0.308541)
(4.97321 -4.43271 3.72305)
(7.77926 -0.0691343 -3.47386)
(7.63884 -0.197541 -0.396783)
(7.06771 -0.875698 0.642458)
(7.57727 -1.71955 0.904679)
(6.03762 -0.0510777 0.377934)
(5.99474 -0.26857 0.802418)
(6.02765 -0.122452 0.387764)
(5.56424 -1.69836 0.061436)
(8.46824 3.77948 -19.2759)
(5.76126 1.06625 2.88375)
(6.55805 -1.1189 3.59087)
(6.89752 -0.614412 1.81064)
(7.53879 -0.473033 0.860354)
(7.08169 0.239466 0.432259)
(6.10504 0.13435 0.0539358)
(6.05748 -0.142749 -0.0281249)
(5.73853 -0.683724 -0.226991)
(6.12322 -0.133301 -0.990178)
(7.01856 -4.22651 -0.220269)
(5.73329 5.4435 -4.33543)
(5.13214 -2.78495 -0.67489)
(5.31998 -1.97572 -0.951256)
(4.90501 7.24766 -1.97071)
(6.65383 1.64759 -2.85428)
(6.02819 0.107732 0.0701444)
(5.9538 -0.434842 0.0204253)
(6.59576 -0.919348 0.621307)
(6.82235 -0.749041 -0.189295)
(6.35806 0.00177177 -1.0613)
(5.11123 -1.17743 0.297598)
(5.69312 -1.05076 -0.655722)
(5.17645 0.151869 -0.270919)
(6.83038 2.18686 -2.30165)
(7.18 0.5889 -2.03809)
(6.03012 0.0681925 0.0820674)
(6.04582 -0.496171 0.0261661)
(6.13529 -0.364657 0.176792)
(5.51333 -0.659654 1.34788)
(5.56433 8.6077 -2.84861)
(6.23094 -1.18262 -0.366195)
(5.58381 -1.83905 0.567661)
(5.35036 -1.06222 0.158151)
(5.87393 -0.0857667 -0.402601)
(6.78654 4.05851 -3.87972)
(6.09573 0.076491 0.0348078)
(5.99338 -0.19689 0.164934)
(5.86283 -0.261663 0.315252)
(5.71892 -0.0251292 -0.0110181)
(5.47825 -0.97035 1.09279)
(5.9262 -0.427777 0.589968)
(5.64322 -0.649343 0.422773)
(5.57397 -0.635726 0.406153)
(5.16896 -0.0502082 -0.186834)
(6.10624 -0.171801 -0.414606)
(6.00836 0.0165422 -0.052937)
(5.86159 0.252369 -0.055217)
(6.20476 0.0897948 -0.106664)
(6.08339 -0.943855 0.0171763)
(5.57261 -0.140612 -0.761495)
(5.48623 -4.59224 0.629037)
(4.57173 14.1382 -9.643)
(3.52407 2.41672 -1.07825)
(3.71736 -0.595988 -0.405154)
(3.53972 -0.383568 0.274518)
(5.9897 -0.0167931 0.00240443)
(6.0656 -0.146668 -0.0920108)
(5.63117 -1.84714 0.0767189)
(7.16769 1.58109 -0.495413)
(5.24403 0.426927 -0.550741)
(4.60461 0.568538 -1.09735)
(4.78566 -1.29497 -0.512976)
(6.86415 -0.804813 -0.426635)
(4.94535 -0.784818 1.33517)
(9.23672 -1.69093 -1.39061)
(6.14591 0.0573343 0.00654231)
(6.08118 -0.0796436 0.0652224)
(5.81638 -0.363891 0.0643684)
(6.28264 -0.61475 -0.042715)
(6.26738 -2.06325 -0.209429)
(4.62798 -0.160968 -0.450367)
(4.90757 0.989936 0.249006)
(5.32686 -0.306365 -0.137131)
(5.50805 -1.28758 -0.465606)
(4.15594 0.970903 -1.24663)
(6.00904 -0.0380609 0.0547239)
(5.97927 -0.164329 0.0678485)
(5.81798 -0.000355124 -0.225186)
(5.88853 -2.10883 0.578553)
(4.68489 9.08477 -11.2423)
(5.1889 1.27176 -0.47056)
(5.30674 -0.475121 0.312306)
(5.38209 -0.630494 0.0308899)
(4.75866 0.572669 -0.654763)
(4.78869 -0.68029 -1.40844)
)
;

boundaryField
{
    inlet
    {
        type            fixedValue;
        value           uniform (6 0 0);
    }
    outlet
    {
        type            zeroGradient;
    }
    bottom
    {
        type            fixedValue;
        value           uniform (0 0 0);
    }
    top
    {
        type            symmetryPlane;
    }
    side1
    {
        type            symmetryPlane;
    }
    side2
    {
        type            symmetryPlane;
    }
    procBoundary24to16
    {
        type            processor;
        value           nonuniform List<vector> 
50
(
(6.10061 -0.361374 0.0776373)
(6.21191 -0.295519 0.0316704)
(6.57925 -0.262518 -0.0700191)
(6.16499 -2.26724 -0.116311)
(5.68026 -2.38279 0.210001)
(6.51586 -1.79001 0.192508)
(7.42284 -1.64416 0.0747761)
(7.58664 -1.7459 0.232023)
(7.06965 -3.29655 -1.13105)
(9.17045 -1.46502 -0.241241)
(5.55042 -1.06261 -0.444537)
(6.44097 2.37335 1.48634)
(6.34061 -0.0454015 0.71414)
(5.26759 -2.17184 -1.17588)
(6.27248 -1.88477 -0.187491)
(6.6486 -1.69318 0.600219)
(6.99017 -2.39342 0.834057)
(6.84411 -2.03206 -0.569364)
(7.05778 -1.6344 -0.16997)
(7.19126 -1.91591 0.26362)
(5.9637 -0.213715 -0.0300343)
(6.10367 -0.510633 0.0238667)
(6.09548 -0.597864 0.157485)
(6.35063 -0.263586 -0.123593)
(6.46015 0.110103 -0.114624)
(7.61751 2.15115 -1.65723)
(6.70393 -1.7362 -0.0864474)
(5.56627 -2.25293 1.33404)
(6.31858 -2.17266 -0.610549)
(6.41138 3.37792 2.49626)
(5.94827 -0.20509 -0.052908)
(5.98311 -0.175306 -0.210855)
(5.6979 -2.92417 0.871562)
(4.57568 6.74081 -2.37935)
(7.64053 1.72296 -1.91942)
(6.16517 -1.6065 -0.477686)
(5.40802 -2.82123 -0.369574)
(6.61612 2.66608 -0.0472162)
(5.54835 -3.71256 0.0451115)
(5.17749 26.0582 -4.12919)
(6.01197 -0.0193163 -0.0114887)
(5.87344 -0.0301141 0.28059)
(6.13533 0.0489698 0.217261)
(5.96645 -0.254809 -0.726009)
(5.53236 -0.450815 -0.76833)
(5.8342 0.206167 -0.843202)
(4.9659 -0.153747 0.119186)
(2.88866 -0.178162 -0.394499)
(3.12757 0.304783 0.258784)
(3.28434 0.328828 -1.92062)
)
;
    }
    procBoundary24to25
    {
        type            processor;
        value           nonuniform List<vector> 
20
(
(8.08558 -2.96519 -0.429537)
(4.53019 -5.61755 2.41366)
(-1.38514 0.148679 -3.74685)
(-5.55729 -1.78636 1.0694)
(7.5157 -3.5189 3.87588)
(8.42329 -0.263469 -0.650469)
(6.46399 -2.93166 2.60096)
(2.67256 1.1555 -0.70473)
(9.27104 -1.79627 1.00362)
(7.67543 -2.44208 0.507977)
(8.57507 0.728572 -0.941785)
(7.74929 -1.01333 0.489524)
(8.71034 -2.43096 -1.38577)
(8.89031 12.2919 -10.8108)
(7.57815 -0.782416 -0.155269)
(7.13434 0.797887 -1.13732)
(3.59443 -0.278482 -1.29088)
(2.45823 0.66945 -2.10998)
(3.64315 0.198613 -1.59475)
(4.34638 2.3388 -2.49501)
)
;
    }
}


// ************************************************************************* //
