/*--------------------------------*- C++ -*----------------------------------*\
| =========                 |                                                 |
| \\      /  F ield         | OpenFOAM: The Open Source CFD Toolbox           |
|  \\    /   O peration     | Version:  2.4.0                                 |
|   \\  /    A nd           | Web:      www.OpenFOAM.org                      |
|    \\/     M anipulation  |                                                 |
\*---------------------------------------------------------------------------*/
FoamFile
{
    version     2.0;
    format      ascii;
    class       volSymmTensorField;
    location    "0.06";
    object      B;
}
// * * * * * * * * * * * * * * * * * * * * * * * * * * * * * * * * * * * * * //

dimensions      [0 2 -2 0 0 0 0];

internalField   nonuniform List<symmTensor> 
200
(
(3.5252e+06 -1.11596e+06 2209.04 3.42399e+06 -328902 3.45885e+06)
(357975 22843.8 13140.5 292115 -95785.1 332817)
(292118 -6227.74 12160.6 239085 -89880.2 286476)
(308026 2026.15 13851.5 323923 -100577 336801)
(263643 -10393.2 11660.5 196664 -81685.1 271770)
(310142 -39897.1 -2281.63 253569 -78943 294919)
(375439 -50763.6 -28792 333625 -80123.1 364252)
(767351 -99026.5 -31774.2 727811 -100584 758552)
(7.98125e+06 -27619.9 -36292.8 7.46724e+06 -151389 7.48132e+06)
(1.00187e+07 78456.3 606623 9.06875e+06 -303733 9.0964e+06)
(3.75898e+06 -1.27789e+06 15336.1 3.65513e+06 -384688 3.72105e+06)
(298242 9057.19 7373.25 262913 -112475 303090)
(714313 57480.3 15437.5 591351 -109694 653536)
(213360 -29173.8 9448.72 183169 -92442.9 239315)
(539908 -25081.9 9776.68 776321 -185910 671577)
(201045 -3425.85 39660 153173 -49323.1 223963)
(152895 -51815.3 -3978.86 199361 -84429.6 247903)
(986562 -148632 10382.4 1.0434e+06 -166844 1.07231e+06)
(3.52261e+06 -191730 -52247.8 3.27576e+06 -196625 3.33256e+06)
(2.58589e+06 -232079 136620 799625 -394683 1.23309e+06)
(4.1412e+06 -1.43647e+06 28899.4 4.06857e+06 -432113 4.16209e+06)
(350980 -8572.6 3452.29 333186 -128130 359565)
(274523 -3961.12 5402.38 255854 -129241 301538)
(1.47463e+06 108258 5780 1.20917e+06 -134859 1.34221e+06)
(125398 -12050.1 -696.772 107746 -112369 118605)
(697068 -127443 56940 912927 -217428 871097)
(2.02157e+06 20138.8 256202 1.87332e+06 -132690 1.95637e+06)
(997596 -162290 51799.2 1.04365e+06 -228797 1.36205e+06)
(6.96594e+06 -942908 -274448 7.3086e+06 -924739 7.28275e+06)
(4.05795e+06 -380464 -319695 3.13044e+06 -826550 3.06988e+06)
(4.19744e+06 -1.49324e+06 24451 4.27001e+06 -453525 4.28513e+06)
(365311 -8828.58 -1464.33 372380 -134730 386837)
(316657 -36346.2 2282.99 361417 -141662 376063)
(583406 -12515.1 12440.3 554625 -168172 600289)
(1.1054e+06 61413.1 -23201.8 709458 -174279 911721)
(213047 -16766 -72612.2 242001 -169524 241680)
(2.25946e+06 -252515 170341 2.06884e+06 -265444 2.04933e+06)
(2.11111e+06 -69315.4 349306 1.82723e+06 -484148 2.11301e+06)
(1.44016e+06 -346100 -122847 2.21734e+06 -671635 2.44598e+06)
(1.69173e+07 -698494 -91777.1 1.74431e+07 -1.30431e+06 1.73567e+07)
(2.91531e+06 -904629 40982.8 2.85288e+06 25899.2 2.89966e+06)
(26760.1 2008.04 4881.9 14438.8 2299.68 23117.6)
(30334.2 1047.5 8682.7 13315 357.877 24145.4)
(39947 -6731.23 7480.09 17864 -1736.92 32640.6)
(23572.9 5700.52 11409.5 2797.54 11983.8 21461.9)
(498926 -1903.34 4232.56 720081 8346.1 601170)
(323614 -116474 36314.4 480971 4954.28 437721)
(3.98001e+06 -65725.7 -90475.8 3.63932e+06 -28902.4 3.73878e+06)
(7.15254e+06 -104439 11186.3 6.78242e+06 -116424 6.25829e+06)
(-575320 -117749 1.05116e+06 1.65623e+06 -317247 2.1779e+06)
(3.2331e+06 -1.02974e+06 61762.4 3.17091e+06 10245.3 3.23774e+06)
(14549 441.253 3203.58 5716.06 593.659 11285.5)
(21556.4 -2181.47 3477.21 9604.5 -2215.85 17415.2)
(87641.9 -13519 11420.4 60234.1 -18856.3 72481.7)
(1.97481e+06 111110 47051.9 1.84708e+06 17074.3 1.92293e+06)
(397874 156141 118023 157124 43086.6 316756)
(8.08332e+06 -991396 128139 8.13993e+06 7019.36 7.90527e+06)
(1.59774e+06 -265469 -19396.6 1.39907e+06 -8804.41 1.51065e+06)
(1.34189e+07 1.54801e+06 -1.73666e+06 5.48663e+06 -209698 7.75578e+06)
(4.4436e+06 -773024 -546567 2.64702e+06 335079 2.7608e+06)
(3.43548e+06 -1.15512e+06 73557.5 3.4392e+06 11317.6 3.46117e+06)
(424.34 -530.279 250.256 -632.854 213.527 1320.14)
(6520.63 -5223 1047.25 3325.36 -26.6942 7910.61)
(300633 -44765.5 -14703.9 280171 -40213.4 271177)
(1.64532e+06 -28784.5 18523.7 1.49106e+06 -83725.4 1.50672e+06)
(1.92527e+06 234375 145513 925140 11967.4 1.59805e+06)
(316178 -327085 130415 176245 -67385 333664)
(2.19689e+07 -1.17207e+06 153103 2.25735e+07 -134400 2.18018e+07)
(318685 -184523 -579817 -75069.8 -106313 41750)
(4.03259e+07 5.97757e+06 -5.88522e+06 1.32838e+07 3.22748e+06 2.65177e+07)
(3.40551e+06 -1.18391e+06 74981.7 3.47211e+06 6808.98 3.46386e+06)
(5228.61 -2131.14 3287.52 8730.83 1252.89 8785.13)
(-6099.55 -5692.52 6739.08 12867.9 822.635 14105.1)
(663977 -36195.2 -34786.4 622209 -24398.8 617361)
(867647 -142379 -7955.16 752673 -29280.1 735105)
(422556 6818.89 34975.9 334846 -144342 443205)
(917013 140939 91057.3 295607 12688 729695)
(4.61134e+06 -312982 68795.4 4.83995e+06 -50221.8 4.70257e+06)
(4.32131e+07 -840330 170602 4.33973e+07 -177751 4.31045e+07)
(1.57464e+06 16959.1 -655243 -564522 364839 833133)
(2.8525e+06 -869403 44331.1 2.60855e+06 13067.2 2.69968e+06)
(152598 6532.38 5257.75 97373.4 2200.44 114946)
(253387 -21499.2 2470.99 159333 1109.48 195386)
(2.03402e+06 63022.7 5524.85 1.80674e+06 -7199.42 1.86557e+06)
(1.01072e+06 157860 46535.8 1.03565e+06 32494.2 834885)
(-63948.4 -153798 200775 77118.5 -123128 1379.05)
(-147134 -501516 -252715 654287 64104.3 625282)
(9.2973e+07 -131478 -205946 9.28775e+07 69310.8 9.2793e+07)
(9.56298e+06 456987 261750 8.68969e+06 -75586.4 9.28399e+06)
(2.31575e+07 3.48684e+06 6.07073e+06 2.75057e+07 -95128.8 2.76264e+07)
(3.51134e+06 -1.07888e+06 59547.7 3.32487e+06 1573.04 3.37601e+06)
(45584.6 -5752.25 206.806 22899.9 -248.281 31060.3)
(883256 -29831.5 -3036.71 814107 -1968.22 826226)
(3.34655e+06 97654.7 46527.8 2.97063e+06 -29290.9 3.16946e+06)
(3.00571e+06 168550 37444.5 1.56438e+06 -19395.2 2.3984e+06)
(740706 -335767 -207052 805657 -123005 640491)
(466894 -200514 -49236.1 529124 -77642.5 509463)
(1.06823e+07 -396325 -224469 1.07576e+07 63879 1.06665e+07)
(1.50544e+07 -152193 -141724 1.50333e+07 1.17364e+06 1.45891e+07)
(2.00905e+07 3.7457e+06 766326 1.50619e+07 -385684 1.83395e+07)
(3.51462e+06 -1.18881e+06 67448.6 3.49511e+06 -9595.71 3.476e+06)
(-2239.93 -5505.96 1925.15 1102.11 -155.579 -322.419)
(2.18315e+06 -85046.1 -18189.5 2.1712e+06 -295.474 2.16525e+06)
(875352 -97127.9 -4482.88 702785 -14537.3 752993)
(3.16223e+06 1.01508e+06 411865 768804 -199902 2.44624e+06)
(1.44639e+06 34452.2 -18592.3 851202 11303.1 893549)
(1.1668e+06 -503508 -232447 1.30622e+06 -167855 1.0474e+06)
(6.78289e+06 -133272 -23479 6.82649e+06 9066.58 6.78933e+06)
(4.61141e+06 -456007 -284294 4.43308e+06 617563 4.31738e+06)
(2.65092e+06 1.40992e+06 -106202 -74804.9 505537 2.39358e+06)
(3.43025e+06 -1.18953e+06 77641.5 3.42637e+06 -12429.9 3.38629e+06)
(19933.9 -672.404 -70.471 15864.1 -1409.93 12485.8)
(792988 -63788.4 -1239.25 805080 -3600.92 791827)
(2.0539e+06 -144492 -22495.9 2.18527e+06 4069.29 2.01078e+06)
(1.33129e+06 305603 -33290.9 1.14176e+06 22362.4 1.02786e+06)
(9.11686e+06 719461 161757 6.33821e+06 -225289 7.52723e+06)
(956873 -243554 44966.9 871811 -42018 964476)
(1.31089e+07 -287724 -41496.6 1.40385e+07 -173027 1.34949e+07)
(5.54415e+06 -1.10066e+06 -182313 5.52046e+06 -58549.8 5.42791e+06)
(6.01661e+06 229676 -417289 5.75534e+06 1.14997e+06 5.41616e+06)
(2.88661e+06 -983947 -11117.4 2.63592e+06 -7996.09 2.73146e+06)
(108210 2727.15 -3785.49 51695.3 -2237.67 76976.6)
(361180 -18307.7 -8736.96 250992 -2812.5 291865)
(924961 -28366.8 -7514.87 733883 32215.3 805584)
(551545 -26925 -25853.7 346952 13731.5 421070)
(191998 -57407 -35251.9 25074.2 -6755.24 113681)
(6.34304e+06 -72493.9 -116415 6.0805e+06 30382.5 6.10789e+06)
(1.51054e+06 254834 27256.9 975851 194469 1.57093e+06)
(1.21682e+07 -118548 87621.1 1.35321e+07 381554 1.70667e+07)
(754517 -322772 469646 797379 -481658 276671)
(3.45102e+06 -1.22356e+06 -19537.6 3.27752e+06 -14946.2 3.35881e+06)
(17624.6 -6038.14 -3530.55 -1012.41 -1789.81 9380.59)
(524987 -29352.5 30204.6 467510 -4064.07 479932)
(519529 -4756.19 66409.2 382469 -18948.9 454519)
(182751 2733.19 -124031 114586 -8169.15 126651)
(1.46074e+06 -193855 -174956 1.45259e+06 -15736.4 1.48301e+06)
(5.99574e+06 -356347 82954.7 5.64909e+06 1546.22 5.74453e+06)
(3.07605e+06 57689.7 -386969 2.00948e+06 231130 2.60949e+06)
(3.89612e+06 2.13992e+06 -1.3368e+06 1.29172e+06 1.32664e+06 5.598e+06)
(854718 -140419 76808.1 850621 -223342 1.08077e+06)
(3.87838e+06 -1.34761e+06 -27556.6 3.77397e+06 -15096.4 3.78547e+06)
(5281.53 863.253 -3396.1 1042.03 -1629.64 2525.24)
(753820 -30672.1 -27355.7 707244 -3138.89 713786)
(928709 -37329.8 7677.9 814749 -9392.08 854465)
(801.996 52872 80957 23582 -110803 88121.8)
(243069 -108880 -71729.8 192144 -16402.4 194627)
(1.52816e+06 -72876 -10730 1.53949e+06 -1412.37 1.52649e+06)
(2.43619e+06 -953376 293253 2.51391e+06 -14788.8 2.32263e+06)
(2.28951e+06 168873 -96123.9 2.0486e+06 198488 2.25631e+06)
(2.02145e+06 963496 -829822 669801 466587 2.72781e+06)
(4.01644e+06 -1.35827e+06 -52006.8 3.99929e+06 -17239.2 3.9609e+06)
(52029 -5025.88 -3028.16 48675.2 -6.10039 48148.3)
(410937 -43535.1 -59248.3 372048 -15936.9 381959)
(565403 -25714.3 -46141.6 582010 42778.8 558240)
(130056 -2614.6 3876.81 58923.9 12442.1 94965.3)
(68779.3 -196563 121141 61506.2 -96693.9 105274)
(4.66293e+06 -462872 33203.1 4.66969e+06 -51251.2 4.49661e+06)
(215712 -1566.83 80550.7 -1.01722e+06 -204605 -152323)
(1.2763e+06 -102311 249260 1.97465e+06 442322 1.38535e+06)
(607241 229231 -7188.69 644250 331195 827313)
(3.09951e+06 -1.0321e+06 -6088.18 2.8521e+06 2583.43 2.97152e+06)
(100842 8887.9 -1354.48 47662.3 -454.835 77139.8)
(536823 7348.79 -6503.4 436174 988.721 477220)
(261604 -51405.5 -8728.11 133918 10370.4 221881)
(31833.7 -10445.2 -55732.9 115894 19741.4 121648)
(139035 -7793.44 -27979 47977.2 2875.28 128820)
(463281 -65706.4 -10230.1 276362 -4684.49 428915)
(666105 -61095 -54029.1 613934 -7093.74 765001)
(4.60693e+06 -37360.8 -81255.6 4.16029e+06 -34297.7 4.40528e+06)
(1.60173e+06 22104 44722 992175 1051.23 1.42866e+06)
(3.83414e+06 -1.24881e+06 4681.19 3.65736e+06 -11825.3 3.74788e+06)
(36866.8 -3857.44 -1456.16 22672 -948.15 31468.5)
(52221 -11781.2 -198.679 23314.3 -1129.79 48529.7)
(1.56906e+06 43901 2945.8 1.33152e+06 642.553 1.38121e+06)
(179560 -2029.29 16723.6 65851.3 32117.7 26199.8)
(244468 -243719 -92896.1 772038 38163.1 676977)
(571743 -80603.3 -9165.26 540049 30984.9 589207)
(1.73922e+06 -249870 30672.7 1.57384e+06 89816 1.55669e+06)
(786148 -277365 4677.59 1.03963e+06 -31622.7 1.1951e+06)
(3.34611e+06 -114450 -208026 2.63666e+06 -21969.2 3.00547e+06)
(3.99308e+06 -1.33551e+06 -31337.2 4.03474e+06 -16977.5 4.04182e+06)
(39918.2 -4137.59 -1546.71 37981 -709.142 39010.2)
(94942.1 -11301.7 -2288.71 87435.4 -2648.1 100352)
(232943 -34351.8 -29140.6 237022 3487.88 300939)
(520745 97342.9 -18616.9 -54809.3 -51082.3 330147)
(90338.5 -58815 -1387.77 -26301.6 58590.9 73411.7)
(489326 -353480 -117628 624207 58911.3 694673)
(619360 -250201 71555.7 684146 100049 681736)
(2.02854e+06 -166706 56009.4 2.09812e+06 21061.6 1.99532e+06)
(1.15558e+06 -275012 11340.3 1.80623e+06 -109319 1.51603e+06)
(3.53937e+06 -1.38188e+06 -41562.3 3.69911e+06 7710.2 3.65732e+06)
(195454 -25057.9 -7349.21 239204 1434.2 227995)
(198685 -34825.9 -26165 288229 -3455.91 266174)
(116719 -6291.66 -61451.5 -122010 52711.1 313097)
(425009 -81296.4 -52196.8 235155 15512.5 527415)
(927813 -21448.4 -81469.6 -300165 -107811 803724)
(509784 -118524 -71383.7 456655 127519 558140)
(92521.2 -144568 -41504.6 30312.1 132016 151415)
(5805.57 -232371 185039 402860 -89874.2 335651)
(583296 -79777.9 54859.6 994996 8023.86 683158)
)
;

boundaryField
{
    inlet
    {
        type            calculated;
        value           nonuniform List<symmTensor> 
20
(
(6.08399 -191.766 -12.7373 -2.48856 -27.1749 0.391563)
(6.68428 -193.006 10.8831 -3.79185 -29.0829 1.19165)
(-1.10317 -206.226 -7.68534 -4.06894 -30.9536 2.62991)
(-2.64185 -209.36 14.8065 1.18095 -31.7375 2.23865)
(4.86249 -180.581 15.7843 -3.58636 2.56615 1.04917)
(-2.50753 -188.942 -2.93792 -4.41196 0.948036 1.77199)
(-0.769688 -198.142 24.3721 -1.00447 0.967609 0.874016)
(-8.26134 -193.006 -0.800502 1.77125 0.566128 1.08582)
(10.1384 -171.478 -6.05024 -9.21863 1.25557 -0.462734)
(11.8158 -195.203 22.3667 -6.38144 0.139753 -1.83856)
(-1.78113 -197.423 -1.7062 -0.589788 -0.804485 -2.19194)
(1.18722 -196.86 22.6238 1.03829 -1.01731 -2.24199)
(13.9513 -178.63 12.6461 -9.73879 -0.701201 -1.36081)
(4.17417 -194.384 -15.082 -7.56989 -1.19733 -1.05774)
(6.07273 -208.416 10.2864 -2.95108 -1.15485 -2.07163)
(1.90336 -206.261 -15.7345 0.463053 -1.34113 -2.52351)
(9.66904 -181.712 -15.2817 -9.96266 0.22379 0.382809)
(7.28749 -206.962 15.4578 -7.48804 -0.969462 -0.0673478)
(-3.92562 -211.989 -15.6225 0.190902 -1.3635 0.759641)
(-9.96656 -205.553 5.61258 4.5029 0.564976 1.44103)
)
;
    }
    outlet
    {
        type            calculated;
        value           nonuniform 0();
    }
    bottom
    {
        type            calculated;
        value           nonuniform List<symmTensor> 
40
(
(5.87407 -92.2042 0.660544 -2.48856 -57.7445 -8.19997)
(4.05907 -96.6105 1.99569 -3.79185 -59.4798 6.72809)
(1.13365 -102.899 1.92593 -4.06894 -63.6993 -4.72949)
(-3.89781 -104.496 1.67919 1.18095 -65.635 9.54841)
(8.98967 6.4174 5.47083 -9.51198 -53.6995 7.69977)
(1.63687 2.37069 2.6965 -7.61033 -59.5277 -4.12491)
(0.594307 -2.0874 1.63296 -3.73849 -63.6251 10.2003)
(-2.19365 -2.10058 -1.64521 -0.511726 -64.9929 -4.09347)
(5.81676 -1.77058 7.39713 -9.26076 -49.1088 -1.09957)
(19.4571 15.0799 5.03554 -12.8019 -56.5956 9.96309)
(-3.19175 -0.967472 1.5091 -7.7517 -64.9635 -2.62434)
(-9.4787 -8.27813 -0.214575 0.715783 -66.3427 10.7187)
(-1.74202 0.517144 7.24925 2.31555 -51.9145 9.99466)
(-0.661715 -7.52516 11.5729 -8.44923 -37.2517 3.52029)
(36.801 26.2226 0.731395 -27.4978 -63.6082 13.7003)
(3.09342 -2.64709 -0.506965 -2.99393 -73.1552 0.0546328)
(3.20362 -3.55594 6.17648 -19.7127 -50.7032 1.35818)
(-18.1589 -4.27561 1.33662 22.1414 -61.7908 4.9874)
(-0.204826 -2.27439 16.4496 -3.53651 -16.6245 2.214)
(37.0131 12.4449 -7.20947 -43.2215 -65.563 29.5452)
(7.81342 -11.302 4.60899 -8.21268 -48.4678 11.9598)
(2.6155 -1.093 8.04383 -12.6579 -55.179 2.95211)
(-26.9499 -23.7508 2.62587 13.2783 -69.2199 -2.95007)
(-3.49373 -2.42292 -0.0252095 0.690546 -25.2017 -18.118)
(4.54453 -16.9565 2.04481 -9.42251 -51.7134 -7.79039)
(-14.8857 -13.3397 -1.89732 -2.92309 -54.5483 19.5623)
(20.9472 4.26541 50.2249 -10.4529 -63.2293 12.1086)
(27.3894 -38.4744 22.5487 -1.65388 -75.0907 -8.25706)
(1.79033 -35.276 0.562094 -12.2949 -59.7532 -8.61261)
(-11.5026 -35.2968 -11.6982 1.99578 -43.7558 -9.78764)
(-21.0022 -25.7266 11.1693 -13.7014 -46.3425 106.947)
(10.8487 -8.47634 60.7912 -23.8663 -106.937 43.5638)
(127.566 -8.57689 -13.6813 -32.0528 -81.197 -34.157)
(46.9843 -54.3095 -23.7265 -22.9399 -94.017 8.04124)
(-10.6248 -86.2733 -38.5025 20.7281 -98.4465 10.6315)
(-66.6918 -33.6106 -4.83967 8.7825 -76.3955 63.186)
(113.815 13.1056 153.187 -44.8718 -60.979 -71.2978)
(77.8811 -22.6034 -3.51287 -96.0928 -105.8 -59.1275)
(54.9206 -26.867 -24.947 -10.5767 -153.388 27.8418)
(-12.0071 -80.4052 -26.3365 48.5242 -137.465 19.8236)
)
;
    }
    top
    {
        type            symmetryPlane;
    }
    side1
    {
        type            symmetryPlane;
    }
    side2
    {
        type            symmetryPlane;
    }
    procBoundary8to0
    {
        type            processor;
        value           nonuniform List<symmTensor> 
50
(
(177465 -944217 -22631.4 -243877 -257958 -24836)
(30549.7 23263.7 23657.7 -52477 -78383.8 2914.18)
(32446 3496.72 24300 -51836.8 -80153.7 11256.4)
(32972.7 -2397.72 19573.5 -61716.5 -67677.6 12279.1)
(39494.4 -26228.5 19394.3 -47902.1 -59164.7 11637.3)
(34367.2 -45148 19385.9 -39536.8 -62617.8 9816.17)
(29938.3 -50647.4 18274.6 -46600.8 -84082.4 7541.96)
(74202.3 -87558.2 52477 -65216.9 -148327 -9529.05)
(156226 -126326 130599 -136028 -292078 -62128.8)
(8125.58 128593 153193 -24485.9 -413990 -22199.8)
(54694.4 -786802 4811.46 -68957.2 54079 23936.6)
(12171.7 3428.71 5201.72 -15074.5 4216.83 1214.87)
(16950 -1529.91 3033.22 -21242.7 5534.47 1072.15)
(17004 -10090 1025.59 -20401 5479.22 492.399)
(10886.5 -16964.4 -38.5379 -19576.8 5090.64 2626.76)
(-567.553 -38776.4 -1370.19 -2013.89 3096.15 5196.4)
(30524.7 -83815.4 -17707.9 -11174.6 994.689 -18902.8)
(111491 -151376 -18364 1012.58 -41848.7 -150978)
(76449.1 -155261 4808.52 9891.3 -26427.4 9043.2)
(121948 -36854 293173 -170673 -195930 -50361)
(107331 -680034 24329.8 -85509.2 23893.5 -5318.61)
(20233.8 15346.6 5545.37 -19610.4 6600.98 -1110.59)
(23577.6 8713.48 7246.19 -22509.1 5714.65 -5200.62)
(14133.6 7252.67 9676.84 -34467.8 5052.29 -3221.71)
(22650 23292.7 23295.8 13190.2 10602.2 -7093.37)
(-117514 -50921.8 -94333.5 -91722.1 34306 -32558.8)
(625741 -727909 -1.04288e+06 -131771 -10430.5 -149038)
(386269 -88508.4 120067 -310712 -51482.5 3056.55)
(-573912 2.19976e+06 2.67726e+06 -2.54304e+06 -1.85744e+06 248013)
(-667571 -916299 -273013 972071 563579 106926)
(168672 -725579 -7998.86 -116534 5017.85 -2606.42)
(45812.6 16855.9 1236.47 -33878.7 -973.402 -4963.45)
(67596.4 6873.59 -576.716 -47650.7 -3580.96 -4855.94)
(87542.5 16924.1 2951.33 -73708 -10830.1 -12598.8)
(132140 42847 -26471.7 -124051 -11128.2 -25173.9)
(433510 -160938 -145798 -131212 -2440.99 -43342.7)
(6402.73 -126707 76222.9 -173343 -25750.5 66892.3)
(-823561 768727 333732 -314223 225354 1.51781e+06)
(48141.4 90741.2 -34914.8 122378 -82747.1 -53844.7)
(47691 24166.7 -88998 -118889 46548.2 -7029.04)
(148752 -785764 -13894.5 -137224 -3945.43 5859.24)
(28066.5 14429.6 -3053.46 -34690.7 475.236 2188.13)
(29882.7 -2857.87 -4558.77 -31084.4 -2950.09 1908.06)
(24516 15855.3 -14640 -29789.9 -4743.63 4787.93)
(54641.7 10164.7 -21782.3 -79798.2 -8354.92 8924.36)
(49731.3 -7534.45 -13792.7 -85606.9 -14163 27273.1)
(25156.7 -24129.7 -50033.5 -85611.7 27602.2 74855.3)
(19282.6 -30331.3 -18273.7 -86699.1 13992.5 16694.4)
(121930 -100156 -36636.2 -179863 -2242.74 15984.5)
(72229.6 -58576.5 173215 -137581 -69928.5 28188)
)
;
    }
    procBoundary8to9
    {
        type            processor;
        value           nonuniform List<symmTensor> 
20
(
(-672573 -174394 369732 -283490 -713915 561328)
(1.92057e+06 1865.03 345900 -849344 -1.4529e+06 -678028)
(1.69327e+06 383610 548139 -1.70794e+06 -890706 -2.02162e+06)
(365779 -260355 -297189 -268669 -868703 -127096)
(2.88062e+06 1.7262e+06 1.50362e+06 -777518 -722701 -677789)
(-5.61194e+06 2.52463e+06 3.40761e+06 3.53319e+06 -3.26231e+06 49255.1)
(461561 -586388 -12502.9 100407 193185 -5783.49)
(3.43129e+06 4.8858e+06 -2.37238e+06 -3.75466e+06 1.78989e+06 -763785)
(523571 -1.27034e+06 -541759 535956 272154 -298385)
(203645 -174509 86737.7 -90440.8 250939 303972)
(1.67386e+06 299143 -41719.4 -923200 -121316 681236)
(198950 794046 -44248.1 -1.16304e+06 437000 202374)
(-17530.3 33776 19650.1 -41211.8 21536.2 -16062.9)
(553829 -120802 -353416 -670126 -275932 157301)
(-82064.4 -211060 -113433 11071.1 -110326 164023)
(-635272 629699 -496668 -208422 336383 445724)
(-1.90182e+06 14827 938780 -391162 -815487 407782)
(1.10612e+06 747073 -137252 -1.25733e+06 19315.2 184278)
(1.18418e+06 99471.7 -616423 -141168 -71463.9 -28686.4)
(-642990 -817305 -36877.6 676597 -161991 -98089.4)
)
;
    }
    procBoundary8to16
    {
        type            processor;
        value           nonuniform List<symmTensor> 
50
(
(-100774 -1.45186e+06 2237.85 73013.8 -446081 24149.4)
(-24995.9 -9391.44 -2656.32 17031.2 -135576 10079.1)
(-28412.2 -18112.1 -8124.87 14433.7 -144979 13465.5)
(-111578 -48823.1 -277.169 38103.4 -166589 33621.1)
(82135.3 -22552.3 30291.4 -5768.5 -234120 48742.6)
(255862 -4537 20984.4 -239492 -231095 -190140)
(-22456.5 -209272 -187066 -39054 -330132 -42605)
(165308 -454498 38526.8 35534.2 -433730 -136663)
(-55471.9 -192722 455827 -83589 -648242 -80671.9)
(-721781 -551420 -83991.3 300220 -821718 408160)
(-79665.5 -1.20101e+06 74259.1 45869.5 1377.72 16897.9)
(-1709.2 -1391.65 1156.14 2053.9 -210.096 312.839)
(-19752.5 -7016.39 14796.2 4103.5 77.451 3683.41)
(-49053.9 -41644 17517.2 -1684.34 -17859.1 1954.75)
(241115 -217335 -294679 -31404 26002.3 -2705.05)
(184121 -94830.8 -60318.1 -31992.1 -207592 -211848)
(-130393 35664.2 41974.4 11438.5 -17271.5 -10567.7)
(570116 -203015 117955 -134537 118722 -88864.8)
(-32502.3 -931461 447123 388452 -274141 -320840)
(-2.95806e+06 -1.11105e+06 364969 2.6776e+06 -340684 -185064)
(48991.2 -1.30797e+06 58266.9 46783.1 -25031.7 -34565.2)
(13419.5 -2610.59 6010.99 3066.09 -5216.04 -4688.66)
(3692.3 -22960.3 1410.31 1650.02 -3112.32 -4340.88)
(-96100 -58303.5 3984.77 93929.4 -3013.19 -20460.5)
(239489 -639579 -338466 284093 40153.6 -90621)
(-772872 -134973 -141522 -786130 19892.1 223316)
(604104 322741 -21015.4 -102223 10311.6 -2537.31)
(246689 -185359 -113422 -106048 -94720.2 -3479.4)
(-1.43431e+06 -621881 32123.1 388799 54628.3 66598.6)
(-275879 80275.9 556660 892457 442944 -272850)
(4944.38 -1.52848e+06 -37661.8 19559 18402.6 -20567.9)
(167.027 -3164.26 -1488.55 -2112.37 1128.82 -717.626)
(-9564.47 -57048.7 -26580.2 30055.9 19120 -1369.24)
(-48197.9 -49970 -40083.4 54707 18021.7 -11238.3)
(32721.6 -36598.7 -77062.6 5768.29 70251.9 -16809.5)
(-211252 27466.1 -147495 -141410 344872 238047)
(7406.06 -310080 46067.7 128947 6087.22 3116.3)
(237545 -272411 -231547 -197864 -454435 164679)
(-170969 1.99465e+06 541518 -1.14458e+06 117252 660109)
(239274 -85533.1 438641 327337 -173736 92096.3)
(-17059.9 -1.27935e+06 -16684.1 31733.2 21462.6 13441.6)
(-11454.4 20499.4 10330.9 5825.06 12941.4 3177.11)
(-451334 -467832 -39885.3 576501 104771 5430.41)
(-258355 -180279 -55315.8 114374 -16152.2 32087.8)
(23243.1 -55423.3 -276799 -1262.82 17310.7 94491.2)
(422888 107645 -112865 -380399 -19840.5 214111)
(620444 129733 282866 -1.78884e+06 -77827.6 232977)
(-18105.4 -157982 -110002 593531 275458 193063)
(324718 314015 113345 -764513 -11998.7 70106.5)
(62135.3 137992 199951 -22251.2 -66656.7 -23086.6)
)
;
    }
}


// ************************************************************************* //
