/*--------------------------------*- C++ -*----------------------------------*\
| =========                 |                                                 |
| \\      /  F ield         | OpenFOAM: The Open Source CFD Toolbox           |
|  \\    /   O peration     | Version:  2.4.0                                 |
|   \\  /    A nd           | Web:      www.OpenFOAM.org                      |
|    \\/     M anipulation  |                                                 |
\*---------------------------------------------------------------------------*/
FoamFile
{
    version     2.0;
    format      ascii;
    class       volScalarField;
    location    "0.06";
    object      nut;
}
// * * * * * * * * * * * * * * * * * * * * * * * * * * * * * * * * * * * * * //

dimensions      [0 2 -1 0 0 0 0];

internalField   nonuniform List<scalar> 
200
(
0.248284
0.0762732
0.0696293
0.0749605
0.0673652
0.0710126
0.080359
0.116641
0.367571
0.408218
0.257153
0.0721877
0.106886
0.0620772
0.107409
0.0586661
0.0613236
0.13591
0.244759
0.178547
0.271339
0.0788689
0.0716421
0.153642
0.0475112
0.122561
0.185239
0.142015
0.355517
0.241953
0.275508
0.0817568
0.0799628
0.100752
0.128328
0.0650667
0.192655
0.189982
0.194829
0.551163
0.22707
0.0195623
0.0205441
0.023937
0.0206693
0.103809
0.0874259
0.259991
0.347863
0.159666
0.23967
0.0137272
0.0172393
0.0370973
0.183969
0.0769032
0.376802
0.1656
0.403584
0.231595
0.24817
0.0033756
0.0109841
0.0719466
0.164639
0.166174
0.0813965
0.626426
0.0714492
0.706946
0.248165
0.0115199
0.0155695
0.105198
0.117985
0.0883677
0.111547
0.290115
0.877699
0.137401
0.219697
0.0461981
0.0601908
0.183331
0.125738
0.0347475
0.111259
1.28705
0.406453
0.697447
0.246212
0.0246359
0.121894
0.237139
0.200824
0.11536
0.0995234
0.435861
0.51308
0.562347
0.250004
0.00699862
0.19684
0.119038
0.205315
0.132582
0.141348
0.348396
0.277198
0.198487
0.246826
0.0166187
0.119508
0.192018
0.140491
0.370414
0.132434
0.490254
0.315389
0.315003
0.221415
0.0376511
0.072981
0.120402
0.0879648
0.0488408
0.330613
0.159768
0.492281
0.111847
0.245315
0.0145969
0.0928815
0.090257
0.054435
0.163102
0.32046
0.214432
0.275446
0.125217
0.260848
0.00893238
0.113253
0.122684
0.0416012
0.0626094
0.165314
0.203127
0.198119
0.191732
0.266961
0.0297619
0.0838341
0.100364
0.0405628
0.0488744
0.284537
0.0424371
0.155712
0.114876
0.230116
0.0369122
0.0919391
0.0608287
0.039067
0.0435894
0.0822652
0.110953
0.278187
0.155073
0.258655
0.0234608
0.0284491
0.158481
0.0432009
0.105889
0.100058
0.169648
0.139029
0.229052
0.268263
0.0259706
0.0418614
0.0662626
0.0743044
0.0303334
0.105885
0.106618
0.190752
0.165657
0.254795
0.0634029
0.0656364
0.0492124
0.0817206
0.103855
0.0840775
0.0504831
0.0662545
0.118031
)
;

boundaryField
{
    inlet
    {
        type            calculated;
        value           nonuniform List<scalar> 
20
(
3.68376e-25
3.71117e-25
3.89172e-25
3.99193e-25
3.4266e-25
3.49611e-25
3.73791e-25
3.57047e-25
3.2301e-25
3.72784e-25
3.66026e-25
3.71906e-25
3.39706e-25
3.6168e-25
3.92798e-25
3.88112e-25
3.42828e-25
3.89495e-25
3.96025e-25
3.82205e-25
)
;
    }
    outlet
    {
        type            calculated;
        value           nonuniform 0();
    }
    bottom
    {
        type            calculated;
        value           nonuniform List<scalar> 
40
(
1.99878e-25
2.20294e-25
2.19729e-25
2.38877e-25
1.11244e-25
1.02654e-25
1.27501e-25
1.1554e-25
8.99167e-26
1.32386e-25
1.09309e-25
1.28866e-25
1.10109e-25
7.00607e-26
1.67626e-25
1.37664e-25
8.50671e-26
1.31578e-25
4.2936e-26
1.76003e-25
1.08123e-25
9.91734e-26
1.26982e-25
3.42506e-26
9.13564e-26
1.12206e-25
1.78932e-25
1.86051e-25
1.1328e-25
9.11084e-26
2.55593e-25
2.72274e-25
3.02384e-25
2.53007e-25
2.79328e-25
2.04336e-25
3.60525e-25
2.00058e-25
3.82747e-25
3.69454e-25
)
;
    }
    top
    {
        type            symmetryPlane;
    }
    side1
    {
        type            symmetryPlane;
    }
    side2
    {
        type            symmetryPlane;
    }
    procBoundary8to0
    {
        type            processor;
        value           nonuniform List<scalar> 
50
(
0.229208
0.0650847
0.0663179
0.065614
0.0745384
0.086803
0.0921462
0.140913
0.203626
0.191285
0.221599
0.0273899
0.0313212
0.0379428
0.0425205
0.0755396
0.172502
0.353277
0.195322
0.119597
0.193059
0.037751
0.0360587
0.0327233
0.0582381
0.0262037
0.63643
0.296738
0.473503
0.222105
0.198087
0.0518266
0.0652897
0.0731656
0.0858241
0.305161
0.0622572
0.312803
0.0950012
0.0365373
0.20046
0.0375221
0.0384334
0.0401888
0.0586005
0.061135
0.093436
0.0449656
0.102886
0.113618
)
;
    }
    procBoundary8to9
    {
        type            processor;
        value           nonuniform List<scalar> 
20
(
0.198475
0.432038
0.151439
0.204453
0.545361
0.273989
0.363633
0.605524
0.384965
0.1421
0.533735
0.162649
0.0110275
0.105912
0.118775
0.166121
0.0666111
0.271239
0.428319
0.274367
)
;
    }
    procBoundary8to16
    {
        type            processor;
        value           nonuniform List<scalar> 
50
(
0.269606
0.0826057
0.0842317
0.0882742
0.156688
0.114871
0.104738
0.199473
0.207658
0.318146
0.241381
0.0174456
0.0242568
0.0480348
0.348042
0.137996
0.0670346
0.600266
0.466525
0.613195
0.252346
0.0266505
0.0753285
0.123683
0.381963
0.0785234
1.09678
0.517334
0.584211
0.358196
0.264499
0.0172067
0.0552768
0.0744927
0.0576112
0.0762193
0.372528
0.30729
0.269877
0.194938
0.226525
0.0250863
0.174876
0.106559
0.0731542
0.168989
0.105691
0.282685
0.0728267
0.0861355
)
;
    }
}


// ************************************************************************* //
