/*--------------------------------*- C++ -*----------------------------------*\
| =========                 |                                                 |
| \\      /  F ield         | OpenFOAM: The Open Source CFD Toolbox           |
|  \\    /   O peration     | Version:  2.4.0                                 |
|   \\  /    A nd           | Web:      www.OpenFOAM.org                      |
|    \\/     M anipulation  |                                                 |
\*---------------------------------------------------------------------------*/
FoamFile
{
    version     2.0;
    format      ascii;
    class       volVectorField;
    location    "0.14";
    object      A_Source;
}
// * * * * * * * * * * * * * * * * * * * * * * * * * * * * * * * * * * * * * //

dimensions      [1 -2 -2 0 0 0 0];

internalField   nonuniform List<vector> 
200
(
(-2.76073e-159 1.13246e-159 4.93714e-159)
(-1.35083e-161 5.54029e-162 2.41576e-161)
(-6.63017e-164 2.71884e-164 1.1857e-163)
(-3.26194e-166 1.3374e-166 5.83348e-166)
(-1.60759e-168 6.59002e-169 2.87492e-168)
(-7.93186e-171 3.25095e-171 1.41849e-170)
(-3.91617e-173 1.6048e-173 7.00347e-173)
(-1.93398e-175 7.92386e-176 3.45863e-175)
(-9.54975e-178 3.91201e-178 1.70783e-177)
(-4.7368e-180 1.94006e-180 8.47104e-180)
(-1.96677e-161 8.07401e-162 3.51726e-161)
(-9.72484e-164 3.99171e-164 1.73914e-163)
(-4.80334e-166 1.97133e-166 8.59003e-166)
(-2.37113e-168 9.72992e-169 4.2404e-168)
(-1.17021e-170 4.80125e-171 2.09274e-170)
(-5.77508e-173 2.36909e-173 1.03278e-172)
(-2.85023e-175 1.16906e-175 5.09719e-175)
(-1.40682e-177 5.76936e-178 2.51589e-177)
(-6.94426e-180 2.84737e-180 1.24187e-179)
(-3.44467e-182 1.4122e-182 6.16026e-182)
(-1.26968e-163 5.2158e-164 2.27063e-163)
(-6.384e-166 2.62218e-166 1.14168e-165)
(-3.20079e-168 1.31453e-168 5.72411e-168)
(-1.60088e-170 6.57379e-171 2.86292e-170)
(-7.99024e-173 3.28065e-173 1.42893e-172)
(-3.98113e-175 1.63437e-175 7.11964e-175)
(-1.98073e-177 8.13034e-178 3.54222e-177)
(-9.84282e-180 4.03965e-180 1.76024e-179)
(-4.88626e-182 2.00512e-182 8.73833e-182)
(-2.43564e-184 9.99342e-185 4.35576e-184)
(-7.66816e-166 3.1163e-166 1.37133e-165)
(-3.91358e-168 1.59003e-168 6.99883e-168)
(-1.9913e-170 8.08818e-171 3.56113e-170)
(-1.01028e-172 4.10239e-173 1.80673e-172)
(-5.11172e-175 2.07512e-175 9.14152e-175)
(-2.57986e-177 1.04701e-177 4.61368e-177)
(-1.29903e-179 5.27055e-180 2.32311e-179)
(-6.52717e-182 2.64755e-182 1.16728e-181)
(-3.2734e-184 1.3274e-184 5.85397e-184)
(-1.64698e-186 6.67689e-187 2.94537e-186)
(-9.38959e-161 3.85103e-161 1.67918e-160)
(-4.6481e-163 1.90606e-163 8.31241e-163)
(-2.30775e-165 9.46193e-166 4.12706e-165)
(-1.14835e-167 4.70751e-168 2.05365e-167)
(-5.72334e-170 2.3458e-170 1.02353e-169)
(-2.85542e-172 1.17014e-172 5.10647e-172)
(-1.42535e-174 5.84001e-175 2.54902e-174)
(-7.11584e-177 2.91501e-177 1.27256e-176)
(-3.55161e-179 1.45467e-179 6.35151e-179)
(-1.78053e-181 7.29141e-182 3.18421e-181)
(-6.76757e-163 2.77782e-163 1.21027e-162)
(-3.38495e-165 1.3892e-165 6.05346e-165)
(-1.69101e-167 6.93901e-168 3.02411e-167)
(-8.44176e-170 3.46356e-170 1.50968e-169)
(-4.2127e-172 1.72817e-172 7.53376e-172)
(-2.10193e-174 8.6214e-175 3.75897e-174)
(-1.0487e-176 4.30074e-177 1.87543e-176)
(-5.23202e-179 2.14533e-179 9.35665e-179)
(-2.61014e-181 1.07008e-181 4.66782e-181)
(-1.30847e-183 5.36349e-184 2.34e-183)
(-4.41945e-165 1.81524e-165 7.90349e-165)
(-2.24749e-167 9.23011e-168 4.01929e-167)
(-1.13956e-169 4.67939e-170 2.03792e-169)
(-5.76311e-172 2.36621e-172 1.03064e-171)
(-2.90819e-174 1.19389e-174 5.20084e-174)
(-1.4648e-176 6.0126e-177 2.61957e-176)
(-7.3664e-179 3.02329e-179 1.31737e-178)
(-3.69962e-181 1.51817e-181 6.61619e-181)
(-1.85597e-183 7.61509e-184 3.31912e-183)
(-9.34839e-186 3.83511e-186 1.67182e-185)
(-2.69975e-167 1.09688e-167 4.82808e-167)
(-1.39342e-169 5.6598e-170 2.49191e-169)
(-7.16909e-172 2.91115e-172 1.28208e-171)
(-3.67734e-174 1.49285e-174 6.57635e-174)
(-1.88091e-176 7.63364e-177 3.36372e-176)
(-9.59525e-179 3.89314e-179 1.71596e-178)
(-4.88299e-181 1.98066e-181 8.73248e-181)
(-2.47941e-183 1.00544e-183 4.43404e-183)
(-1.25641e-185 5.09353e-186 2.24689e-185)
(-6.38707e-188 2.58865e-188 1.14223e-187)
(-1.63422e-162 6.70149e-163 2.92255e-162)
(-8.18445e-165 3.35568e-165 1.46366e-164)
(-4.1105e-167 1.68506e-167 7.351e-167)
(-2.06878e-169 8.47932e-170 3.69969e-169)
(-1.04272e-171 4.27308e-172 1.86475e-171)
(-5.26033e-174 2.15531e-174 9.40729e-174)
(-2.65483e-176 1.08757e-176 4.74776e-176)
(-1.33986e-178 5.48787e-179 2.39613e-178)
(-6.75969e-181 2.76818e-181 1.20887e-180)
(-3.42525e-183 1.40243e-183 6.12552e-183)
(-1.19166e-164 4.89057e-165 2.1311e-164)
(-6.02925e-167 2.47406e-167 1.07824e-166)
(-3.04642e-169 1.2499e-169 5.44805e-169)
(-1.53799e-171 6.30926e-172 2.75046e-171)
(-7.76077e-174 3.18321e-174 1.38789e-173)
(-3.915e-176 1.60556e-176 7.00137e-176)
(-1.97461e-178 8.09671e-179 3.53128e-178)
(-9.95786e-181 4.08249e-181 1.78081e-180)
(-5.02084e-183 2.05809e-183 8.97899e-183)
(-2.54371e-185 1.04252e-185 4.54903e-185)
(-7.87191e-167 3.23284e-167 1.40777e-166)
(-4.04896e-169 1.66262e-169 7.24094e-169)
(-2.07616e-171 8.52417e-172 3.71288e-171)
(-1.0617e-173 4.35852e-174 1.89869e-173)
(-5.41674e-176 2.2234e-176 9.68699e-176)
(-2.75811e-178 1.13197e-178 4.93245e-178)
(-1.40202e-180 5.75329e-181 2.50729e-180)
(-7.11656e-183 2.91994e-183 1.27269e-182)
(-3.60787e-185 1.48011e-185 6.45211e-185)
(-1.83636e-187 7.53247e-188 3.28404e-187)
(-4.86404e-169 1.97569e-169 8.69859e-169)
(-2.53883e-171 1.03095e-171 4.54031e-171)
(-1.32081e-173 5.36199e-174 2.36206e-173)
(-6.84981e-176 2.78001e-176 1.22498e-175)
(-3.54185e-178 1.43707e-178 6.33405e-178)
(-1.82635e-180 7.4082e-181 3.26614e-180)
(-9.39353e-183 3.80925e-183 1.67989e-182)
(-4.82011e-185 1.95411e-185 8.62002e-185)
(-2.46807e-187 1.0003e-187 4.41375e-187)
(-1.26772e-189 5.13665e-190 2.26711e-189)
(-1.92402e-164 7.8886e-165 3.44081e-164)
(-9.74751e-167 3.9959e-167 1.74319e-166)
(-4.95163e-169 2.02954e-169 8.85522e-169)
(-2.52035e-171 1.03285e-171 4.50726e-171)
(-1.28456e-173 5.26328e-174 2.29724e-173)
(-6.55216e-176 2.68418e-176 1.17175e-175)
(-3.34305e-178 1.36928e-178 5.97852e-178)
(-1.70548e-180 6.98427e-181 3.04999e-180)
(-8.69654e-183 3.56077e-183 1.55524e-182)
(-4.45367e-185 1.82321e-185 7.96469e-185)
(-1.41926e-166 5.82376e-167 2.53813e-166)
(-7.26309e-169 2.97991e-169 1.29889e-168)
(-3.71142e-171 1.52251e-171 6.63729e-171)
(-1.89471e-173 7.77143e-174 3.38839e-173)
(-9.66667e-176 3.96435e-176 1.72873e-175)
(-4.92987e-178 2.02146e-178 8.81631e-178)
(-2.51342e-180 1.03045e-180 4.49487e-180)
(-1.2811e-182 5.2514e-183 2.29104e-182)
(-6.5279e-185 2.67545e-185 1.16741e-184)
(-3.34211e-187 1.36954e-187 5.97685e-187)
(-9.48287e-169 3.89388e-169 1.69586e-168)
(-4.93283e-171 2.02527e-171 8.8216e-171)
(-2.5577e-173 1.04998e-173 4.57405e-173)
(-1.32244e-175 5.42816e-176 2.36498e-175)
(-6.82093e-178 2.79938e-178 1.21982e-177)
(-3.51073e-180 1.44065e-180 6.2784e-180)
(-1.80372e-182 7.40068e-183 3.22567e-182)
(-9.25268e-185 3.79586e-185 1.6547e-184)
(-4.74003e-187 1.9443e-187 8.4768e-187)
(-2.43779e-189 9.99806e-190 4.35961e-189)
(-5.92622e-171 2.4065e-171 1.05981e-170)
(-3.1279e-173 1.26982e-173 5.59376e-173)
(-1.64529e-175 6.67752e-176 2.94234e-175)
(-8.62607e-178 3.49999e-178 1.54264e-177)
(-4.50864e-180 1.82886e-180 8.06301e-180)
(-2.34979e-182 9.52893e-183 4.20224e-182)
(-1.22139e-184 4.95167e-185 2.18427e-184)
(-6.33311e-187 2.56681e-187 1.13258e-186)
(-3.27644e-189 1.32759e-189 5.85941e-189)
(-1.70032e-191 6.88769e-192 3.04075e-191)
(-1.73316e-166 7.1049e-167 3.05492e-166)
(-8.88204e-169 3.64052e-169 1.56532e-168)
(-4.56355e-171 1.87017e-171 8.04121e-171)
(-2.34907e-173 9.62502e-174 4.1385e-173)
(-1.21064e-175 4.95961e-176 2.13252e-175)
(-6.24341e-178 2.55727e-178 1.09958e-177)
(-3.22035e-180 1.31881e-180 5.67071e-180)
(-1.66067e-182 6.79963e-183 2.92378e-182)
(-8.55868e-185 3.50375e-185 1.5066e-184)
(-4.42974e-187 1.81312e-187 7.79645e-187)
(-1.29327e-168 5.30595e-169 2.27918e-168)
(-6.69392e-171 2.74597e-171 1.1795e-170)
(-3.45922e-173 1.41884e-173 6.09433e-173)
(-1.78569e-175 7.32317e-176 3.14545e-175)
(-9.21116e-178 3.77697e-178 1.62226e-177)
(-4.74893e-180 1.94697e-180 8.36237e-180)
(-2.44736e-182 1.00322e-182 4.30884e-182)
(-1.26078e-184 5.16732e-185 2.21936e-184)
(-6.4924e-187 2.6605e-187 1.14268e-186)
(-3.35896e-189 1.37623e-189 5.91088e-189)
(-8.73978e-171 3.58824e-171 1.54e-170)
(-4.59766e-173 1.88739e-173 8.09999e-173)
(-2.41055e-175 9.89432e-176 4.24612e-175)
(-1.26014e-177 5.17167e-178 2.21933e-177)
(-6.57061e-180 2.69626e-180 1.15702e-179)
(-3.41847e-182 1.40259e-182 6.01858e-182)
(-1.77512e-184 7.28228e-185 3.12476e-184)
(-9.20237e-187 3.77469e-187 1.61964e-186)
(-4.76366e-189 1.95372e-189 8.3828e-189)
(-2.47549e-191 1.01512e-191 4.35549e-191)
(-5.52391e-173 2.24253e-173 9.73181e-173)
(-2.94814e-175 1.19653e-175 5.19306e-175)
(-1.56787e-177 6.36163e-178 2.76131e-177)
(-8.31007e-180 3.37088e-180 1.46331e-179)
(-4.39046e-182 1.78045e-182 7.72986e-182)
(-2.31268e-184 9.37596e-185 4.07105e-184)
(-1.21484e-186 4.92377e-187 2.13814e-186)
(-6.36512e-189 2.5791e-189 1.12009e-188)
(-3.32716e-191 1.34778e-191 5.85396e-191)
(-1.74446e-193 7.06461e-194 3.06877e-193)
)
;

boundaryField
{
    inlet
    {
        type            zeroGradient;
    }
    outlet
    {
        type            zeroGradient;
    }
    bottom
    {
        type            zeroGradient;
    }
    top
    {
        type            symmetryPlane;
    }
    side1
    {
        type            symmetryPlane;
    }
    side2
    {
        type            symmetryPlane;
    }
    procBoundary31to23
    {
        type            processor;
        value           nonuniform List<vector> 
50
(
(-8.23856e-156 3.37535e-156 1.47334e-155)
(-4.00943e-158 1.64239e-158 7.17025e-158)
(-1.94711e-160 7.9746e-161 3.4821e-160)
(-9.43619e-163 3.86405e-163 1.68752e-162)
(-4.56391e-165 1.86857e-165 8.16185e-165)
(-2.2032e-167 9.01893e-168 3.94009e-167)
(-1.06169e-169 4.34536e-170 1.89867e-169)
(-5.10763e-172 2.09014e-172 9.13421e-172)
(-2.45344e-174 1.00383e-174 4.3876e-174)
(-1.18249e-176 4.83735e-177 2.1147e-176)
(-2.79976e-157 1.14687e-157 5.00694e-157)
(-1.37849e-159 5.64573e-160 2.46521e-159)
(-6.77172e-162 2.77295e-162 1.21102e-161)
(-3.31922e-164 1.35896e-164 5.93591e-164)
(-1.62349e-166 6.6458e-167 2.90336e-166)
(-7.92472e-169 3.24346e-169 1.41721e-168)
(-3.8609e-171 1.57995e-171 6.90463e-171)
(-1.87767e-173 7.68246e-174 3.35792e-173)
(-9.11657e-176 3.7294e-176 1.63036e-175)
(-4.441e-178 1.81641e-178 7.94204e-178)
(-4.86897e-159 1.99413e-159 8.70739e-159)
(-2.4253e-161 9.93132e-162 4.33728e-161)
(-1.20518e-163 4.93422e-164 2.15528e-163)
(-5.97476e-166 2.44576e-166 1.06849e-165)
(-2.95536e-168 1.20957e-168 5.2852e-168)
(-1.4587e-170 5.96917e-171 2.60865e-170)
(-7.18517e-173 2.93977e-173 1.28496e-172)
(-3.5325e-175 1.44506e-175 6.31733e-175)
(-1.73363e-177 7.09071e-178 3.10034e-177)
(-8.53576e-180 3.4906e-180 1.52649e-179)
(-5.72787e-161 2.34548e-161 1.02434e-160)
(-2.8862e-163 1.18166e-163 5.16152e-163)
(-1.45064e-165 5.93813e-166 2.59424e-165)
(-7.27308e-168 2.97671e-168 1.30068e-167)
(-3.63784e-170 1.48864e-170 6.50571e-170)
(-1.81543e-172 7.42768e-173 3.24662e-172)
(-9.04028e-175 3.69813e-175 1.61671e-174)
(-4.49268e-177 1.83753e-177 8.03445e-177)
(-2.22848e-179 9.11306e-180 3.98529e-179)
(-1.10891e-181 4.53395e-182 1.9831e-181)
(-5.15566e-163 2.1108e-163 9.08764e-163)
(-2.62789e-165 1.07571e-165 4.63129e-165)
(-1.33589e-167 5.46746e-168 2.35394e-167)
(-6.77344e-170 2.77172e-170 1.19333e-169)
(-3.42577e-172 1.4016e-172 6.03447e-172)
(-1.72849e-174 7.07069e-175 3.04422e-174)
(-8.70138e-177 3.55886e-177 1.53224e-176)
(-4.371e-179 1.78744e-179 7.6957e-179)
(-2.19132e-181 8.9595e-182 3.85746e-181)
(-1.10201e-183 4.50496e-184 1.93959e-183)
)
;
    }
    procBoundary31to30
    {
        type            processor;
        value           nonuniform List<vector> 
20
(
(-9.97835e-156 4.09232e-156 1.78447e-155)
(-6.11557e-158 2.5103e-158 1.09367e-157)
(-3.813e-160 1.56635e-160 6.81895e-160)
(-2.33016e-162 9.46802e-163 4.16714e-162)
(-3.39022e-157 1.39017e-157 6.06289e-157)
(-2.10187e-159 8.62638e-160 3.75886e-159)
(-1.32563e-161 5.44481e-162 2.37068e-161)
(-8.19441e-164 3.32871e-164 1.46544e-163)
(-5.89446e-159 2.41664e-159 1.05413e-158)
(-3.69673e-161 1.51696e-161 6.61103e-161)
(-2.35842e-163 9.68546e-164 4.21766e-163)
(-1.47467e-165 5.98878e-166 2.63722e-165)
(-6.93269e-161 2.84184e-161 1.2398e-160)
(-4.39775e-163 1.80435e-163 7.86468e-163)
(-2.83777e-165 1.16524e-165 5.0749e-165)
(-1.79468e-167 7.28644e-168 3.2095e-167)
(-6.23874e-163 2.55695e-163 1.09968e-162)
(-4.00281e-165 1.64206e-165 7.05443e-165)
(-2.61241e-167 1.07255e-167 4.60327e-167)
(-1.67099e-169 6.78244e-170 2.94393e-169)
)
;
    }
}


// ************************************************************************* //
