/*--------------------------------*- C++ -*----------------------------------*\
| =========                 |                                                 |
| \\      /  F ield         | OpenFOAM: The Open Source CFD Toolbox           |
|  \\    /   O peration     | Version:  2.4.0                                 |
|   \\  /    A nd           | Web:      www.OpenFOAM.org                      |
|    \\/     M anipulation  |                                                 |
\*---------------------------------------------------------------------------*/
FoamFile
{
    version     2.0;
    format      ascii;
    class       volVectorField;
    location    "0.06";
    object      U;
}
// * * * * * * * * * * * * * * * * * * * * * * * * * * * * * * * * * * * * * //

dimensions      [0 1 -1 0 0 0 0];

internalField   nonuniform List<vector> 
200
(
(128812 104146 126608)
(207860 106040 8205.95)
(283132 281902 -13827.8)
(293565 365709 186657)
(99616.4 706076 -20014.1)
(383838 472800 560757)
(-899211 -834759 -159625)
(-111403 172774 -289278)
(-75821.1 590242 406427)
(-662963 329630 -88952.6)
(289970 72851.2 7548.42)
(324028 139229 -11671.5)
(377756 116347 -7027.34)
(531235 255928 -23460.9)
(432439 281815 98474.4)
(623863 466811 -207997)
(609128 199062 129888)
(421124 -78554.3 -163408)
(567979 141175 64999)
(654376 565807 140354)
(369318 28689.5 -5303.79)
(389350 39698.7 -23287.7)
(414610 123906 -34669.1)
(495975 99532.2 -42297.5)
(546326 154909 -23238.4)
(525116 -37798.4 -107728)
(830929 155212 -195694)
(713723 63886.2 4410.54)
(823991 137744 -74790)
(791293 73642.6 -42897.8)
(346366 1510.97 -36894.9)
(345484 106355 -28370.9)
(432261 29542.1 -47289.3)
(460903 72493.8 -44659)
(524009 -1019.34 -61001.7)
(577899 106112 -75131.1)
(661559 19824 -69281.2)
(747114 18565.7 -52023.1)
(740511 59442.4 -112853)
(967244 25574.3 -97632.9)
(92331.4 -244345 -223557)
(-60397.8 219681 -150663)
(-106536 150300 150896)
(-587777 -149449 999630)
(-170925 187706 309264)
(-590750 429947 442585)
(-458843 110311 -207290)
(-351245 1.23244e+06 770552)
(-906702 217853 -553591)
(77688.9 1.13034e+06 478192)
(247556 5865.67 -10885.2)
(125361 91160.4 -133186)
(233933 442435 -392158)
(134620 213330 75592.7)
(-393884 -107585 969495)
(329282 434487 89332.6)
(-63920.9 332363 226887)
(-68723 241516 -215499)
(264278 1.08149e+06 653248)
(-318005 126056 -502106)
(309260 -13147.5 -12678.1)
(289558 128634 -39679.5)
(325678 74892.5 -38836.5)
(468141 232809 -137557)
(249168 106507 61906.5)
(345747 350444 -181999)
(370431 110402 17495.6)
(26306.1 396434 95607.3)
(498031 251885 -136963)
(623354 420372 276723)
(287126 128531 -22824)
(364644 41822 -18913.8)
(321317 101659 -25460.6)
(429103 62841.9 -48214.7)
(401788 153613 -110114)
(504430 26018.6 -45410.1)
(573062 129264 -80265.6)
(535599 56357.7 -62150.3)
(561234 -86135.9 -91615.3)
(755939 -78388.2 -53757.8)
(-51187.5 -299039 94094.6)
(-79670.2 129389 -90617.4)
(-992600 -358405 890647)
(-313553 -9991.6 -13961.6)
(-713348 115234 834411)
(-434269 14429.3 156227)
(-1.00288e+06 122491 546267)
(-938766 190165 -103131)
(265895 1.65039e+06 342972)
(-919653 606984 -848113)
(181190 -98367.9 58792.1)
(21559.3 181421 27420.9)
(125380 431641 -7824.97)
(-1.01847e+06 -403465 1.27037e+06)
(-29553.2 30313.1 -330678)
(-509312 161844 472531)
(-150225 341396 10893.3)
(-426361 414704 342131)
(-586080 158358 -463438)
(654977 1.32565e+06 -80969.5)
(338524 53263 -2569.56)
(273589 35551.4 52406)
(387849 238157 36354.2)
(474236 335911 33830.8)
(11572.7 64635.1 471212)
(363569 86637.2 -69169.8)
(79437.7 139015 464411)
(371074 390776 58367.1)
(43672.8 324174 349226)
(319756 184039 -269922)
(333301 -985.754 -6672.38)
(356808 121747 158366)
(377311 112879 42361.7)
(487138 72283.5 33549.4)
(444608 89044 14053.4)
(622550 309928 -50584.1)
(509520 154344 235443)
(752152 122061 270196)
(849005 91774.4 15021.9)
(641133 216471 292576)
(257170 63082.8 276756)
(255732 -159100 96376.6)
(387244 33481.2 53900.8)
(-322011 -260224 741329)
(204129 29483.7 -15265.7)
(-37024.3 -43756.9 628856)
(345399 -116443 59407.6)
(161190 170251 351834)
(317277 36848.5 -75410.3)
(479542 318407 89533.4)
(397231 53856.2 1338.45)
(376733 -64208.4 108133)
(387465 113132 132376)
(459818 98217.9 112659)
(298629 -11965.2 382734)
(528184 -9943.61 -49186.4)
(307910 -23828.8 366824)
(685984 19801.7 13544)
(428492 127166 199280)
(739336 -93215.5 -55050.1)
(363791 15884.1 45449.3)
(410389 38002.6 41543.1)
(435517 56214.6 91559.7)
(479136 158411 172901)
(579135 76863.2 112226)
(616845 43181.2 128660)
(718984 17023.6 3573.67)
(634629 90398.5 203533)
(831641 59179.6 -24856)
(623092 25562.3 277240)
(405652 -2527.84 82580.5)
(440374 -21243 65355.4)
(492950 26465.7 80814.2)
(484527 25890.7 34268.7)
(567151 42828.8 -26116.7)
(596222 -15946 -22356.6)
(558995 76892.6 145569)
(757402 -20891.5 -169087)
(624538 231497 781761)
(889930 -95716.3 -122817)
(386264 209878 -32741.1)
(401919 165243 3012.24)
(410370 129089 30621.8)
(425193 105825 142153)
(408478 202868 91312.8)
(577748 66168.8 -47493)
(638042 104005 -121201)
(654393 39657.4 -114205)
(528121 24591.4 35502.9)
(786902 20273.4 -211332)
(456626 163675 -94797.7)
(182534 76006.6 19420.8)
(560461 58080.2 139282)
(385296 185220 67071)
(572196 78751 -21141.7)
(620141 7361.77 27254.3)
(632596 -87265.3 -48712.1)
(565330 -96545 -79730.2)
(749582 -183132 -102179)
(534266 -124798 7810.12)
(-59057.5 -85674.1 -105956)
(554254 124107 79349.9)
(414178 58077.4 17688.4)
(442311 19048.2 -11037.7)
(445862 -21899.9 18673.4)
(588633 44916.5 -69423.1)
(445348 177071 580960)
(663046 -226990 -60441.2)
(775709 -121948 476016)
(400200 -818335 447338)
(524816 53202.1 21223)
(124508 -365135 -84885.2)
(479767 120235 105390)
(341718 -4267.19 -14226)
(439025 5378.74 -9754.74)
(303962 20364.5 79426.9)
(464877 -144598 -123887)
(36612.5 -13387.3 721872)
(648089 -110399 -110623)
(278888 402454 2.86274e+06)
)
;

boundaryField
{
    inlet
    {
        type            calculated;
        value           nonuniform 0();
    }
    outlet
    {
        type            calculated;
        value           nonuniform 0();
    }
    bottom
    {
        type            calculated;
        value           uniform (0 0 0);
    }
    top
    {
        type            symmetryPlane;
    }
    side1
    {
        type            symmetryPlane;
    }
    side2
    {
        type            symmetryPlane;
    }
    procBoundary30to22
    {
        type            processor;
        value           nonuniform List<vector> 
50
(
(-239850 74361 270940)
(-283697 278809 214200)
(-348070 673165 285201)
(-678613 698120 30747)
(-320174 307119 938110)
(-2.08588e+06 -574569 -101131)
(-364459 -448683 -1.69385e+06)
(-1.06247e+06 -356656 484903)
(-767326 434943 -367081)
(-542204 1.13819e+06 722246)
(-255535 -780437 624817)
(-207461 -159912 447354)
(-310917 182301 317887)
(-410541 138937 385028)
(-453367 137951 478183)
(-335475 -112344 143012)
(-846039 1.20303e+06 972472)
(-1.14388e+06 172213 -553352)
(-865111 1.35475e+06 655867)
(-1.01729e+06 263086 -211642)
(-183020 -478037 430519)
(-359202 -327094 81786.1)
(-280402 -627373 489729)
(-567761 84305.3 858402)
(-296275 -187310 171814)
(-530224 -269791 271663)
(-649577 -217649 32367.8)
(-27446.9 2.69624e+06 1.00209e+06)
(-1.2407e+06 905093 -1.14719e+06)
(-254314 1.69549e+06 -292287)
(-170064 -637085 360990)
(45337.2 -257655 181568)
(-52054.6 -343341 164003)
(248824 -225075 164851)
(-198409 -66293.9 737586)
(289040 -182105 97780.1)
(130412 15669.6 192865)
(441652 -271777 -5911.52)
(430687 648894 280100)
(79162.4 280205 -351242)
(315101 178793 53856.6)
(260959 11585.3 79436.9)
(360314 99932.9 38434.3)
(322630 -164452 111436)
(439494 206731 54819.2)
(487558 406615 27037.3)
(520033 -102092 67475.6)
(559429 -130308 4885.03)
(676435 172009 -165946)
(614344 388725 -57649.6)
)
;
    }
    procBoundary30to29
    {
        type            processor;
        value           nonuniform List<vector> 
20
(
(217027 101572 55165)
(285867 78114.9 44357.5)
(359652 18013.8 -16621.9)
(314742 33917.7 -17236)
(-24535.9 -400995 343852)
(299579 -53207.7 30478.9)
(350685 -40149.1 -7056.61)
(309376 -9897.01 -31730.7)
(147013 -104743 81170.1)
(263361 56738.7 23329.3)
(322289 -10551.5 34686.5)
(363441 57619.1 13614.7)
(276739 332150 25939.4)
(337550 20861.1 41291.2)
(344641 49351.2 205.909)
(406703 6289.41 56635.8)
(301342 116413 138825)
(307200 139940 3535.97)
(491212 63151.1 -121829)
(251197 40990.8 37233.8)
)
;
    }
    procBoundary30to31
    {
        type            processor;
        value           nonuniform List<vector> 
20
(
(136850 992225 546718)
(363033 163297 -63901)
(1.05919e+06 38793.9 -2333.22)
(885603 172705 -157131)
(-601397 618.95 -462634)
(887311 723767 238393)
(788232 -518568 -307731)
(404192 446596 -478463)
(288712 1.2523e+06 -504366)
(-524399 417966 -894622)
(641339 616324 -48873.2)
(735103 277848 -25685.2)
(605445 34780.9 -92405.2)
(638699 152177 -74161.5)
(697010 72951.8 -105263)
(49382.4 807549 3.67263e+06)
(708578 48184.6 -132924)
(919685 117746 -153333)
(1.0465e+06 -616155 -207140)
(589894 -274244 360779)
)
;
    }
}


// ************************************************************************* //
