/*--------------------------------*- C++ -*----------------------------------*\
| =========                 |                                                 |
| \\      /  F ield         | OpenFOAM: The Open Source CFD Toolbox           |
|  \\    /   O peration     | Version:  2.4.0                                 |
|   \\  /    A nd           | Web:      www.OpenFOAM.org                      |
|    \\/     M anipulation  |                                                 |
\*---------------------------------------------------------------------------*/
FoamFile
{
    version     2.0;
    format      ascii;
    class       volScalarField;
    location    "0.04";
    object      alpha;
}
// * * * * * * * * * * * * * * * * * * * * * * * * * * * * * * * * * * * * * //

dimensions      [0 0 0 0 0 0 0];

internalField   nonuniform List<scalar> 
200
(
2.92911e-16
1.07594e-14
2.9095e-13
3.52647e-12
1.85246e-10
5.49151e-09
2.08567e-10
1.22047e-09
3.60651e-08
1.24011e-09
1.37205e-18
3.13984e-17
1.14153e-15
4.37195e-14
2.4456e-12
1.0971e-10
4.91459e-09
2.88336e-07
9.76446e-06
2.932e-07
5.93166e-17
3.77476e-17
4.60097e-15
5.696e-13
6.51295e-11
6.67357e-09
5.82058e-07
3.90396e-05
0.00154224
3.96159e-05
5.59774e-15
2.36527e-16
6.86029e-17
6.90031e-15
6.99628e-13
6.3664e-11
4.91285e-09
2.88336e-07
9.76446e-06
2.932e-07
2.34814e-15
2.52794e-13
2.39685e-11
1.89403e-09
1.12264e-07
3.80335e-06
1.12383e-07
1.90691e-09
2.4569e-10
5.68181e-11
3.32134e-16
2.97576e-15
2.55694e-13
1.82302e-11
9.652e-10
2.90303e-08
2.90481e-08
1.91419e-09
2.81479e-08
9.67489e-10
5.73019e-14
4.77892e-15
2.54293e-13
2.40648e-11
1.89879e-09
1.12407e-07
3.80525e-06
2.24713e-07
3.81075e-06
1.14371e-07
6.03295e-12
2.28954e-13
8.33887e-15
2.90264e-13
1.97524e-11
9.94137e-10
2.81026e-08
1.89624e-09
2.81474e-08
9.67496e-10
5.18367e-13
6.13513e-11
6.46414e-09
5.74673e-07
3.89271e-05
0.00153843
3.8963e-05
5.75904e-07
7.45296e-09
2.90924e-08
2.26089e-13
6.62275e-13
6.20008e-11
4.90986e-09
2.92235e-07
1.00237e-05
1.00237e-05
2.92237e-07
4.96081e-09
1.87441e-10
4.63491e-11
2.27995e-12
6.17133e-11
6.48724e-09
5.7589e-07
3.89631e-05
0.00153843
3.89273e-05
5.80165e-07
6.71464e-09
5.49117e-09
1.8525e-10
4.41725e-12
7.94614e-11
5.79957e-09
3.1557e-07
9.73726e-06
2.87406e-07
4.89511e-09
6.38012e-11
3.78125e-13
2.6859e-13
2.39679e-11
1.89403e-09
1.12264e-07
3.80335e-06
1.12445e-07
6.8084e-09
2.92259e-07
1.00237e-05
1.18715e-10
4.50796e-12
3.51958e-13
1.83126e-11
9.69034e-10
2.91312e-08
2.90342e-08
9.88615e-10
1.25373e-09
3.71585e-08
2.81291e-08
9.48982e-10
1.85922e-11
4.73265e-11
3.11096e-09
1.48328e-07
3.80456e-06
1.12287e-07
1.90431e-09
1.2941e-10
3.80883e-06
1.1245e-07
1.9589e-09
4.87279e-09
2.87405e-07
9.73726e-06
3.1547e-07
5.79575e-09
7.93989e-11
1.16182e-12
1.01491e-10
3.85273e-12
1.30708e-13
3.51751e-12
1.85242e-10
5.49118e-09
1.85718e-10
2.17935e-11
9.67054e-10
2.90784e-08
3.60643e-08
1.21693e-09
2.31062e-11
3.63023e-13
1.81529e-12
4.84795e-11
4.8121e-11
1.89253e-12
4.63776e-12
1.23221e-10
9.76439e-06
2.88333e-07
4.86649e-09
6.1751e-11
8.68044e-12
3.04183e-10
5.49568e-09
1.85337e-10
3.53953e-12
4.41902e-13
0.00154223
3.90393e-05
5.76567e-07
6.50612e-09
1.01062e-09
2.81315e-08
9.95328e-10
1.97731e-11
2.90528e-13
4.59236e-15
)
;

boundaryField
{
    inlet
    {
        type            zeroGradient;
    }
    outlet
    {
        type            zeroGradient;
    }
    bottom
    {
        type            fixedValue;
        value           uniform 0;
    }
    top
    {
        type            symmetryPlane;
    }
    side1
    {
        type            symmetryPlane;
    }
    side2
    {
        type            symmetryPlane;
    }
    procBoundary15to7
    {
        type            processor;
        value           nonuniform List<scalar> 
50
(
8.55215e-14
3.86236e-12
1.01732e-10
3.89978e-12
1.85602e-12
4.67261e-11
1.95165e-12
8.40038e-12
2.20444e-10
1.47953e-11
4.18381e-16
1.88359e-14
6.30787e-13
1.80746e-11
9.51074e-10
2.81846e-08
9.74522e-10
1.23446e-09
3.61353e-08
6.90562e-09
6.00754e-15
6.47034e-13
6.13545e-11
4.84853e-09
2.87387e-07
9.73631e-06
2.87516e-07
6.87621e-09
1.14342e-07
3.91562e-06
1.02092e-15
2.97811e-15
2.52789e-13
1.79814e-11
9.47745e-10
2.81448e-08
7.4731e-09
5.81155e-07
3.95017e-05
0.00157736
2.40987e-13
1.01688e-14
8.0906e-16
3.71128e-14
1.76096e-12
4.6601e-11
2.60308e-11
1.92168e-09
1.14351e-07
3.92139e-06
)
;
    }
    procBoundary15to14
    {
        type            processor;
        value           nonuniform List<scalar> 
20
(
6.03777e-15
3.82242e-17
2.91464e-18
2.3598e-16
4.96314e-17
1.44867e-17
2.41478e-15
2.28916e-13
4.03918e-15
9.32654e-15
1.75861e-12
1.85241e-10
1.58618e-14
4.505e-12
9.48976e-10
1.12449e-07
3.85218e-12
1.21693e-09
2.88334e-07
3.90393e-05
)
;
    }
    procBoundary15to23
    {
        type            processor;
        value           nonuniform List<scalar> 
50
(
5.92432e-17
1.96029e-17
1.33242e-15
8.61328e-14
4.08506e-12
1.07858e-10
2.74068e-11
1.21703e-09
3.60648e-08
1.24043e-09
5.72864e-14
2.98755e-15
4.94512e-14
3.51325e-12
1.85123e-10
5.49002e-09
3.03621e-10
1.25947e-11
1.22779e-10
1.09554e-10
4.63468e-11
2.01135e-12
2.40083e-11
1.89435e-09
1.12287e-07
3.80456e-06
1.4821e-07
3.10648e-09
4.72148e-11
9.83717e-13
2.81295e-08
1.01033e-09
6.48215e-09
5.74673e-07
3.89271e-05
0.00153843
3.89272e-05
5.74677e-07
6.46425e-09
6.21218e-11
9.7644e-06
2.88334e-07
4.89052e-09
1.95915e-09
1.1245e-07
3.80883e-06
1.12449e-07
1.89755e-09
2.40171e-11
2.56716e-13
)
;
    }
}


// ************************************************************************* //
