/*--------------------------------*- C++ -*----------------------------------*\
| =========                 |                                                 |
| \\      /  F ield         | OpenFOAM: The Open Source CFD Toolbox           |
|  \\    /   O peration     | Version:  2.4.0                                 |
|   \\  /    A nd           | Web:      www.OpenFOAM.org                      |
|    \\/     M anipulation  |                                                 |
\*---------------------------------------------------------------------------*/
FoamFile
{
    version     2.0;
    format      ascii;
    class       surfaceScalarField;
    location    "0.04";
    object      phia;
}
// * * * * * * * * * * * * * * * * * * * * * * * * * * * * * * * * * * * * * //

dimensions      [0 3 -1 0 0 0 0];

internalField   nonuniform List<scalar> 
490
(
-6.62231e-06
6.21214e-06
2.94489e-06
-1.69855e-05
5.91077e-06
2.83056e-06
-7.19469e-06
5.21922e-06
3.07807e-06
2.55313e-06
-3.6478e-06
7.60396e-06
9.93147e-06
-6.62368e-06
7.31932e-06
1.6019e-05
-1.87995e-06
3.51697e-06
1.41414e-05
-1.82415e-06
3.80986e-06
-6.99347e-06
-1.69803e-06
4.88658e-06
-2.65093e-05
-1.45329e-08
1.7078e-05
1.74182e-06
1.67306e-05
-1.90185e-05
7.37945e-06
-5.75792e-07
-2.01126e-05
7.02056e-06
-2.62593e-06
-2.00866e-05
6.63158e-06
-2.41748e-06
-1.61943e-06
7.0109e-06
2.22922e-06
2.23944e-05
-1.33947e-09
4.75868e-06
2.731e-05
-2.28731e-06
4.03738e-06
2.73114e-05
-2.28792e-06
4.10404e-06
2.72263e-05
-2.28792e-06
4.4025e-06
6.07722e-06
-2.28137e-06
9.6376e-06
-5.14083e-07
1.36479e-05
-2.30974e-05
8.21453e-06
-2.92525e-06
-2.2846e-05
7.97905e-06
-3.0279e-06
-2.28325e-05
7.67976e-06
-2.90042e-06
-5.07357e-06
7.9753e-06
-3.02238e-06
2.02725e-05
1.43107e-06
2.51168e-06
2.73099e-05
-2.28699e-06
4.49171e-06
2.73117e-05
-2.28793e-06
4.49591e-06
2.73319e-05
-2.28793e-06
4.49992e-06
2.73757e-05
-2.2915e-06
4.51604e-06
-2.29594e-06
7.83438e-06
-2.70869e-05
-3.50259e-06
-2.64275e-05
-3.43881e-06
-2.64217e-05
-3.35511e-06
-1.14586e-05
-3.4367e-06
1.55906e-05
1.19611e-06
2.73086e-05
4.49134e-06
2.73116e-05
4.49591e-06
2.73646e-05
4.49991e-06
2.74865e-05
4.49557e-06
4.49041e-06
1.35576e-05
5.02577e-06
4.57242e-06
2.40481e-06
-3.72552e-06
6.11094e-06
2.21178e-06
-4.18174e-06
5.1812e-06
2.00838e-06
-1.37566e-05
5.06496e-06
-1.35082e-06
-1.2021e-05
4.85581e-06
-4.7972e-06
-1.96589e-07
2.55794e-06
-6.06189e-06
-2.30768e-07
2.70496e-06
-1.66575e-05
-1.82154e-07
3.30352e-06
-2.59537e-05
2.0644e-06
9.58757e-06
2.00209e-06
1.56036e-05
-9.43054e-06
6.89269e-06
2.79383e-06
-2.08129e-05
7.17148e-06
8.62864e-07
-9.72092e-06
6.74493e-06
-2.08106e-06
1.94156e-06
-2.69216e-06
4.85702e-06
6.41591e-06
-4.57139e-06
4.52303e-06
9.82722e-06
-8.73032e-07
2.97913e-06
9.43439e-06
-1.2239e-06
2.92606e-06
-6.94044e-06
-1.54902e-06
3.07136e-06
-2.23525e-05
-1.78251e-07
8.35818e-06
1.44035e-06
1.34068e-05
-2.38058e-05
8.3938e-06
-1.03657e-06
-2.38499e-05
8.20836e-06
-3.11462e-06
-2.38317e-05
7.97894e-06
-2.97915e-06
-7.37332e-06
8.20256e-06
4.92741e-07
1.61379e-05
2.22745e-06
3.45968e-06
2.38524e-05
-1.20535e-06
4.40574e-06
2.61215e-05
-1.72163e-06
4.40961e-06
2.72331e-05
-2.28724e-06
4.29165e-06
7.45182e-06
-2.2833e-06
4.22763e-06
-6.33232e-07
9.85287e-06
-2.75889e-05
-3.55045e-06
-2.70865e-05
-3.49721e-06
-2.70791e-05
-3.41755e-06
-1.28923e-05
1.59269e-07
1.21682e-05
2.81884e-06
2.38511e-05
4.40564e-06
2.61223e-05
4.40978e-06
2.73701e-05
4.41779e-06
2.75049e-05
4.4189e-06
4.4194e-06
2.48444e-05
4.46326e-06
4.48122e-06
3.48236e-05
4.50457e-06
9.24365e-07
3.66479e-05
5.89589e-06
-1.0101e-07
1.24318e-05
3.60677e-06
-2.18474e-07
-3.64897e-06
1.2355e-06
-4.27475e-08
-3.59743e-06
9.2247e-07
1.15991e-06
-3.50963e-06
5.55652e-07
1.03588e-06
-3.54859e-06
1.16586e-07
8.88102e-07
-1.33011e-05
1.27979e-07
-2.60089e-06
1.76776e-06
-2.57873e-06
2.41711e-05
5.35301e-06
4.49384e-06
5.41794e-06
6.24491e-06
1.32762e-06
-1.98752e-06
7.17744e-06
-1.34429e-06
3.89881e-07
6.81244e-06
1.95362e-06
-7.26258e-06
6.11049e-06
3.44938e-06
-5.76647e-06
5.79999e-06
3.35504e-06
-3.95487e-06
5.43415e-06
3.23533e-06
-3.07477e-06
4.28785e-06
2.74609e-06
-1.14982e-05
3.75113e-06
1.29539e-06
2.85118e-06
-3.5297e-06
-1.18561e-05
7.59607e-06
2.63408e-06
-2.46251e-05
8.39293e-06
5.99723e-07
-2.40488e-05
8.22587e-06
6.72491e-07
-2.37937e-05
9.81672e-06
4.19485e-06
-2.37725e-05
9.88701e-06
4.32754e-06
-2.3771e-05
9.88688e-06
4.32757e-06
-2.17126e-05
9.88639e-06
4.3275e-06
-1.80988e-05
8.89373e-06
4.20553e-06
-1.69177e-05
8.0916e-06
4.12458e-06
6.19268e-06
6.38217e-06
-2.79795e-05
5.22684e-07
-2.75759e-05
4.55629e-07
-2.56991e-05
4.58548e-07
-2.39117e-05
4.05924e-06
-2.37744e-05
4.32758e-06
-2.37738e-05
4.32766e-06
-2.25834e-05
4.32767e-06
-2.03004e-05
4.33167e-06
-1.81863e-05
4.3351e-06
4.3381e-06
6.69132e-05
4.67395e-06
4.32523e-06
0.000109731
2.52572e-05
-2.7198e-06
0.000110505
2.45744e-05
-2.82322e-06
0.000100222
2.19983e-05
-2.82405e-06
2.99112e-05
1.65011e-05
-2.4274e-06
-3.03821e-05
5.33431e-06
-2.11965e-07
-3.0783e-05
5.10533e-06
-4.5e-07
-2.38776e-05
4.11687e-06
-7.27097e-07
-4.51116e-06
2.42114e-06
-8.23839e-06
-3.15368e-06
-1.98505e-05
5.7513e-05
7.07059e-06
5.25561e-06
8.21828e-05
1.69161e-05
3.32659e-06
5.37832e-05
1.60706e-05
3.47411e-06
4.84811e-06
1.3505e-05
1.39355e-06
-2.37467e-05
9.8909e-06
4.3141e-06
-2.37763e-05
9.88704e-06
4.31814e-06
-2.39282e-05
9.88661e-06
4.31863e-06
-2.24121e-05
9.1226e-06
3.68549e-06
-6.53503e-06
7.98265e-06
5.59133e-07
3.35229e-06
-1.97336e-05
-2.26751e-05
9.15834e-06
6.65055e-06
-2.35952e-05
9.65024e-06
6.63171e-06
-2.37436e-05
9.83903e-06
6.60729e-06
-2.37752e-05
9.88774e-06
4.40701e-06
-2.37759e-05
9.88773e-06
4.31881e-06
-2.37759e-05
9.88774e-06
4.31967e-06
-2.37759e-05
9.88775e-06
4.32056e-06
-2.37759e-05
9.88773e-06
4.31966e-06
-2.37122e-05
9.88768e-06
4.31859e-06
9.86134e-06
4.22012e-06
-2.16711e-05
6.77329e-06
-2.31053e-05
6.68373e-06
-2.36595e-05
6.64218e-06
-2.37751e-05
4.63883e-06
-2.37758e-05
4.31974e-06
-2.37759e-05
4.32054e-06
-2.37759e-05
4.32143e-06
-2.37758e-05
4.32054e-06
-2.37758e-05
4.31916e-06
4.31711e-06
6.72785e-05
3.44822e-06
0.000110063
1.27119e-05
0.000110502
1.34749e-05
0.000100807
2.17099e-05
2.71974e-05
1.67002e-05
-3.72686e-05
5.41876e-06
-3.82228e-05
5.13138e-06
-2.87909e-05
4.25968e-06
-5.56228e-06
2.5113e-06
-3.15537e-06
1.9362e-05
-3.70325e-07
1.92822e-05
-1.94542e-06
2.53027e-05
-1.23863e-06
3.22174e-06
1.29738e-05
-2.37446e-05
9.89122e-06
-2.37777e-05
9.88711e-06
-2.43843e-05
9.8867e-06
-2.34634e-05
9.30055e-06
-7.12366e-06
8.18445e-06
3.35145e-06
1.38537e-05
-2.69577e-06
1.36483e-05
-2.68239e-06
-4.42207e-06
-2.61307e-06
-2.30479e-05
8.77471e-06
-2.37757e-05
9.88737e-06
-2.37759e-05
9.88773e-06
-2.37759e-05
9.88774e-06
-2.37759e-05
9.88772e-06
-2.37121e-05
9.8854e-06
9.85361e-06
1.39144e-05
1.3872e-05
-2.36313e-06
-2.11685e-05
-2.3775e-05
-2.37758e-05
-2.37758e-05
-2.37758e-05
-2.37759e-05
)
;

boundaryField
{
    inlet
    {
        type            calculated;
        value           nonuniform 0();
    }
    outlet
    {
        type            calculated;
        value           uniform 0;
    }
    bottom
    {
        type            calculated;
        value           uniform 0;
    }
    top
    {
        type            symmetryPlane;
        value           uniform 0;
    }
    side1
    {
        type            symmetryPlane;
        value           nonuniform 0();
    }
    side2
    {
        type            symmetryPlane;
        value           nonuniform 0();
    }
    procBoundary15to7
    {
        type            processor;
        value           nonuniform List<scalar> 
50
(
-4.57015e-06
4.54043e-06
5.08049e-06
1.4151e-05
1.35277e-05
7.59396e-07
4.63673e-07
1.62387e-07
-2.41621e-06
-2.40618e-06
-4.17287e-06
1.41444e-05
1.44163e-05
1.44188e-05
1.38127e-05
-1.0226e-07
-2.74566e-07
-4.60341e-07
-2.39896e-06
-2.3751e-06
-4.46324e-06
-4.46749e-06
-5.49549e-06
-4.1926e-06
-1.47734e-07
-1.40879e-07
-1.39514e-07
-1.37702e-07
-1.46585e-07
-2.07058e-06
-4.73259e-06
-2.65502e-05
-2.6876e-05
-2.68751e-05
-2.41025e-05
-3.43109e-07
-6.84586e-08
1.56322e-07
1.34451e-06
3.17953e-06
-5.03244e-06
-2.66918e-05
-2.68752e-05
-2.68752e-05
-2.43371e-05
-4.13325e-07
-6.66747e-08
2.19381e-07
1.52856e-06
3.18273e-06
)
;
    }
    procBoundary15to14
    {
        type            processor;
        value           nonuniform List<scalar> 
20
(
-1.75292e-05
-1.33828e-05
-1.05074e-05
2.72137e-05
-2.46626e-05
-1.52118e-05
-1.0218e-05
2.75632e-05
-2.48108e-05
-2.48106e-05
-1.35434e-05
2.68062e-05
-2.41266e-05
-2.42206e-05
-9.50481e-07
1.89496e-05
-2.33316e-05
-2.14392e-05
-1.40264e-05
-1.39236e-05
)
;
    }
    procBoundary15to23
    {
        type            processor;
        value           nonuniform List<scalar> 
50
(
9.32695e-06
9.23711e-06
9.11739e-06
9.23596e-06
6.18761e-06
1.23845e-06
-2.17066e-06
-2.18102e-06
-5.00464e-06
-5.04437e-06
9.39672e-06
9.32685e-06
9.23707e-06
9.32542e-06
6.50292e-06
1.8491e-06
-1.66814e-06
-2.21883e-06
-4.99376e-06
-5.03908e-06
9.45231e-06
9.39699e-06
9.32979e-06
9.88327e-06
9.42808e-06
9.26237e-06
9.17292e-06
8.71661e-06
2.80183e-06
1.29559e-06
3.43768e-06
3.80498e-06
4.04358e-06
9.09647e-06
9.26255e-06
9.17346e-06
9.0545e-06
9.17345e-06
9.26152e-06
9.32868e-06
-2.70309e-06
-2.70079e-06
-2.68895e-06
2.72419e-06
6.10742e-06
9.26091e-06
9.17366e-06
9.20591e-06
-2.69458e-06
-3.9639e-06
)
;
    }
}


// ************************************************************************* //
