/*--------------------------------*- C++ -*----------------------------------*\
| =========                 |                                                 |
| \\      /  F ield         | OpenFOAM: The Open Source CFD Toolbox           |
|  \\    /   O peration     | Version:  2.4.0                                 |
|   \\  /    A nd           | Web:      www.OpenFOAM.org                      |
|    \\/     M anipulation  |                                                 |
\*---------------------------------------------------------------------------*/
FoamFile
{
    version     2.0;
    format      ascii;
    class       volVectorField;
    location    "0.04";
    object      Ua;
}
// * * * * * * * * * * * * * * * * * * * * * * * * * * * * * * * * * * * * * //

dimensions      [0 1 -1 0 0 0 0];

internalField   nonuniform List<vector> 
200
(
(-7.30191 -0.83014 6.1347)
(-3.37054 3.53022 7.10407)
(3.35076 3.40802 6.77033)
(51.0161 2.52463 4.40159)
(51.1821 2.52159 4.39303)
(51.1804 2.52174 4.39183)
(45.8816 2.93132 0.945574)
(4.1282 6.16672 -26.5971)
(3.99247 6.17728 -26.6869)
(3.99328 6.17695 -26.6862)
(-9.92389 -1.85921 2.28022)
(6.97379 3.38348 6.13695)
(22.9057 3.19105 4.25623)
(43.7245 3.08655 0.04526)
(37.585 3.56231 -3.93599)
(23.5664 4.64761 -13.1332)
(3.79686 6.18467 -26.4263)
(3.99225 6.17742 -26.687)
(3.99238 6.17741 -26.6871)
(3.99238 6.17741 -26.6871)
(-23.4156 6.04176 -5.42825)
(-1.42045 6.29917 -20.9806)
(1.21869 6.28728 -23.3542)
(2.05494 6.25491 -24.3772)
(2.78304 6.22595 -25.2534)
(3.36872 6.20251 -25.9512)
(3.77989 6.18598 -26.4374)
(3.99228 6.17742 -26.687)
(3.99238 6.17741 -26.6871)
(3.99238 6.17741 -26.6871)
(-23.5142 6.04125 -5.36264)
(-23.4596 6.04388 -5.39688)
(-0.431573 6.64658 -20.7608)
(2.21006 6.47811 -23.6481)
(2.83649 6.32078 -24.9275)
(3.38003 6.22716 -25.8629)
(3.7799 6.186 -26.4373)
(3.99225 6.17742 -26.687)
(3.99238 6.17741 -26.6871)
(3.99238 6.17741 -26.6871)
(51.1092 2.52096 4.38984)
(51.1725 2.5217 4.39417)
(51.1807 2.52156 4.39378)
(51.1832 2.52152 4.39366)
(51.1832 2.52152 4.39367)
(51.1833 2.52152 4.39367)
(51.1097 2.52632 4.38878)
(50.8154 2.523 4.28477)
(9.44437 0.616492 -15.7144)
(19.0699 0.123438 -13.2801)
(-16.8343 5.72731 -4.48331)
(50.1339 2.58367 4.30191)
(50.3833 2.57388 4.34084)
(50.2167 2.58482 4.32977)
(49.8848 2.60655 4.3078)
(48.9084 2.67049 4.24312)
(-16.2448 6.93663 -0.0788806)
(-6.71048 6.59263 -13.2944)
(3.97844 6.17785 -26.6698)
(3.99015 6.17606 -26.6761)
(-23.5124 6.04163 -5.35864)
(-20.7789 6.54072 -2.79637)
(-18.1292 7.05951 -0.189392)
(-18.2551 7.06802 -0.19716)
(-18.364 7.07514 -0.205322)
(-18.4538 7.08104 -0.21348)
(-18.5208 7.08558 -0.225866)
(-7.26057 6.63135 -13.4608)
(3.98119 6.17786 -26.674)
(3.98761 6.1776 -26.6815)
(-23.5147 6.04136 -5.36163)
(-23.5148 6.04221 -5.36028)
(-19.8037 7.03227 -3.62255)
(-15.5471 8.08968 -1.00584)
(-16.4595 7.76927 -0.759748)
(-17.4487 7.43297 -0.499361)
(-18.5162 7.08593 -0.230022)
(-7.2592 6.63147 -13.462)
(3.97798 6.178 -26.6702)
(3.97282 6.18516 -26.6694)
(51.0716 2.52677 4.3791)
(51.1831 2.52152 4.39365)
(51.1832 2.52152 4.39366)
(51.1832 2.52152 4.39367)
(51.1833 2.52152 4.39367)
(51.1833 2.52153 4.39368)
(51.119 2.52573 4.38943)
(51.0356 2.53105 4.38343)
(47.1101 2.21643 2.18431)
(21.0523 0.0635688 -12.2547)
(-21.5296 5.94805 -5.09669)
(49.5051 2.61221 4.21537)
(50.4556 2.56917 4.34558)
(50.3123 2.57857 4.33613)
(50.0269 2.59726 4.31726)
(49.1847 2.6524 4.26162)
(-16.5333 6.95517 -0.080602)
(-17.3753 7.0103 -0.136408)
(-17.4247 7.01458 -0.413143)
(6.12282 2.44525 -7.35876)
(-23.5143 6.04148 -5.35789)
(-22.2618 6.27315 -4.17329)
(-18.1691 7.06163 -0.191746)
(-18.2845 7.06993 -0.196411)
(-18.3852 7.07647 -0.203013)
(-18.4678 7.08184 -0.208435)
(-18.5321 7.08603 -0.212666)
(-18.532 7.08603 -0.212793)
(-18.3189 7.07743 -0.463246)
(-17.8969 7.06008 -0.957442)
(-23.5151 6.04148 -5.35989)
(-23.516 6.04203 -5.3586)
(-21.1817 6.70652 -4.66322)
(-13.3409 8.82891 -1.60259)
(-14.798 8.30677 -1.19766)
(-16.5078 7.72456 -0.738033)
(-18.5299 7.08676 -0.213256)
(-18.5306 7.08651 -0.213215)
(-18.3177 7.07784 -0.463643)
(-17.8971 7.06118 -0.95797)
(-23.0511 6.01946 -5.289)
(46.7771 2.72915 3.81909)
(51.1819 2.52157 4.3935)
(51.1831 2.52152 4.39366)
(51.1832 2.52152 4.39366)
(51.1833 2.52152 4.39367)
(51.0936 2.52497 4.37937)
(29.6738 0.749014 -7.82342)
(20.9834 0.058436 -12.2845)
(20.4007 0.0566212 -11.946)
(-23.5148 6.0414 -5.35173)
(-23.4678 6.03957 -5.34354)
(30.2662 3.54394 1.69139)
(50.0033 2.62502 4.28785)
(49.6996 2.64002 4.27202)
(48.749 2.69715 4.21321)
(-16.2544 6.93757 -0.0631171)
(-16.3764 6.83739 -0.38713)
(17.8074 0.152543 -10.5804)
(17.4613 0.0485128 -10.2249)
(-23.5152 6.0415 -5.35403)
(-23.5166 6.04191 -5.35215)
(-22.97 6.18244 -5.28587)
(-7.66174 9.91649 -2.82955)
(-9.85943 9.17736 -2.2105)
(-13.1868 8.24098 -1.39273)
(-18.525 7.08774 -0.214303)
(-18.5275 7.08722 -0.213822)
(-18.3854 7.06973 -0.316633)
(8.91265 1.37211 -7.33389)
(-23.5156 6.04159 -5.35632)
(-23.5167 6.04196 -5.3544)
(-22.6518 6.31673 -5.38392)
(3.91126 14.5362 -6.25728)
(3.9632 14.2769 -6.13229)
(3.85096 13.8751 -5.95963)
(1.96199 13.6371 -5.60567)
(0.357895 13.3541 -5.27342)
(-1.01272 13.0553 -4.98521)
(1.18726 10.0195 -5.43624)
(-23.5149 6.04141 -5.33193)
(-23.5054 6.04131 -5.32648)
(4.74088 4.71024 -1.65276)
(51.1563 2.52278 4.37813)
(51.1831 2.52152 4.38281)
(51.1831 2.52152 4.38401)
(51.0604 2.52353 4.3536)
(26.4942 0.460381 -9.93137)
(21.4248 0.0594881 -12.4964)
(20.9892 0.0581752 -12.2489)
(-23.5153 6.04151 -5.33642)
(-23.5168 6.04189 -5.33236)
(-23.5153 6.04193 -5.32784)
(-15.8505 5.69017 -4.32408)
(49.1853 2.70156 4.18601)
(48.2816 2.75333 4.14549)
(-15.976 6.9205 -0.0461848)
(-15.2193 6.63905 -0.693638)
(18.722 0.109382 -11.0006)
(18.3445 0.0509085 -10.7005)
(-23.5157 6.04161 -5.34091)
(-23.5169 6.04194 -5.3368)
(-23.5173 6.04204 -5.3325)
(-23.4714 6.05411 -5.32458)
(-7.3484 10.0404 -3.35197)
(-9.89765 9.18418 -2.20866)
(-18.5139 7.09082 -0.216557)
(-18.5206 7.08921 -0.215002)
(-18.324 7.05507 -0.300866)
(12.3393 0.846072 -8.45455)
(-23.516 6.04171 -5.34539)
(-23.5171 6.04197 -5.34123)
(-23.5174 6.04206 -5.33691)
(-23.441 6.06638 -5.33532)
(2.36728 14.0585 -6.18304)
(3.96295 14.2775 -6.11203)
(2.99692 14.2302 -5.95815)
(2.0994 14.1262 -5.79177)
(1.26978 13.9863 -5.62683)
(3.68655 10.716 -6.16256)
)
;

boundaryField
{
    inlet
    {
        type            calculated;
        value           nonuniform 0();
    }
    outlet
    {
        type            calculated;
        value           uniform (0 0 0);
    }
    bottom
    {
        type            calculated;
        value           uniform (0 0 0);
    }
    top
    {
        type            symmetryPlane;
    }
    side1
    {
        type            symmetryPlane;
    }
    side2
    {
        type            symmetryPlane;
    }
    procBoundary15to7
    {
        type            processor;
        value           nonuniform List<vector> 
50
(
(-7.06031 2.3008 6.97311)
(-6.44235 3.58553 7.25693)
(-6.44206 3.58762 7.25697)
(-5.94153 3.57134 7.22679)
(42.8918 2.1414 4.19084)
(44.4699 2.05614 3.97325)
(41.499 1.83739 2.19765)
(5.13715 -0.567822 -16.3392)
(4.96608 -0.580916 -16.43)
(13.228 -0.306289 -15.5539)
(-3.27476 2.18993 6.74689)
(1.81276 3.3657 6.75968)
(14.6165 3.01821 5.9583)
(45.2483 2.15761 3.97826)
(44.5917 2.12921 3.90638)
(43.6848 2.09193 3.81976)
(43.6488 1.93069 3.63052)
(6.38833 -6.212 -7.51342)
(5.85795 -6.32628 -7.7003)
(21.16 -1.08195 -13.1587)
(46.4389 2.28992 3.98716)
(46.0035 2.26657 3.94948)
(45.4307 2.23818 3.89997)
(44.7125 2.20275 3.83822)
(43.7885 2.15722 3.75889)
(42.557 2.09655 3.65318)
(43.7643 2.15886 3.75586)
(38.2695 1.69865 -1.36627)
(24.5062 0.0628362 -14.3385)
(24.5155 0.0680347 -14.3556)
(-21.4686 5.93263 -5.07472)
(45.3953 2.34748 3.84447)
(46.004 2.26628 3.94717)
(45.427 2.23769 3.89585)
(44.7017 2.20159 3.82824)
(43.7472 2.15268 3.71916)
(27.0733 0.33899 -12.0487)
(24.5161 0.0681144 -14.355)
(24.5155 0.0680417 -14.3556)
(24.5156 0.0680418 -14.3556)
(-23.5151 6.0413 -5.32747)
(-23.4667 6.03916 -5.31685)
(26.1063 3.38186 1.26617)
(45.9879 2.26579 3.92652)
(45.4047 2.23531 3.86473)
(44.6039 2.19115 3.72938)
(25.9267 0.214424 -13.0653)
(24.5154 0.067691 -14.3001)
(24.5151 0.0677239 -14.3067)
(24.5152 0.0677935 -14.3129)
)
;
    }
    procBoundary15to14
    {
        type            processor;
        value           nonuniform List<vector> 
20
(
(-17.7734 -21.5 1.11358)
(-16.2799 -19.6834 1.01508)
(-20.9625 4.06971 -4.52952)
(-21.1383 5.43071 -4.81985)
(9.62375 -11.9987 2.4207)
(-19.9278 5.07183 -4.60866)
(-21.1381 5.43084 -4.81735)
(-20.874 5.36289 -4.75841)
(50.5271 2.54423 4.31266)
(-20.7456 5.41503 -4.76381)
(-20.8742 5.36296 -4.75507)
(-20.5439 5.2781 -4.68118)
(-21.0485 5.42718 -4.79525)
(-20.8745 5.36298 -4.74859)
(-20.5442 5.27817 -4.67537)
(-20.1196 5.1691 -4.58059)
(-20.8751 5.36312 -4.72896)
(-20.5449 5.27833 -4.65794)
(-20.1204 5.1693 -4.56538)
(-19.5544 5.02389 -4.44048)
)
;
    }
    procBoundary15to23
    {
        type            processor;
        value           nonuniform List<vector> 
50
(
(-21.0514 5.44765 -4.82659)
(2.44713 10.2175 -6.78157)
(6.30988 10.985 -7.09378)
(6.31076 10.9845 -7.09742)
(6.30936 10.9823 -7.10675)
(6.30366 10.9722 -7.14748)
(4.15706 6.9009 -23.5562)
(3.99234 6.17776 -26.6855)
(3.99234 6.17742 -26.6871)
(3.97574 6.18658 -26.6739)
(-20.8703 5.36363 -4.75832)
(-16.1972 7.58903 -5.26802)
(4.59626 16.6712 -7.16305)
(4.62467 16.6837 -7.16538)
(4.62245 16.6829 -7.16473)
(4.61531 16.6801 -7.16261)
(-4.40738 12.9373 -4.45969)
(-4.21219 9.62178 -11.523)
(2.29578 7.10891 -25.3306)
(-46.4359 33.9993 13.1925)
(-20.5415 5.27833 -4.68101)
(-17.6689 6.78614 -5.0583)
(4.59072 16.6694 -7.16356)
(4.63019 16.6867 -7.16711)
(4.62941 16.6864 -7.16688)
(4.62678 16.6853 -7.1661)
(-0.984436 14.3595 -5.48133)
(-4.40746 12.9406 -4.45362)
(-6.67757 11.9658 -3.86173)
(-24.2508 20.7555 3.73856)
(-20.1181 5.16902 -4.58038)
(-19.0153 5.97105 -4.82675)
(4.56326 16.6569 -7.16157)
(4.63414 16.6883 -7.1683)
(4.63416 16.6884 -7.16831)
(4.63416 16.6884 -7.16832)
(4.63409 16.6883 -7.16829)
(4.63397 16.6883 -7.16825)
(4.6338 16.6882 -7.1682)
(4.61799 16.688 -7.17445)
(-19.5535 5.02365 -4.44027)
(-20.1203 5.16931 -4.56537)
(-20.4215 5.3345 -4.67021)
(3.83198 16.3322 -7.0659)
(4.634 16.6883 -7.1447)
(4.63416 16.6884 -7.14767)
(4.63411 16.6883 -7.1447)
(4.63403 16.6883 -7.14173)
(4.63393 16.6882 -7.13876)
(4.61891 16.6934 -7.14512)
)
;
    }
}


// ************************************************************************* //
