/*--------------------------------*- C++ -*----------------------------------*\
| =========                 |                                                 |
| \\      /  F ield         | OpenFOAM: The Open Source CFD Toolbox           |
|  \\    /   O peration     | Version:  2.4.0                                 |
|   \\  /    A nd           | Web:      www.OpenFOAM.org                      |
|    \\/     M anipulation  |                                                 |
\*---------------------------------------------------------------------------*/
FoamFile
{
    version     2.0;
    format      ascii;
    class       volVectorField;
    location    "0.04";
    object      Ub;
}
// * * * * * * * * * * * * * * * * * * * * * * * * * * * * * * * * * * * * * //

dimensions      [0 1 -1 0 0 0 0];

internalField   nonuniform List<vector> 
200
(
(141.875 -80.0246 35.8211)
(161.81 -75.2022 -1.95085)
(102.49 -55.3914 21.6264)
(167.102 44.0352 -70.397)
(98.3911 -0.273159 -41.8406)
(200.784 107.783 -41.0351)
(111.648 -27.1293 -107.599)
(146.411 63.9045 -33.9363)
(141.071 -49.1632 -225.197)
(212.026 2.74419 59.7409)
(237.763 -10.6228 295.039)
(137.484 -12.6316 62.8017)
(167.567 -31.9066 -21.8698)
(122.238 16.4327 46.1169)
(187.122 45.7841 -48.9039)
(137.095 -0.758906 55.2302)
(171.229 50.794 -59.4495)
(149.892 6.57811 22.6937)
(181.956 -32.8648 38.9712)
(164.821 -40.5313 -359.762)
(136.795 1.33056 62.9384)
(145.142 2.24955 24.1502)
(131.81 4.77419 63.6725)
(140.888 -15.8273 18.7849)
(134.081 8.62952 65.5151)
(152.527 -13.4645 3.89124)
(142.291 30.5273 -33.344)
(172.964 -80.9266 64.0828)
(143.935 56.1725 -142.314)
(170.199 -101.519 123.123)
(91.2582 -16.7298 -7.86386)
(100.4 -42.6278 54.0649)
(93.1251 -36.7357 39.4551)
(92.1551 -6.07271 -2.42705)
(104.647 -77.0741 70.56)
(98.9733 23.6202 -127.648)
(136.999 -124.711 79.2634)
(94.285 57.7989 -189.237)
(137.508 -123.771 112.884)
(53.4893 130.255 -207.946)
(227.632 -73.8018 10.0197)
(145.276 -124.011 30.8049)
(294.798 195.705 58.9249)
(146.727 -288.663 -19.9472)
(390.098 233.311 -56.9567)
(172.671 -3.91286 87.2824)
(214.242 -204.032 309.56)
(224.608 -49.9507 40.4618)
(225.732 16.8484 -122.298)
(147.428 -67.4414 -179.719)
(166.764 -30.496 39.2802)
(174.372 -55.0213 -5.64347)
(158.018 -136.085 14.3683)
(270.852 16.6207 -83.7342)
(173.859 -57.8091 60.5069)
(302.765 217.759 56.829)
(201.858 -39.8238 19.2197)
(194.355 -73.4297 -9.38598)
(204.814 2.31175 -16.585)
(188.606 -76.433 106.214)
(135.768 -19.7877 -4.8664)
(152.405 -37.333 31.411)
(116.526 -70.7265 -24.1275)
(149.378 -162.735 23.2303)
(122.642 69.8224 -31.4845)
(177.122 26.1421 37.3338)
(224.729 4.75651 46.9942)
(186.07 28.4386 -25.6811)
(185.602 -44.3302 72.9039)
(140.241 61.767 -64.6511)
(95.1134 -19.6964 14.9503)
(108.671 -45.3134 -5.81537)
(114.318 -26.7185 5.6136)
(102.727 -71.5561 12.8957)
(131.782 -8.12473 4.30499)
(142.453 -69.4424 25.3481)
(140.493 9.34125 5.57396)
(137.256 -34.6082 18.5733)
(60.8757 109.057 -104.485)
(62.0781 -13.7914 79.3175)
(177.483 -71.4167 33.3876)
(229.177 125.207 101.003)
(201.2 -107.849 44.0869)
(319.674 128.655 -2.87046)
(172.243 -15.8613 47.0774)
(177.603 -89.4024 66.066)
(193.673 -3.6838 -48.4702)
(192.537 -108.131 3.87475)
(178.453 -12.4791 -60.509)
(136.924 -190.895 72.1751)
(190.3 16.5834 84.9534)
(215.573 2.20992 113.304)
(176.013 74.0698 117.712)
(146.552 -0.511523 12.2732)
(190.242 11.6801 -16.4004)
(172.668 -4.94297 -15.514)
(170.667 -45.5416 -19.7159)
(175.368 5.10861 -42.651)
(151.273 -104.359 -2.94931)
(141.27 11.5985 -73.246)
(131.803 41.6255 69.1293)
(122.717 -17.561 -11.5607)
(123.129 -12.7978 18.28)
(140.079 -19.9375 -58.8578)
(132.906 1.53269 3.50036)
(159.911 -33.2963 -26.3096)
(151.088 10.7732 -22.1025)
(143.539 -40.3723 -33.6197)
(117.527 35.0537 -49.7402)
(92.5573 -66.167 10.0736)
(87.7999 -34.9607 -21.4521)
(36.3841 -8.05712 -42.9914)
(92.1514 -60.8739 -18.0986)
(35.535 -17.5639 -38.9611)
(99.6763 -97.1528 -34.2938)
(21.1908 29.5391 -12.9899)
(78.8002 -41.6363 -36.5484)
(9.95775 119.045 -51.538)
(-37.5132 11.1708 7.43793)
(-37.8086 89.9141 -83.0847)
(154.785 30.4427 112.851)
(238.363 -6.28371 -78.1144)
(268.728 126.125 49.7944)
(193.101 15.0048 146.591)
(155.138 -56.5233 24.8682)
(148.976 -25.6268 -29.1628)
(133.353 17.1502 90.3746)
(134.083 21.3383 -73.4498)
(84.13 -44.3722 -10.7612)
(129.748 -1.8812 -29.2952)
(195.723 -2.17732 -82.6841)
(179.613 49.8087 46.7651)
(192.629 113.403 328.545)
(210.959 170.426 -128.873)
(154.2 -14.3083 15.7947)
(143.991 -20.5846 16.1667)
(123.149 10.2874 -51.962)
(111.673 -7.49209 -33.7013)
(135.106 21.4761 -31.3437)
(131.4 -113.527 20.9911)
(130.8 -6.25724 24.9322)
(148.465 32.7585 149.519)
(149.974 76.5982 -59.2779)
(153.891 39.7343 150.233)
(188.671 89.0438 -116.393)
(110.947 31.9946 -9.98165)
(162.034 14.9134 -27.2187)
(130.246 51.4001 -22.811)
(138.541 -13.3852 -33.4968)
(99.9757 68.9821 -33.1078)
(117.802 4.80951 79.5105)
(123.69 3.68597 -1.22001)
(72.0946 16.1824 76.6189)
(157.889 -5.02066 -18.6593)
(42.3178 -9.42825 5.81314)
(175.45 -47.5613 -18.9653)
(72.561 53.2712 -3.04037)
(95.972 19.887 -35.7557)
(36.7556 110.401 -32.5109)
(0.889194 20.8708 -0.802476)
(178.832 27.0042 -193.654)
(133.329 29.7744 22.7712)
(179.62 44.6547 166.939)
(119.737 -42.482 -71.8219)
(208.751 96.6679 321.137)
(156.893 59.3568 103.6)
(159.675 4.6828 -99.8614)
(143.755 292.157 425.173)
(178.437 166.263 -122.512)
(89.5239 511.64 -254.74)
(123.093 1.19244 24.8303)
(142.719 47.7857 152.849)
(151.998 38.721 -48.62)
(188.524 67.4891 213.122)
(142.433 68.1869 -99.3535)
(136.632 43.7614 2.18519)
(107.201 164.278 143.855)
(131.807 142.696 -169.064)
(70.4034 377.788 -184.041)
(191.869 29.5822 -37.9044)
(144.091 37.7807 108.116)
(138.291 58.8178 -51.7836)
(162.518 70.5938 207.782)
(149.505 106.737 -142.282)
(147.916 141.667 482.269)
(166.034 186.746 -108.947)
(145.044 78.6463 -81.3819)
(130.838 136.001 -50.2121)
(183.574 60.2992 -31.7855)
(202.371 52.3109 -1.06472)
(129.615 31.2551 -37.7356)
(154.293 67.0793 162.589)
(150.542 112.135 -101.256)
(152.049 121.488 252.667)
(178.806 153.138 -95.1653)
(154.325 2.96843 -32.4829)
(188.869 99.6905 59.944)
(168.241 89.6166 -30.0437)
(177.016 82.1202 -23.2641)
(121.078 109.492 -27.5954)
)
;

boundaryField
{
    inlet
    {
        type            fixedValue;
        value           nonuniform 0();
    }
    outlet
    {
        type            zeroGradient;
    }
    bottom
    {
        type            fixedValue;
        value           uniform (0 0 0);
    }
    top
    {
        type            symmetryPlane;
    }
    side1
    {
        type            symmetryPlane;
    }
    side2
    {
        type            symmetryPlane;
    }
    procBoundary15to7
    {
        type            processor;
        value           nonuniform List<vector> 
50
(
(54.3707 -132.478 -16.568)
(67.2533 -11.1845 33.6936)
(105.43 35.6138 47.4535)
(51.6274 -31.0513 -54.1817)
(123.639 102.703 -32.3982)
(55.2221 -29.5103 -120.699)
(121.14 117.092 49.4402)
(60.9832 -65.3726 -284.931)
(130.346 42.7496 72.5002)
(71.4123 -170.533 -428.729)
(131.124 -79.9492 39.3562)
(245.706 162.085 119.067)
(119.731 -105.759 58.7914)
(331.206 358.844 141.72)
(157.569 -54.0372 56.3751)
(194.401 -18.4555 -43.7648)
(168.398 -35.0769 53.7193)
(240.191 17.9974 -14.2324)
(155.755 -80.673 -93.3819)
(147.73 -79.684 98.6298)
(217.463 55.0052 23.3529)
(120.417 -136.836 12.6762)
(323.825 431.777 146.378)
(150.658 -52.5906 31.4268)
(194.84 -102.109 27.1139)
(176.727 -22.8581 19.1939)
(171.901 -114.66 36.0038)
(206.869 -28.241 -53.4684)
(147.299 -175.436 52.6372)
(147.896 -19.7961 -49.9922)
(199.381 -54.2497 19.1682)
(233.501 141.152 53.9024)
(193.175 13.6222 64.9179)
(175.686 -57.4286 31.3408)
(176.871 -20.5833 -1.8516)
(169.903 -84.9265 57.9487)
(194.349 -34.7734 -33.0515)
(133.234 9.66807 125.048)
(145.013 -1.21198 -64.93)
(65.6588 -70.5413 36.32)
(171.07 43.0503 32.0787)
(169.184 34.0173 8.4456)
(157.853 -16.6393 28.0821)
(181.537 9.21347 16.0079)
(162.82 -26.1779 55.1977)
(152.365 -31.8206 -60.8307)
(168.384 101.557 239.021)
(149.348 -40.5769 -121.541)
(178.541 393.373 727.902)
(206.674 95.0195 -68.7802)
)
;
    }
    procBoundary15to14
    {
        type            processor;
        value           nonuniform List<vector> 
20
(
(160.299 -28.8298 622.266)
(318.011 87.8755 -29.8683)
(142.143 -15.0913 82.767)
(101.704 -37.0359 46.5649)
(173.696 -66.3084 22.2813)
(179.709 1.49003 129.884)
(130.418 23.5249 49.6536)
(83.4135 -20.0434 -20.6049)
(288.527 -140.579 -1.63216)
(168.766 32.1389 14.5182)
(141.48 34.5037 39.6708)
(32.6499 30.7998 -0.247716)
(195.936 30.3152 -29.5118)
(138.384 -66.6808 89.0857)
(138.135 40.9386 95.5145)
(123.829 -26.4577 4.21429)
(123.428 -148.147 21.3974)
(161.539 10.3059 -34.5218)
(117.596 -63.1078 -11.8707)
(151.928 50.3865 83.5024)
)
;
    }
    procBoundary15to23
    {
        type            processor;
        value           nonuniform List<vector> 
50
(
(36.5455 -10.9428 -25.8082)
(25.603 -30.2972 46.9495)
(7.43106 19.2273 -66.8396)
(10.3366 -118.272 71.3487)
(-44.5023 73.4978 -248.135)
(50.2923 -138.309 67.338)
(-52.7502 159.541 -292.405)
(57.358 -74.7587 50.791)
(-53.2041 180.368 -223.392)
(43.3441 -12.4494 80.776)
(59.0173 -44.3787 -53.5795)
(-0.429899 3.13761 -89.7671)
(52.5877 -60.6048 -16.7615)
(-23.0847 14.1206 -53.1175)
(28.654 -68.0889 -32.5887)
(-88.0072 124.016 -106.575)
(-5.73828 1.78356 -1.94254)
(-136.02 191.142 -132.974)
(-113.158 52.957 37.7034)
(-155 192.09 -114.234)
(-57.6052 12.529 -27.6093)
(0.802618 -43.6872 -47.9475)
(-126.79 15.3896 -49.3608)
(-56.8594 -75.7696 -125.218)
(-170.829 110.205 -34.9239)
(-102.94 -19.1915 -83.9454)
(-199.526 152.103 -81.9882)
(-183.013 55.0117 -6.13205)
(-229.107 187.973 -81.5681)
(-193.28 38.6827 12.5835)
(70.2567 -19.4435 -14.2794)
(30.7171 37.9579 167.539)
(26.531 -9.26855 -63.3538)
(-142.282 120.56 56.1485)
(-32.9356 13.8435 -17.923)
(-191.406 166.033 -43.2502)
(-169.972 48.6833 -25.8008)
(-225.908 164.262 -64.9102)
(-180.895 46.8528 51.3692)
(-195.179 188.658 -69.3899)
(129.695 44.023 126.292)
(128.076 99.5556 -80.8501)
(166.767 80.6426 353.921)
(147.696 166.976 -134.373)
(113.995 73.2906 4.58817)
(150.829 70.4992 62.6716)
(149.831 100.517 -33.3987)
(56.4895 94.0646 -11.1781)
(14.947 157.265 -53.7673)
(51.424 69.8785 15.7797)
)
;
    }
}


// ************************************************************************* //
