/*--------------------------------*- C++ -*----------------------------------*\
| =========                 |                                                 |
| \\      /  F ield         | OpenFOAM: The Open Source CFD Toolbox           |
|  \\    /   O peration     | Version:  2.4.0                                 |
|   \\  /    A nd           | Web:      www.OpenFOAM.org                      |
|    \\/     M anipulation  |                                                 |
\*---------------------------------------------------------------------------*/
FoamFile
{
    version     2.0;
    format      ascii;
    class       volVectorField;
    location    "0.12";
    object      U;
}
// * * * * * * * * * * * * * * * * * * * * * * * * * * * * * * * * * * * * * //

dimensions      [0 1 -1 0 0 0 0];

internalField   nonuniform List<vector> 
200
(
(-7.41456e+08 2.63065e+09 1.71438e+09)
(-6.52451e+08 2.4748e+09 1.80724e+08)
(-1.51819e+09 2.51257e+09 4.31241e+08)
(-2.12196e+09 4.33565e+09 2.25195e+08)
(-1.67913e+09 3.69027e+09 3.27244e+08)
(-2.05354e+09 3.29141e+09 3.94733e+08)
(-1.26671e+09 2.99521e+09 2.25766e+08)
(-7.8772e+08 2.2241e+07 8.23633e+07)
(-1.03585e+09 1.25073e+09 1.11622e+09)
(-3.10575e+08 -1.54317e+09 8.49141e+07)
(-6.18489e+08 3.55138e+09 1.41589e+08)
(-1.05045e+09 3.37405e+09 4.34186e+08)
(-2.14251e+09 4.37894e+09 1.3422e+08)
(-1.46169e+09 2.89088e+09 8.89784e+08)
(-2.0176e+09 3.44316e+09 4.30045e+08)
(-1.30448e+09 2.75088e+09 3.65333e+08)
(-1.73877e+08 -1.53914e+09 -1.88399e+08)
(-4.47632e+08 1.74059e+09 1.02223e+09)
(4.03866e+08 -3.28343e+09 8.9075e+07)
(-9.55328e+08 2.43534e+09 2.96691e+08)
(-4.49717e+08 5.00013e+09 5.88879e+08)
(-1.41342e+09 5.32966e+09 6.73503e+07)
(-6.33535e+08 2.73173e+09 8.48435e+08)
(-1.48342e+09 3.42652e+09 2.99364e+08)
(-7.41421e+08 2.51285e+09 5.25636e+08)
(-2.09874e+08 -1.1425e+09 -4.48967e+07)
(-1.65368e+08 1.87644e+09 9.96119e+08)
(5.46406e+08 -4.08607e+09 1.27648e+08)
(-6.2866e+08 2.20328e+09 -1.0419e+08)
(-1.51227e+08 2.56597e+08 9.81864e+07)
(-4.66764e+08 5.87741e+09 3.82132e+08)
(2.20992e+08 3.64082e+09 7.86403e+08)
(-5.19063e+08 3.98347e+09 6.29775e+07)
(-6.09469e+06 2.6024e+09 4.86495e+08)
(-1.39694e+08 -868583 -7.25064e+07)
(4.31517e+07 1.82655e+09 8.2296e+08)
(4.11557e+08 -4.47573e+09 8.78811e+07)
(-4.42059e+08 1.87477e+09 -1.24338e+08)
(-1.24406e+08 -1.13904e+09 3.25397e+08)
(-6.54108e+08 2.86237e+09 -2.19807e+08)
(-3.94308e+08 2.81731e+09 1.32724e+08)
(-1.25765e+09 1.66993e+09 1.38581e+09)
(-1.10799e+09 2.43792e+09 1.65584e+08)
(-1.71327e+09 3.21783e+09 4.37458e+08)
(-2.31319e+09 4.88522e+09 6.00352e+08)
(-2.15455e+09 5.28184e+09 7.34153e+08)
(-2.07617e+09 3.82561e+09 7.9185e+08)
(-1.74606e+09 3.38285e+09 5.08247e+08)
(-1.83605e+09 2.13365e+09 1.42833e+08)
(-2.14587e+09 3.21456e+09 7.33092e+08)
(-5.4115e+08 3.18888e+09 1.33093e+09)
(-9.47492e+08 2.74078e+09 2.40762e+08)
(-1.42245e+09 3.05603e+09 5.26902e+08)
(-2.04217e+09 3.72561e+09 4.91982e+08)
(-1.61615e+09 3.64135e+09 1.16397e+09)
(-1.55303e+09 4.04476e+09 7.58187e+08)
(-1.01548e+09 3.65322e+09 7.50058e+08)
(-9.42127e+08 2.22167e+09 6.46332e+08)
(-7.69902e+08 3.18491e+09 8.55575e+08)
(-1.29826e+08 7.00613e+08 1.72589e+08)
(-2.92931e+08 4.26856e+09 3.69558e+08)
(-7.16621e+08 3.60157e+09 8.67489e+08)
(-1.35479e+09 3.92992e+09 3.72144e+08)
(-8.44697e+08 3.11544e+09 5.48355e+08)
(-1.36758e+09 3.75259e+09 5.48441e+08)
(-7.59568e+08 3.17353e+09 6.57493e+08)
(-7.10385e+08 1.98659e+09 5.49939e+08)
(-1.60121e+08 3.21996e+09 1.24824e+09)
(4.24628e+08 -8.48207e+08 1.68729e+08)
(1.4904e+08 3.57334e+09 6.7281e+08)
(-3.38458e+07 4.64379e+09 1.12249e+09)
(-5.51752e+08 4.84965e+09 6.43256e+08)
(-8.03967e+07 3.45717e+09 5.77638e+08)
(-8.72761e+08 3.81226e+09 3.87443e+08)
(-2.34629e+08 3.09941e+09 4.08599e+08)
(-7.68777e+08 2.40348e+09 5.00682e+08)
(8.63132e+07 3.02057e+09 1.46771e+09)
(9.3719e+08 -2.08519e+09 1.96709e+08)
(7.6113e+08 2.73669e+09 8.23116e+08)
(9.23956e+08 7.4903e+08 1.17187e+07)
(-7.57316e+08 2.18879e+09 3.0753e+09)
(-1.88456e+07 2.99701e+09 6.82057e+07)
(-8.20671e+08 2.33688e+09 1.69582e+09)
(-5.94969e+08 4.4882e+09 3.1138e+08)
(-1.14654e+09 5.32492e+09 7.01861e+08)
(-1.66337e+09 3.48095e+09 1.00045e+09)
(-1.58239e+09 4.37986e+09 6.19277e+08)
(-1.76916e+09 3.93306e+09 7.01167e+08)
(-2.43258e+09 4.68417e+09 7.3201e+08)
(-1.88007e+09 3.53413e+09 3.0645e+08)
(-2.66844e+08 4.17103e+09 1.74573e+08)
(-9.25278e+08 3.21467e+09 1.41563e+09)
(-1.16577e+09 3.47958e+09 1.73356e+08)
(-1.17187e+09 5.25014e+09 7.33814e+08)
(-1.70635e+09 4.26549e+09 6.96802e+08)
(-1.0975e+09 3.78006e+09 1.13972e+09)
(-1.16616e+09 4.29188e+09 1.01072e+09)
(-1.05044e+09 4.37205e+09 6.66322e+08)
(-1.03045e+09 4.12806e+09 4.94233e+08)
(-1.20584e+09 4.3507e+09 7.19815e+08)
(-2.28038e+08 4.16802e+09 1.28764e+09)
(-5.69466e+08 4.78112e+09 2.39185e+08)
(-7.98739e+08 4.02586e+09 6.87796e+08)
(-1.0112e+09 5.31618e+09 4.46641e+08)
(-7.22636e+08 4.75245e+09 5.8207e+08)
(-7.87344e+08 3.93983e+09 5.39818e+08)
(-4.43162e+08 4.1295e+09 6.78808e+08)
(-8.11979e+08 4.72056e+09 1.15283e+09)
(-9.14566e+08 4.66359e+09 8.81434e+08)
(-8.89378e+08 3.80208e+09 6.74643e+08)
(-1.76431e+08 5.15006e+09 5.14723e+08)
(-1.8536e+08 5.08232e+09 1.07757e+09)
(-3.9051e+08 4.49333e+09 6.8843e+08)
(-2.27123e+08 4.82272e+09 5.37101e+08)
(-5.56622e+08 4.9706e+09 6.07428e+08)
(-1.04611e+07 3.88733e+09 2.9153e+08)
(-9.35312e+08 4.56177e+09 6.74141e+08)
(1.40169e+08 4.42874e+09 8.16834e+08)
(-3.31238e+08 3.86142e+09 1.00641e+09)
(-8.76113e+08 4.79228e+09 7.45978e+08)
(1.48242e+08 4.49979e+09 -1.38e+08)
(6.98829e+07 3.04958e+09 1.29797e+09)
(-1.20786e+08 4.24677e+09 2.48447e+08)
(-1.16715e+08 3.84724e+09 5.15154e+08)
(-7.63188e+08 3.44446e+09 5.95163e+08)
(-8.96278e+08 5.425e+09 7.21641e+08)
(-1.4087e+09 4.43953e+09 7.69886e+08)
(-1.2066e+09 5.16404e+09 2.15218e+08)
(-1.78395e+09 4.26876e+09 -2.15337e+08)
(-1.53634e+09 3.75155e+09 4.69227e+08)
(-5.38902e+08 3.57164e+09 2.0288e+09)
(-1.43711e+07 4.31245e+09 5.64239e+07)
(-2.89045e+08 4.36158e+09 5.6393e+08)
(-2.26285e+08 4.09561e+09 3.10753e+08)
(9.26294e+07 4.14513e+09 3.57156e+08)
(-7.1099e+08 5.04111e+09 3.48196e+08)
(-6.54937e+08 4.93644e+09 5.30325e+08)
(-4.00483e+08 5.54149e+09 5.63711e+08)
(-7.43027e+08 5.62202e+09 -3.06667e+07)
(-1.20463e+09 5.38166e+09 1.75492e+08)
(5.55524e+07 4.73217e+09 2.19056e+08)
(-1.7695e+08 4.62683e+09 8.28532e+08)
(-2.66574e+08 4.52025e+09 3.28733e+08)
(-1.64924e+08 4.24301e+09 3.90625e+08)
(-4.82527e+08 4.39524e+09 5.1523e+08)
(-1.38755e+07 1.25938e+10 -7.43202e+08)
(6.69078e+08 4.14e+09 5.49178e+08)
(9.19524e+08 5.84809e+09 8.78165e+08)
(7.18447e+07 7.17677e+09 2.92716e+07)
(-1.46364e+09 6.18693e+09 8.52404e+08)
(1.62143e+08 4.37541e+09 7.22256e+08)
(4.39291e+08 5.00984e+09 5.3142e+08)
(3.30614e+08 5.3602e+09 7.37955e+08)
(-3.31035e+08 4.45783e+09 9.05381e+08)
(-1.09617e+08 5.17636e+09 5.44099e+08)
(7.99864e+07 -1.35534e+09 2.8815e+09)
(2.04423e+09 4.74466e+09 6.83301e+08)
(1.10727e+09 6.24516e+09 1.03431e+09)
(3.53183e+07 1.29467e+10 4.50055e+09)
(1.9314e+07 6.30281e+09 7.9678e+08)
(-3.56273e+07 3.45506e+09 4.7128e+08)
(-1.02791e+08 3.82798e+09 2.29008e+08)
(-7.22393e+07 4.06178e+09 2.15179e+08)
(-4.06181e+08 3.5846e+09 3.36501e+08)
(-1.08e+08 3.54581e+09 2.78746e+08)
(-8.79017e+08 4.31716e+09 5.47435e+08)
(-1.0458e+09 4.46164e+09 3.05261e+08)
(-1.2537e+09 5.10512e+09 3.19623e+08)
(-1.5621e+09 4.35957e+09 -7.05692e+06)
(-1.69637e+09 4.94858e+09 -8.72865e+07)
(3.5682e+07 4.20898e+09 8.29862e+07)
(8.01269e+07 4.12858e+09 1.78158e+08)
(-2.19228e+08 4.53717e+09 1.26741e+08)
(1.15704e+08 3.91301e+09 1.23323e+08)
(-1.65469e+08 3.56178e+09 2.47421e+08)
(2.89734e+08 7.45963e+09 -2.07114e+08)
(2.35039e+08 5.16291e+09 3.27926e+07)
(2.24945e+08 6.18285e+09 3.3631e+08)
(-9.25765e+07 5.24963e+09 6.05652e+07)
(-6.36914e+08 5.14213e+09 2.28699e+08)
(5.7886e+07 4.23505e+09 2.33792e+08)
(-1.50488e+08 4.86252e+09 3.48415e+07)
(2.14544e+08 4.12301e+09 1.7963e+08)
(1.79574e+08 3.82851e+09 3.73075e+08)
(3.5034e+08 3.66797e+09 2.26802e+08)
(4.15227e+08 2.57624e+09 8.30353e+06)
(1.15024e+09 5.31613e+09 3.1474e+08)
(7.66784e+08 6.82916e+09 9.37484e+07)
(8.30408e+08 5.41793e+09 2.65326e+08)
(4.43175e+08 6.69752e+09 2.37203e+07)
(1.78914e+08 4.34919e+09 9.07546e+07)
(4.3599e+08 4.43535e+09 2.95694e+08)
(6.24485e+08 3.77185e+09 4.52095e+08)
(9.32041e+08 3.8872e+09 2.76168e+08)
(4.59091e+08 6.17528e+09 3.85917e+08)
(8.93213e+08 3.18255e+09 6.8313e+08)
(8.81455e+08 6.02224e+09 5.33321e+08)
(6.41491e+08 7.66208e+09 7.60933e+08)
(9.62208e+08 5.92718e+09 4.51098e+08)
(4.61006e+08 7.67641e+09 6.53219e+08)
)
;

boundaryField
{
    inlet
    {
        type            calculated;
        value           nonuniform List<vector> 
20
(
(6 0 0)
(6 0 0)
(6 0 0)
(6 0 0)
(6 0 0)
(6 0 0)
(6 0 0)
(6 0 0)
(6 0 0)
(6 0 0)
(6 0 0)
(6 0 0)
(6 0 0)
(6 0 0)
(6 0 0)
(6 0 0)
(6 0 0)
(6 0 0)
(6 0 0)
(6 0 0)
)
;
    }
    outlet
    {
        type            calculated;
        value           nonuniform 0();
    }
    bottom
    {
        type            calculated;
        value           uniform (0 0 0);
    }
    top
    {
        type            symmetryPlane;
    }
    side1
    {
        type            symmetryPlane;
    }
    side2
    {
        type            symmetryPlane;
    }
    procBoundary8to0
    {
        type            processor;
        value           nonuniform List<vector> 
50
(
(-1.40837e+08 3.75743e+09 3.89324e+07)
(-1.05071e+09 1.86853e+09 1.21958e+09)
(-6.68934e+08 2.65343e+09 -1.2989e+08)
(-1.42495e+09 3.29085e+09 -1.56449e+08)
(-1.59992e+09 3.66252e+09 1.02869e+08)
(-1.64382e+09 3.47718e+09 -2.39228e+08)
(-2.33603e+09 2.49799e+09 4.01574e+08)
(-2.26915e+09 2.5475e+09 6.79183e+08)
(-1.55834e+09 -1.78028e+09 -2.11486e+07)
(-2.00354e+09 8.50211e+08 9.18606e+08)
(-1.10673e+09 1.97135e+08 4.3901e+09)
(1.11397e+08 2.8163e+09 3.90961e+07)
(-1.55162e+09 6.48989e+08 3.61982e+09)
(-6.1542e+08 2.73681e+09 9.14299e+07)
(-1.82409e+09 3.11782e+09 3.35502e+08)
(-2.85574e+09 4.07782e+09 6.16422e+08)
(-4.04425e+09 4.25511e+09 -9.063e+06)
(-3.41932e+09 3.35713e+09 -4.79368e+07)
(-3.01523e+09 3.52616e+09 6.05154e+08)
(-2.67407e+09 -1.08628e+09 6.32539e+08)
(4.45876e+08 2.63108e+09 -6.4449e+07)
(-1.00118e+09 7.41145e+08 4.13573e+09)
(3.4176e+08 2.85983e+09 3.25748e+08)
(4.0844e+07 3.78378e+09 2.75313e+08)
(-1.46011e+09 3.46434e+09 6.42372e+08)
(-1.63771e+09 3.46832e+09 4.95869e+08)
(-2.33633e+09 3.25828e+09 6.7864e+08)
(-2.74835e+09 2.99513e+09 6.13015e+08)
(-4.75469e+09 4.61302e+09 2.9324e+08)
(-3.80596e+09 2.73304e+09 7.93804e+08)
(-3.61324e+08 3.05732e+09 1.18815e+09)
(-5.86195e+07 2.96294e+09 4.15576e+08)
(1.00539e+08 3.13184e+09 2.29313e+08)
(-8.9633e+08 2.89613e+09 5.4172e+08)
(-8.049e+08 3.34423e+09 5.10535e+08)
(-1.83943e+09 3.37668e+09 6.8292e+08)
(-1.80895e+09 4.2414e+09 3.72822e+08)
(-2.93245e+09 3.72322e+09 -6.32771e+08)
(-2.94117e+09 3.3967e+09 1.58126e+09)
(-2.6002e+09 3.35283e+09 -2.76955e+08)
(-1.17658e+08 3.41288e+09 2.00544e+08)
(-5.02019e+07 3.266e+09 1.34239e+08)
(-5.78537e+08 3.57323e+09 3.43414e+08)
(-5.01749e+08 3.17131e+09 2.53259e+08)
(-1.18649e+09 2.70318e+09 6.44885e+08)
(-1.12104e+09 3.87206e+09 3.23433e+08)
(-1.91013e+09 4.42309e+09 4.65938e+08)
(-2.18688e+09 4.67838e+09 4.14029e+07)
(-2.62891e+09 4.15997e+09 -2.50071e+08)
(-3.35263e+09 3.68465e+09 5.54921e+07)
)
;
    }
    procBoundary8to9
    {
        type            processor;
        value           nonuniform List<vector> 
20
(
(-2.02085e+09 3.02058e+09 2.76305e+08)
(-7.76053e+08 2.02758e+09 7.37261e+06)
(-1.0674e+09 4.41262e+09 -5.03806e+08)
(-1.17286e+08 3.41153e+09 3.42761e+08)
(-1.87785e+09 2.006e+09 3.19693e+08)
(-8.21014e+08 5.086e+09 6.35794e+08)
(2.8273e+08 3.4086e+09 -7.23701e+07)
(1.49819e+08 5.78227e+09 -2.34185e+08)
(-2.78152e+09 3.43631e+09 5.31157e+08)
(-1.31469e+09 4.0939e+09 4.5381e+08)
(-1.34634e+09 4.98236e+09 8.6923e+08)
(-5.34958e+08 4.19078e+09 4.83323e+08)
(-2.04713e+09 4.70644e+09 -2.99609e+08)
(-1.60262e+09 4.54384e+09 6.12795e+08)
(-9.98736e+08 5.78494e+09 4.5478e+08)
(-4.18099e+08 5.9011e+09 8.46909e+08)
(-2.23379e+09 4.67642e+09 1.96421e+08)
(-5.65788e+08 5.93498e+09 -4.1837e+07)
(1.22488e+08 5.41499e+09 3.42293e+08)
(1.16909e+09 6.55676e+09 2.47031e+08)
)
;
    }
    procBoundary8to16
    {
        type            processor;
        value           nonuniform List<vector> 
50
(
(6.25588e+08 4.38106e+09 6.8303e+08)
(-5.78687e+07 4.25012e+09 2.89032e+07)
(6.21264e+08 3.13713e+09 4.42268e+08)
(-4.04615e+07 2.06725e+09 -9.62743e+07)
(1.90274e+08 2.3714e+09 5.78959e+08)
(2.41638e+08 -2.91379e+09 8.29643e+07)
(-2.6773e+08 1.21655e+09 1.54452e+07)
(-4.51697e+08 -2.40221e+09 4.64415e+08)
(-4.69502e+08 1.4684e+09 4.42187e+08)
(-6.30771e+08 1.35585e+09 7.40688e+08)
(-2.65897e+08 5.39534e+09 5.83993e+08)
(3.52442e+08 4.17402e+09 6.28629e+08)
(-3.12093e+08 4.26831e+09 3.91899e+08)
(2.22619e+08 3.39172e+09 2.61626e+08)
(-6.38026e+08 3.03351e+09 3.41808e+08)
(3.64323e+08 3.12417e+09 1.48669e+09)
(9.99173e+08 -3.10371e+09 1.44856e+08)
(9.22476e+08 1.98867e+09 1.24779e+09)
(1.40122e+09 -1.10904e+09 1.68349e+08)
(7.17277e+08 4.68657e+09 4.83567e+08)
(1.11205e+08 5.2908e+09 1.04241e+09)
(8.94e+06 4.82262e+09 8.04232e+08)
(1.14602e+08 4.34348e+09 7.78197e+08)
(-2.59814e+08 4.56615e+09 5.57129e+08)
(2.0836e+08 4.08524e+09 5.46248e+08)
(-2.23436e+08 4.01921e+09 7.81554e+08)
(4.72858e+08 4.02521e+09 1.06914e+09)
(4.9087e+08 2.68565e+09 5.63595e+08)
(5.94045e+08 5.11765e+09 4.64462e+08)
(3.99553e+08 3.65723e+09 2.84182e+08)
(3.25485e+08 3.89657e+09 5.55692e+08)
(6.0738e+08 4.7023e+09 8.33927e+08)
(7.6495e+08 5.79077e+09 1.34314e+09)
(1.13009e+09 5.6723e+09 8.50328e+08)
(8.04433e+08 4.59909e+09 6.70479e+08)
(8.25469e+08 8.30343e+08 1.28827e+09)
(-1.17482e+08 5.35802e+09 8.59998e+08)
(3.80527e+07 6.35282e+09 2.3625e+09)
(-6.80078e+08 1.1531e+10 2.39349e+09)
(1.63315e+09 6.5244e+09 9.31982e+08)
(2.27221e+08 3.54695e+09 4.22716e+08)
(6.02747e+08 4.23832e+09 2.65724e+08)
(9.73914e+08 3.73212e+09 3.82462e+08)
(7.77546e+08 4.59502e+09 4.52558e+08)
(2.69695e+09 3.29313e+09 9.7635e+08)
(2.03145e+09 4.40136e+09 3.90729e+08)
(2.80078e+09 6.25656e+09 4.14238e+08)
(2.21343e+09 3.35592e+09 1.07805e+09)
(-1.16581e+09 7.48014e+09 7.81633e+08)
(-7.59926e+08 6.57276e+09 5.68031e+08)
)
;
    }
}


// ************************************************************************* //
