/*--------------------------------*- C++ -*----------------------------------*\
| =========                 |                                                 |
| \\      /  F ield         | OpenFOAM: The Open Source CFD Toolbox           |
|  \\    /   O peration     | Version:  2.4.0                                 |
|   \\  /    A nd           | Web:      www.OpenFOAM.org                      |
|    \\/     M anipulation  |                                                 |
\*---------------------------------------------------------------------------*/
FoamFile
{
    version     2.0;
    format      ascii;
    class       surfaceScalarField;
    location    "0.03";
    object      phia;
}
// * * * * * * * * * * * * * * * * * * * * * * * * * * * * * * * * * * * * * //

dimensions      [0 3 -1 0 0 0 0];

internalField   nonuniform List<scalar> 
490
(
-3.65118e-05
-3.01658e-06
-7.34101e-06
-3.57407e-05
-3.17082e-06
-6.78595e-06
-2.09294e-05
-3.26634e-06
-6.31686e-06
-6.4908e-06
-1.68439e-06
-3.28268e-06
-6.43156e-06
2.47997e-07
5.65909e-07
-6.43156e-06
2.57587e-07
6.08761e-07
-6.43157e-06
2.58211e-07
6.08781e-07
-6.43158e-06
2.58314e-07
6.08782e-07
-6.43158e-06
2.58313e-07
6.0878e-07
2.58312e-07
6.08776e-07
-3.38442e-05
-3.65144e-06
-4.68553e-06
-3.40866e-05
-3.76715e-06
-4.29437e-06
-3.4139e-05
-3.86056e-06
-4.04143e-06
-2.02876e-05
-3.90109e-06
-3.82861e-06
-6.48333e-06
-1.6192e-06
-3.87931e-07
-6.43161e-06
-1.11033e-06
5.97362e-07
-6.43178e-06
-8.48274e-07
5.98734e-07
-6.43175e-06
2.56098e-07
6.08762e-07
-6.43169e-06
2.58319e-07
6.08796e-07
2.58315e-07
6.08785e-07
-3.45175e-05
-4.19749e-06
-2.4591e-06
-3.51839e-05
-4.2667e-06
-2.5192e-06
-3.57471e-05
-4.32447e-06
-2.56926e-06
-2.91611e-05
-4.37312e-06
-2.61064e-06
-1.39811e-05
-3.47066e-06
-7.34491e-07
-5.71716e-06
-2.54515e-06
5.86177e-07
-6.10969e-06
-2.28355e-06
5.88823e-07
-6.43127e-06
-1.1618e-06
5.97579e-07
-6.43179e-06
2.27013e-07
6.08287e-07
2.5831e-07
6.08793e-07
-3.8244e-05
-2.75336e-06
-3.86692e-05
-2.79239e-06
-3.90176e-05
-2.82398e-06
-2.96874e-05
-2.84866e-06
-1.29017e-05
-4.90519e-07
-5.60023e-06
5.8588e-07
-5.60262e-06
5.86235e-07
-6.01078e-06
5.86384e-07
-6.42279e-06
5.97296e-07
6.04648e-07
-4.10077e-05
-2.60647e-06
-9.86013e-06
-4.03208e-05
-2.75916e-06
-9.59323e-06
-3.97493e-05
-2.89044e-06
-9.37783e-06
-2.31295e-05
-2.99726e-06
-9.17543e-06
-6.61559e-06
-1.37236e-06
-1.89984e-06
-6.43086e-06
-1.15171e-06
5.96628e-07
-6.43164e-06
-1.02282e-06
5.97766e-07
-6.43171e-06
2.5286e-07
6.08579e-07
-6.43165e-06
2.58317e-07
6.08793e-07
2.58314e-07
6.08781e-07
-3.62706e-05
-3.38138e-06
-8.39928e-06
-3.60589e-05
-3.52687e-06
-8.13978e-06
-3.60585e-05
-3.64608e-06
-7.96427e-06
-2.69997e-05
-3.74583e-06
-7.83144e-06
-1.1763e-05
-2.99625e-06
-1.08696e-06
-5.6531e-06
-2.5843e-06
5.85936e-07
-6.05808e-06
-2.45779e-06
5.87452e-07
-6.43031e-06
-1.1745e-06
5.97508e-07
-6.43178e-06
1.91572e-07
6.07255e-07
2.58301e-07
6.08791e-07
-3.36594e-05
-4.10661e-06
-5.62761e-06
-3.45018e-05
-4.19534e-06
-5.41268e-06
-3.51951e-05
-4.26765e-06
-5.2247e-06
-2.47274e-05
-4.3268e-06
-1.29163e-06
-9.77356e-06
-3.01527e-06
1.44999e-07
-5.59872e-06
-2.61256e-06
5.86105e-07
-5.59988e-06
-2.61245e-06
5.86235e-07
-5.99774e-06
-2.60444e-06
5.86311e-07
-6.41248e-06
-1.24329e-06
5.97016e-07
-2.70661e-07
6.01705e-07
-3.7708e-05
-2.75364e-06
-3.82499e-05
-2.79317e-06
-3.86779e-05
-2.81436e-06
-2.5438e-05
-1.15969e-06
-8.80498e-06
2.57172e-07
-5.5982e-06
5.86161e-07
-5.59751e-06
5.86235e-07
-5.59775e-06
5.86242e-07
-5.86122e-06
5.86255e-07
5.93377e-07
-4.72931e-05
-1.96846e-06
-1.12011e-05
-4.7294e-05
-1.96851e-06
-1.12013e-05
-4.72898e-05
-1.96855e-06
-1.12014e-05
-3.51239e-05
-1.96901e-06
-1.11989e-05
-1.42848e-05
-2.43952e-06
-4.22878e-06
-5.61166e-06
-2.60691e-06
5.84636e-07
-6.01588e-06
-2.58016e-06
5.86489e-07
-6.42366e-06
-1.20283e-06
5.97312e-07
-6.43174e-06
6.03326e-08
6.0445e-07
2.58264e-07
6.08786e-07
-4.72922e-05
-2.2409e-06
-1.12009e-05
-4.72926e-05
-2.3145e-06
-1.1201e-05
-4.72705e-05
-2.38082e-06
-1.1201e-05
-2.88805e-05
-2.30152e-06
-1.11888e-05
-8.05563e-06
-2.5745e-06
-7.55757e-07
-5.59799e-06
-2.61244e-06
5.85973e-07
-5.59825e-06
-2.61245e-06
5.86235e-07
-5.95797e-06
-2.61003e-06
5.86266e-07
-6.37432e-06
-1.3749e-06
5.95982e-07
-6.45682e-07
5.99706e-07
-4.34452e-05
-3.46732e-06
-1.0016e-05
-4.29558e-05
-3.56892e-06
-9.76735e-06
-2.54724e-05
-3.65215e-06
-9.53607e-06
-6.90511e-06
-2.64244e-06
6.83391e-08
-5.59768e-06
-2.61245e-06
5.86161e-07
-5.59747e-06
-2.61245e-06
5.86235e-07
-5.59751e-06
-2.61245e-06
5.86235e-07
-5.59766e-06
-2.61248e-06
5.86242e-07
-5.75219e-06
-2.61232e-06
5.86255e-07
-2.08103e-06
5.90436e-07
-3.82504e-05
-6.55762e-06
-3.85837e-05
-6.40602e-06
-2.24703e-05
-1.17826e-06
-5.93102e-06
5.52001e-07
-5.59752e-06
5.8623e-07
-5.59747e-06
5.86235e-07
-5.59749e-06
5.86235e-07
-5.59753e-06
5.86237e-07
-5.5976e-06
5.86242e-07
5.86248e-07
-4.72925e-05
-1.96843e-06
-1.11758e-05
-4.7293e-05
-1.96844e-06
-1.11736e-05
-4.7289e-05
-1.96845e-06
-1.11714e-05
-3.47909e-05
-1.96885e-06
-1.11666e-05
-1.39499e-05
-2.44814e-06
-4.22721e-06
-5.60007e-06
-2.6124e-06
5.83029e-07
-5.59771e-06
-2.61245e-06
5.84795e-07
-5.85379e-06
-2.61186e-06
5.84695e-07
-6.27062e-06
-1.73159e-06
5.9379e-07
-9.00309e-07
6.01627e-07
-4.7292e-05
-1.96843e-06
-1.11779e-05
-4.7292e-05
-1.96843e-06
-1.11757e-05
-4.72714e-05
-1.96928e-06
-1.11734e-05
-2.87136e-05
-2.27823e-06
-1.1159e-05
-7.88731e-06
-2.57708e-06
-7.5349e-07
-5.59788e-06
-2.61244e-06
5.84535e-07
-5.59751e-06
-2.61245e-06
5.84913e-07
-5.59761e-06
-2.61247e-06
5.84803e-07
-5.67821e-06
-2.61244e-06
5.84697e-07
-2.33552e-06
5.87354e-07
-4.72919e-05
-2.09727e-06
-1.11756e-05
-4.72371e-05
-2.13889e-06
-1.11733e-05
-2.72011e-05
-2.28993e-06
-1.11388e-05
-6.40878e-06
-2.59992e-06
1.09079e-07
-5.59757e-06
-2.61245e-06
5.84732e-07
-5.59747e-06
-2.61245e-06
5.84915e-07
-5.59749e-06
-2.61245e-06
5.85032e-07
-5.59754e-06
-2.61246e-06
5.84918e-07
-5.59762e-06
-2.61248e-06
5.84807e-07
-2.6125e-06
5.84697e-07
-4.61068e-05
-1.05899e-05
-2.59521e-05
-1.03123e-05
-5.8381e-06
4.57706e-07
-5.5975e-06
5.84782e-07
-5.59747e-06
5.84914e-07
-5.59747e-06
5.85032e-07
-5.59747e-06
5.8515e-07
-5.59748e-06
5.85031e-07
-5.59751e-06
5.84915e-07
5.84799e-07
-4.72928e-05
-1.96844e-06
-4.72934e-05
-1.96845e-06
-4.7289e-05
-1.96846e-06
-3.51652e-05
-1.96889e-06
-1.43251e-05
-2.43982e-06
-5.60086e-06
-2.61246e-06
-5.5977e-06
-2.61249e-06
-5.70895e-06
-2.61237e-06
-6.08153e-06
-2.21099e-06
-1.14754e-06
-4.7292e-05
-1.96843e-06
-4.7292e-05
-1.96843e-06
-4.72697e-05
-1.96935e-06
-2.88806e-05
-2.27729e-06
-8.05625e-06
-2.57455e-06
-5.59809e-06
-2.61249e-06
-5.59759e-06
-2.61247e-06
-5.59771e-06
-2.61252e-06
-5.62076e-06
-2.61254e-06
-2.53199e-06
-4.7292e-05
-2.01532e-06
-4.72326e-05
-2.03379e-06
-2.72616e-05
-2.28858e-06
-6.47389e-06
-2.59898e-06
-5.59771e-06
-2.6125e-06
-5.59753e-06
-2.61248e-06
-5.59754e-06
-2.61246e-06
-5.59761e-06
-2.61248e-06
-5.5977e-06
-2.61251e-06
-2.61253e-06
-4.67291e-05
-2.62739e-05
-5.83534e-06
-5.59759e-06
-5.59752e-06
-5.59749e-06
-5.59748e-06
-5.59751e-06
-5.59754e-06
)
;

boundaryField
{
    inlet
    {
        type            calculated;
        value           nonuniform 0();
    }
    outlet
    {
        type            calculated;
        value           nonuniform 0();
    }
    bottom
    {
        type            calculated;
        value           uniform 0;
    }
    top
    {
        type            symmetryPlane;
        value           uniform 0;
    }
    side1
    {
        type            symmetryPlane;
        value           nonuniform 0();
    }
    side2
    {
        type            symmetryPlane;
        value           nonuniform 0();
    }
    procBoundary18to10
    {
        type            processor;
        value           nonuniform List<scalar> 
50
(
2.51285e-06
2.6536e-06
2.65645e-06
-2.41087e-07
-2.48995e-07
-2.48277e-07
-2.47439e-07
-2.46449e-07
-2.4526e-07
-2.43808e-07
2.20432e-06
2.29614e-06
2.38395e-06
2.43727e-06
-2.13599e-07
-2.45447e-07
-2.47615e-07
-2.47282e-07
-2.46334e-07
-2.45214e-07
1.96854e-06
1.96859e-06
1.96862e-06
1.96876e-06
2.2534e-06
2.57146e-06
2.38884e-06
-2.1491e-07
-2.47202e-07
-2.46343e-07
1.96851e-06
1.96854e-06
1.96855e-06
1.96867e-06
2.26496e-06
2.61227e-06
2.61246e-06
2.60774e-06
4.48607e-07
-2.40957e-07
1.96853e-06
1.96856e-06
1.96857e-06
1.96869e-06
2.25443e-06
2.61234e-06
2.61258e-06
2.72449e-06
3.5959e-06
2.62357e-06
)
;
    }
    procBoundary18to17
    {
        type            processor;
        value           nonuniform List<scalar> 
20
(
3.75158e-05
3.38312e-05
3.36771e-05
3.77088e-05
4.20152e-05
3.69342e-05
3.25956e-05
3.70198e-05
4.72923e-05
4.72919e-05
4.40917e-05
3.77083e-05
4.72921e-05
4.7292e-05
4.72919e-05
4.65108e-05
4.72923e-05
4.7292e-05
4.7292e-05
4.70286e-05
)
;
    }
    procBoundary18to19
    {
        type            processor;
        value           nonuniform List<scalar> 
20
(
-6.43159e-06
-6.43164e-06
-6.43168e-06
-6.43171e-06
-6.4316e-06
-6.43166e-06
-6.4317e-06
-6.27801e-06
-6.43163e-06
-6.43168e-06
-6.16897e-06
-5.61769e-06
-6.43159e-06
-6.09479e-06
-5.6071e-06
-5.59774e-06
-6.31012e-06
-6.01322e-06
-5.60023e-06
-5.59779e-06
)
;
    }
    procBoundary18to26
    {
        type            processor;
        value           nonuniform List<scalar> 
50
(
-4.70136e-06
-4.72853e-06
-4.75085e-06
-4.76883e-06
-3.34863e-06
-2.61269e-06
-2.61244e-06
-2.59497e-06
-1.20703e-06
-2.19824e-08
-4.66625e-06
-4.70127e-06
-4.72929e-06
-4.75033e-06
-2.91391e-06
-2.61251e-06
-2.61245e-06
-2.61247e-06
-2.61193e-06
-1.70599e-06
-4.70116e-06
-4.72919e-06
-4.73253e-06
-2.64267e-06
-2.61245e-06
-2.61245e-06
-2.61245e-06
-2.61246e-06
-2.61247e-06
-2.61247e-06
-3.60301e-06
-3.51637e-06
-2.61214e-06
-2.61245e-06
-2.61245e-06
-2.61245e-06
-2.61245e-06
-2.61245e-06
-2.61246e-06
-2.61246e-06
-3.51961e-06
-3.20162e-06
-2.61006e-06
-2.61248e-06
-2.61247e-06
-2.61246e-06
-2.61245e-06
-2.61246e-06
-2.61246e-06
-2.61247e-06
)
;
    }
}


// ************************************************************************* //
