/*--------------------------------*- C++ -*----------------------------------*\
| =========                 |                                                 |
| \\      /  F ield         | OpenFOAM: The Open Source CFD Toolbox           |
|  \\    /   O peration     | Version:  2.4.0                                 |
|   \\  /    A nd           | Web:      www.OpenFOAM.org                      |
|    \\/     M anipulation  |                                                 |
\*---------------------------------------------------------------------------*/
FoamFile
{
    version     2.0;
    format      ascii;
    class       volVectorField;
    location    "0.02";
    object      gradp;
}
// * * * * * * * * * * * * * * * * * * * * * * * * * * * * * * * * * * * * * //

dimensions      [1 -2 -2 0 0 0 0];

internalField   nonuniform List<vector> 
200
(
(-5234.02 -13426.8 -9696.71)
(-7153.73 -21595.4 -9651.16)
(-7217.61 -21965.8 -7993.16)
(-5455.85 -18394.3 -7496.82)
(-8357.14 -16670.7 -5589.67)
(-10698.4 -14030.7 -4722.01)
(-14204.9 -11115.6 -4533.75)
(-17652.8 -7581.25 -2954.37)
(-17335.8 -4477.1 -1510.11)
(-16730.8 -609.782 -1245.77)
(10371.5 -26103.8 -9934.55)
(-18099.4 -7097.25 -4888.71)
(-5705.59 -10734.9 -3827.9)
(-4600.87 -9493.05 -2544.97)
(-2638.47 -8442.69 -2556.84)
(-5791.42 -7752.87 -3033.08)
(-11099.8 -6233.71 -1936.01)
(-12748.9 -3551.6 -1412.86)
(-12377.3 -737.052 -303.329)
(-13649.8 -83.0403 565.578)
(62837.9 -23418.9 8232.35)
(23584 -14897.4 -6716.66)
(-12009.2 -7924.22 -3035.67)
(-871.374 -4564.99 -4330.77)
(-4876.79 -3294.96 -4793.2)
(-6280.39 2725.5 -2794.91)
(-5802.32 -484.922 -1996.7)
(-6659.52 0.282833 -1845.81)
(-10398.7 339.917 -1891.47)
(-15090.7 110.683 -978.315)
(25454.1 -2244.26 -1156.88)
(12889.9 -13104 -443.358)
(14959.2 -6512.7 -4782.99)
(4657.65 3512.8 -7579.57)
(11942.5 2717.41 -5343.1)
(-171.337 -149.756 -9744.32)
(-16550.2 4680.64 -6484.65)
(-11099.2 -735.03 -4669.38)
(-12156.5 -1211.32 -3341.78)
(-14551 -608.582 -1552.9)
(-4390.25 3790.68 -30251.9)
(-1702.36 -3437.43 -28527.8)
(-323.738 -4268.57 -23684.6)
(2235.32 -3779.89 -20880)
(522.244 -3945.2 -16599.9)
(-7319.43 -6348.11 -13509.5)
(-8548.41 -4534.63 -10504.5)
(-7977.17 -3321.25 -7549.68)
(-11868.3 -395.499 -3874.76)
(-7912.04 -2637.03 -609.603)
(-8450.4 2582.71 -24806.5)
(1441.92 -2402.07 -18055.7)
(1794.4 -2802.95 -16216.3)
(-533.473 -4427.36 -12876.1)
(-4200.44 -7168.34 -10509.8)
(-3804.76 -4669.5 -8630.51)
(-5915.04 -2174.43 -6853.31)
(-7524.28 -1777.91 -4579.77)
(-6046.31 -1347.23 -2039.32)
(-14489 344.889 -421.243)
(14807.2 -9374.6 -3566.07)
(-12473.7 -7784.82 -14138.6)
(-4374.32 -9452.35 -10184.3)
(-6495.47 -12620.4 -9185.21)
(37.9555 -7752.97 -8270.49)
(2668.39 -8012.47 -7350.51)
(-2765.21 -7762.75 -6772.93)
(-6322.76 -5210.15 -5801.3)
(-7622.71 -4521.61 -3712.36)
(-5907.36 -3278.88 -1484.12)
(4315.89 -16628.7 -1713.84)
(1286.41 -9586.37 -3758.79)
(-7876.67 -12391.8 -7713.96)
(2865.29 -12405.3 -10155.4)
(5015.32 -14723.6 -8680.11)
(-3824.31 -10781.6 -11380.8)
(-310.39 -10788.7 -11020.1)
(-1042 -8403.32 -10283.4)
(-2183.78 -8646.81 -8363.14)
(1111.99 -2864.7 -3089.99)
(11254.9 27218.7 -54830.5)
(13861.8 15857 -37578.7)
(17255.1 7879.91 -38777.4)
(17215 4230.28 -33813.8)
(15228.7 3306.1 -28440.6)
(8806.86 2066.63 -20604)
(4866.4 2792.92 -15050.1)
(3562.48 1563.58 -10326.4)
(4872.44 3020.84 -6315.17)
(-2380.89 1942.16 -695.873)
(1697.3 16593.6 -25741.2)
(9389.44 15925.4 -24586.7)
(10869.1 10865.6 -21428.7)
(13659.8 9218.69 -20661.6)
(10947.5 4884.4 -19607.8)
(5909.4 2101.44 -16481)
(1862.61 -263.12 -13004.7)
(2655.93 -754.187 -9405.26)
(929.983 -477.208 -4965.35)
(-5775.99 -1482.27 -1856.45)
(-1807.93 13529.4 -16440.4)
(2405.77 7977.67 -14297.6)
(3841.68 5679.48 -13660.3)
(5252.7 -211.872 -14924.4)
(994.243 -367.42 -12338.1)
(-1488.17 -1675.02 -16042.7)
(-844.856 -7151.72 -17935.4)
(3134.3 -9125.58 -12999.3)
(3416.28 -9778.2 -8229.15)
(1538.06 -4159.31 -1175.72)
(-633.397 1212.37 -4191.43)
(-6310.45 -2525.17 -5825.42)
(-5510.03 -6281.24 -8212.07)
(1565.99 -6149.17 -8071.89)
(8021.18 -4252.35 -12050.4)
(-7659.2 -6715.25 -11898.2)
(-13038.5 -4938.2 -12857.3)
(-2597.03 -11330 -17530.6)
(10862.5 -9610.71 -10442.2)
(22099 -6324.66 -4004.21)
(31171.6 101717 -12788)
(49667.4 112169 -12637.4)
(11724 69997.8 -6727.18)
(35313.2 60126.9 -15342.3)
(42793.4 35289.1 -18662.4)
(35530.3 20582.3 -15863.7)
(24340 9578.81 -15721.7)
(19974.5 5250.59 -10374.3)
(18949.4 3343.78 -6527.56)
(14523.3 2433.95 -2680.27)
(36453.8 64006.8 -14945.2)
(15242.1 34847.7 -3972.98)
(14354.8 37384.4 -1864.42)
(5293.5 25795.7 -2026.29)
(9177.51 18595.6 -4441.5)
(17325.2 2628.63 -10862)
(16727.2 -6791.05 -10316.5)
(18201.5 -6054.58 -6822.03)
(18109.9 -4409.6 -4521.25)
(7340.78 -422.873 -1494.35)
(3695.88 25105.1 -7535.38)
(-3577.32 22233.2 -411.153)
(-6379.98 11694.2 1539.44)
(-2264.39 7523.14 2157.43)
(-3540.72 4338.8 46.0122)
(-15243.1 -680.052 -5055.07)
(6973.6 -7526.93 -7447.1)
(24737.4 -18210.8 -7951.14)
(30212.8 -13284.5 -3879.5)
(24188.2 -6715.29 -2203.22)
(-7981.76 8176.82 -708.777)
(-11579.6 6481.58 2314.75)
(-15065.4 1597.66 4289.78)
(-9417.37 4791.99 4711.5)
(-7228.86 2518.12 3926.41)
(-6406.3 15062.7 7776.06)
(-18334.2 12153.8 2634.33)
(6686.35 6737.04 -651.211)
(41100.8 -5011.28 -1101.61)
(47340.4 -5789.84 -498.245)
(54434.3 84184.6 21487.2)
(33256.6 58322.3 6064.66)
(8599.56 61608.1 16358.8)
(-20977.8 53931.5 5088.29)
(13560 81905.9 -1232.09)
(18217.4 61082.2 -4047.15)
(22432.7 40087.2 -6642.39)
(32983.6 21489.5 -4643.18)
(29493.2 7331.39 -2577.05)
(27084.2 2428.5 -1348.23)
(53923.9 24997.9 -4075.91)
(51247.9 35487.4 7446.72)
(17098.4 24092.2 7175.9)
(5413.14 37218.2 8304.12)
(-17326.7 34817.9 7213.29)
(-12890.7 19395.3 21.5559)
(14790.4 12976.2 -2229.16)
(21200.8 3122.8 -583.686)
(17978.6 3759.68 -1291.89)
(13473.9 -718.985 -624.729)
(69379 36307.7 -2893.36)
(31445.2 18038 6464.49)
(12061.2 15526.2 8051.17)
(473.74 10568.6 12227.3)
(-22085.8 13021.2 8906.84)
(-25466.1 28145.8 6432.02)
(-10112.3 13569.6 5712.12)
(14550.6 747.735 1092.69)
(21809.6 -4306.77 2528.76)
(21002.8 -2565.53 -1533.3)
(24207.8 19533.1 2925.71)
(9684.93 9774.46 4824.74)
(2159.57 5985.2 9570.88)
(403.198 4921.24 10207.5)
(17827.8 13039.6 12639.8)
(-11793.9 26291.9 18037.7)
(-40005.8 33366.1 10956.2)
(-14552 22661.3 11265.4)
(11352 4737.12 4319.2)
(27218.6 3575.55 1968.87)
)
;

boundaryField
{
    inlet
    {
        type            zeroGradient;
    }
    outlet
    {
        type            zeroGradient;
    }
    bottom
    {
        type            zeroGradient;
    }
    top
    {
        type            symmetryPlane;
    }
    side1
    {
        type            symmetryPlane;
    }
    side2
    {
        type            symmetryPlane;
    }
    procBoundary15to7
    {
        type            processor;
        value           nonuniform List<vector> 
50
(
(11248.5 -46202.7 -20695.5)
(-1021.35 -47757.4 -16237.4)
(-12107.8 -44566.7 -14888.7)
(-15191 -37259.5 -11679)
(-11365.7 -25836.5 -10510.3)
(-16901.7 -21231.5 -7834.68)
(-23998.6 -16691.9 -6049.12)
(-26025.9 -11689.3 -4075.37)
(-26320.3 -6574.57 -2854.33)
(-23823.5 -3045.08 1832.61)
(23847.4 10279.5 -50209.9)
(17560.4 -11502.6 -41463.4)
(2479.33 -22617.5 -34869.8)
(-1180.22 -22938.8 -27016.5)
(935.995 -19117.6 -22995.3)
(-2625.89 -15406.2 -18691.3)
(-11968.8 -15275.6 -15546.1)
(-15802.6 -11124.5 -10295.3)
(-7414.75 -7773.68 -6725.53)
(-20554 -809.306 -2016.21)
(49490.9 163026 -86945.1)
(48067 60804.7 -96840.4)
(34122.5 12953.8 -67845.2)
(22807.4 -11357.8 -60603.3)
(15274.8 -16579.2 -44129.2)
(6935.76 -15749.8 -33312.5)
(2868.7 -12187.8 -21825.6)
(2200.1 -3784.95 -14762.7)
(172.822 -1128.14 -7302.4)
(4150.01 -1375.33 -5025.8)
(-57963.5 312074 -50548.9)
(78680.2 361374 -30513.8)
(118438 164690 -35444.5)
(74710.9 59384.4 -33089.5)
(88266.7 16540.2 -53566.4)
(68745.7 -168.433 -47746.7)
(47390.7 -2698.61 -33625.4)
(30671.6 -3315.33 -19275.7)
(23743.2 4083.63 -7215.34)
(18896.2 4917.51 -1798.31)
(-6888.94 132004 6881.74)
(96400.8 235011 41100.6)
(25880.1 284600 12419.4)
(-35182.4 180986 12176.3)
(-31628.1 118875 -21922.2)
(70746.7 96581.5 -25290.9)
(93975.7 44879 -21296.9)
(86712.4 16925.8 -10733)
(56100.6 3322.59 -3784.14)
(32993.7 1686.62 -621.324)
)
;
    }
    procBoundary15to14
    {
        type            processor;
        value           nonuniform List<vector> 
20
(
(13694.2 -21156.9 -9914.84)
(45191.4 -41133.2 993.131)
(14772 -22438.7 8292.94)
(47650.1 9131.41 6162.33)
(-6270.63 12711.5 -33680.6)
(3822.39 -12000.8 -15345)
(42291.5 -14168 6063.22)
(12562.2 -6204.17 4393.56)
(-2375.61 39753.8 -48691.8)
(350.256 22456.8 -38619.2)
(6536.37 9143.01 -10825.3)
(1663.64 1400.49 -1982.4)
(-23826.4 64959.9 -26130.9)
(33341.8 48585.6 -20293.8)
(27539.2 44451 -22657.1)
(716.269 13015.9 -5448.11)
(4667.61 27915.9 -1204.9)
(29407.8 28015 1987.32)
(71128.7 32896.1 -14061.5)
(35387.5 41112.2 -5234.48)
)
;
    }
    procBoundary15to23
    {
        type            processor;
        value           nonuniform List<vector> 
50
(
(18367 5787.34 -757.941)
(15047.1 8540.77 -4518.12)
(21224.5 8000.82 -6710.12)
(17588.8 -7008.61 -14279.6)
(-12201.9 -10966.6 -15693.9)
(-2353.93 -9726.38 -9439.78)
(-6972.87 -9002.47 -11665.1)
(-18443.5 -6099.51 -6638.49)
(-10145.8 -4578.28 -6538.65)
(-11450.9 -1656.09 -2388.39)
(8042.76 -6663.12 -1405.68)
(-3999.86 -11982.2 -7526.81)
(-10012.2 -17343.9 -10039.6)
(-11159.1 -26664.2 -15223.9)
(3285.42 -19146.3 -12626.6)
(10538.2 -16378.6 -11453.9)
(1991.26 -8107.77 -12784.7)
(-2038.9 -10763 -12423.2)
(3454.52 -6555.37 -8961.97)
(17115.7 -4065.78 -5056.67)
(-9659.24 -6766.48 -936.981)
(-12581.5 -6869.35 -4255.12)
(-3406.33 -9974.13 -4916.91)
(9310.5 -6300.08 -4176.06)
(-137.902 -11778.8 -1562.02)
(-2859.89 -3781.44 109.967)
(-10074.4 -3672.86 -3596.37)
(-6210.7 802.119 -3536.59)
(13427 -1106.4 -5956.94)
(33408.8 -1433.41 -3003.93)
(-9372.72 1192.26 3915.1)
(-16735.6 253.019 7276.11)
(-9759.17 4934.76 9205.96)
(-423.472 7836.37 9076.44)
(17000.7 17642.7 10853.5)
(4028.27 20394.3 15574.4)
(-9677.73 21792.2 16493.1)
(-9592.73 27797 13293.4)
(5159.03 12455.7 5087.89)
(45790.5 11044.1 3984.41)
(6703.54 2983.96 4204.34)
(4349.3 2348.13 8522.54)
(2354.72 1894.17 10793.4)
(14582.5 8436.24 12308.1)
(20655.6 11850.9 15482.8)
(15186.9 3641.99 13450.3)
(-17373.6 16087.7 18969.8)
(-42707.3 12975.2 11045.3)
(-16361.8 13380.1 8621.51)
(4377.44 3224.7 4320.07)
)
;
    }
}


// ************************************************************************* //
