/*--------------------------------*- C++ -*----------------------------------*\
| =========                 |                                                 |
| \\      /  F ield         | OpenFOAM: The Open Source CFD Toolbox           |
|  \\    /   O peration     | Version:  2.4.0                                 |
|   \\  /    A nd           | Web:      www.OpenFOAM.org                      |
|    \\/     M anipulation  |                                                 |
\*---------------------------------------------------------------------------*/
FoamFile
{
    version     2.0;
    format      ascii;
    class       surfaceScalarField;
    location    "0.01";
    object      phia;
}
// * * * * * * * * * * * * * * * * * * * * * * * * * * * * * * * * * * * * * //

dimensions      [0 3 -1 0 0 0 0];

internalField   nonuniform List<scalar> 
490
(
1.32862e-06
4.38042e-08
1.35772e-08
1.21994e-06
3.1048e-08
5.01268e-09
1.1038e-06
5.94552e-09
1.82832e-08
1.05661e-06
-4.11864e-09
3.09195e-08
1.07701e-06
4.14694e-08
1.9388e-08
1.08374e-06
2.61234e-08
2.92187e-08
1.0692e-06
6.59865e-08
-2.03393e-08
1.15961e-06
8.4759e-08
1.13562e-08
1.57131e-06
7.80342e-08
-7.1175e-08
3.56956e-08
6.12326e-08
1.3285e-06
4.37824e-08
1.35164e-08
1.22001e-06
3.10338e-08
5.07497e-09
1.10408e-06
6.06131e-09
1.82563e-08
1.05679e-06
-3.94795e-09
3.08415e-08
1.07691e-06
4.11633e-08
1.94938e-08
1.08366e-06
2.62922e-08
2.9043e-08
1.06965e-06
6.58248e-08
-1.99888e-08
1.16077e-06
8.46272e-08
1.08657e-08
1.5707e-06
7.79183e-08
-7.03397e-08
3.5866e-08
6.06119e-08
1.32838e-06
4.37599e-08
1.34572e-08
1.22009e-06
3.102e-08
5.13629e-09
1.10437e-06
6.17645e-09
1.8229e-08
1.05696e-06
-3.7802e-09
3.07644e-08
1.07682e-06
4.08632e-08
1.95963e-08
1.08359e-06
2.64566e-08
2.88716e-08
1.0701e-06
6.56635e-08
-1.96448e-08
1.16189e-06
8.44943e-08
1.03904e-08
1.57008e-06
7.78044e-08
-6.95227e-08
3.60343e-08
5.99928e-08
1.32827e-06
1.33994e-08
1.22017e-06
5.19674e-09
1.10465e-06
1.82015e-08
1.05714e-06
3.06882e-08
1.07672e-06
1.96958e-08
1.08352e-06
2.87042e-08
1.07054e-06
-1.9307e-08
1.16297e-06
9.92945e-09
1.56946e-06
-6.87229e-08
5.93753e-08
1.32847e-06
4.3768e-08
1.35105e-08
1.21998e-06
3.10193e-08
5.07752e-09
1.10406e-06
6.05535e-09
1.82612e-08
1.05679e-06
-3.93693e-09
3.08388e-08
1.07691e-06
4.11453e-08
1.94974e-08
1.08366e-06
2.62916e-08
2.90316e-08
1.06968e-06
6.58073e-08
-1.99828e-08
1.16088e-06
8.45978e-08
1.0842e-08
1.5708e-06
7.78809e-08
-7.03009e-08
3.58517e-08
6.06101e-08
1.32836e-06
4.37474e-08
1.34514e-08
1.22006e-06
3.10068e-08
5.13882e-09
1.10435e-06
6.1707e-09
1.82338e-08
1.05697e-06
-3.76949e-09
3.07618e-08
1.07682e-06
4.08471e-08
1.95998e-08
1.08359e-06
2.64569e-08
2.88603e-08
1.07013e-06
6.56487e-08
-1.9639e-08
1.162e-06
8.44684e-08
1.03673e-08
1.57018e-06
7.77704e-08
-6.94848e-08
3.60214e-08
5.99925e-08
1.32825e-06
4.37261e-08
1.33937e-08
1.22014e-06
3.09944e-08
5.1992e-09
1.10463e-06
6.28536e-09
1.82062e-08
1.05715e-06
-3.60477e-09
3.06857e-08
1.07672e-06
4.05545e-08
1.96991e-08
1.08351e-06
2.66179e-08
2.86931e-08
1.07056e-06
6.54901e-08
-1.93014e-08
1.16308e-06
8.43376e-08
9.90687e-09
1.56955e-06
7.76613e-08
-6.8686e-08
3.61888e-08
5.93762e-08
1.32814e-06
1.33373e-08
1.22023e-06
5.25876e-09
1.10493e-06
1.81784e-08
1.05733e-06
3.06103e-08
1.07663e-06
1.97955e-08
1.08344e-06
2.85296e-08
1.071e-06
-1.89699e-08
1.16413e-06
9.46004e-09
1.56891e-06
-6.79034e-08
5.87614e-08
1.32833e-06
4.37318e-08
1.34446e-08
1.22002e-06
3.09909e-08
5.14189e-09
1.10432e-06
6.16423e-09
1.82394e-08
1.05697e-06
-3.7564e-09
3.07586e-08
1.07682e-06
4.0827e-08
1.9604e-08
1.08358e-06
2.64575e-08
2.88468e-08
1.07016e-06
6.563e-08
-1.96316e-08
1.16213e-06
8.44366e-08
1.03393e-08
1.57029e-06
7.77292e-08
-6.94387e-08
3.60063e-08
5.99891e-08
1.32822e-06
4.37125e-08
1.33871e-08
1.22011e-06
3.098e-08
5.2022e-09
1.10461e-06
6.27918e-09
1.82116e-08
1.05715e-06
-3.59216e-09
3.06826e-08
1.07672e-06
4.05365e-08
1.97032e-08
1.08351e-06
2.66194e-08
2.86799e-08
1.07059e-06
6.54744e-08
-1.92943e-08
1.16321e-06
8.43097e-08
9.87978e-09
1.56965e-06
7.76239e-08
-6.86415e-08
3.61753e-08
5.93745e-08
1.32812e-06
4.36922e-08
1.33309e-08
1.2202e-06
3.09691e-08
5.26165e-09
1.1049e-06
6.3934e-09
1.81837e-08
1.05733e-06
-3.4304e-09
3.06073e-08
1.07663e-06
4.0251e-08
1.97994e-08
1.08344e-06
2.67771e-08
2.85168e-08
1.07102e-06
6.53187e-08
-1.8963e-08
1.16426e-06
8.41809e-08
9.43387e-09
1.56901e-06
7.75196e-08
-6.78604e-08
3.63419e-08
5.87612e-08
1.32802e-06
1.3276e-08
1.2203e-06
5.32033e-09
1.1052e-06
1.81555e-08
1.05751e-06
3.05328e-08
1.07654e-06
1.98927e-08
1.08337e-06
2.83571e-08
1.07145e-06
-1.86375e-08
1.16527e-06
9.00082e-09
1.56836e-06
-6.70947e-08
5.81491e-08
1.32819e-06
4.36957e-08
1.33597e-08
1.22006e-06
3.09627e-08
5.1979e-09
1.10459e-06
6.27202e-09
1.81907e-08
1.05716e-06
-3.57727e-09
3.06332e-08
1.07673e-06
4.05147e-08
1.96783e-08
1.08351e-06
2.66209e-08
2.8622e-08
1.07063e-06
6.5455e-08
-1.92576e-08
1.16337e-06
8.42758e-08
9.83402e-09
1.56978e-06
7.75791e-08
-6.84879e-08
3.6159e-08
5.92825e-08
1.32808e-06
4.36777e-08
1.33027e-08
1.22016e-06
3.09534e-08
5.25669e-09
1.10488e-06
6.3866e-09
1.81611e-08
1.05734e-06
-3.41618e-09
3.05558e-08
1.07663e-06
4.02317e-08
1.97725e-08
1.08344e-06
2.67795e-08
2.84573e-08
1.07106e-06
6.53023e-08
-1.89256e-08
1.16441e-06
8.41513e-08
9.38932e-09
1.56913e-06
7.74792e-08
-6.77047e-08
3.63274e-08
5.86672e-08
1.32799e-06
4.36584e-08
1.3247e-08
1.22026e-06
3.09439e-08
5.31469e-09
1.10518e-06
6.50038e-09
1.81313e-08
1.05752e-06
-3.25734e-09
3.0479e-08
1.07654e-06
3.99533e-08
1.98639e-08
1.08337e-06
2.6934e-08
2.82961e-08
1.07148e-06
6.51493e-08
-1.85994e-08
1.16542e-06
8.40246e-08
8.95746e-09
1.56847e-06
7.73796e-08
-6.69368e-08
3.64932e-08
5.80531e-08
1.3279e-06
1.31924e-08
1.22036e-06
5.37195e-09
1.10548e-06
1.81014e-08
1.0577e-06
3.0403e-08
1.07646e-06
1.99526e-08
1.0833e-06
2.81381e-08
1.0719e-06
-1.82788e-08
1.1664e-06
8.53784e-09
1.56781e-06
-6.61834e-08
5.744e-08
1.32805e-06
4.36596e-08
1.22011e-06
3.09346e-08
1.10485e-06
6.37887e-09
1.05734e-06
-3.39928e-09
1.07664e-06
4.0208e-08
1.08343e-06
2.6782e-08
1.0711e-06
6.52819e-08
1.16459e-06
8.4115e-08
1.56927e-06
7.74306e-08
3.63102e-08
1.32795e-06
4.36429e-08
1.22021e-06
3.0927e-08
1.10515e-06
6.4931e-09
1.05753e-06
-3.24128e-09
1.07655e-06
3.99322e-08
1.08336e-06
2.69373e-08
1.07152e-06
6.51322e-08
1.16559e-06
8.39929e-08
1.56861e-06
7.73358e-08
3.6478e-08
1.32787e-06
4.36247e-08
1.22032e-06
3.09189e-08
1.10545e-06
6.60647e-09
1.05771e-06
-3.08531e-09
1.07646e-06
3.96606e-08
1.08329e-06
2.70887e-08
1.07194e-06
6.49818e-08
1.16656e-06
8.38683e-08
1.56794e-06
7.72408e-08
3.66431e-08
1.32779e-06
1.22043e-06
1.10576e-06
1.05789e-06
1.07637e-06
1.08323e-06
1.07234e-06
1.16751e-06
1.56727e-06
)
;

boundaryField
{
    inlet
    {
        type            calculated;
        value           nonuniform 0();
    }
    outlet
    {
        type            calculated;
        value           nonuniform 0();
    }
    bottom
    {
        type            calculated;
        value           uniform 0;
    }
    top
    {
        type            symmetryPlane;
        value           uniform 0;
    }
    side1
    {
        type            symmetryPlane;
        value           nonuniform 0();
    }
    side2
    {
        type            symmetryPlane;
        value           nonuniform 0();
    }
    procBoundary18to10
    {
        type            processor;
        value           nonuniform List<scalar> 
50
(
-4.38257e-08
-3.10602e-08
-5.82748e-09
4.28772e-09
-4.17788e-08
-2.59539e-08
-6.61497e-08
-8.48883e-08
-7.81467e-08
-3.55213e-08
-4.37879e-08
-3.1029e-08
-5.93715e-09
4.10103e-09
-4.14455e-08
-2.61269e-08
-6.59676e-08
-8.47239e-08
-7.79856e-08
-3.56776e-08
-4.375e-08
-3.0998e-08
-6.04582e-09
3.9155e-09
-4.11183e-08
-2.62975e-08
-6.57876e-08
-8.45596e-08
-7.7826e-08
-3.58322e-08
-4.37123e-08
-3.09671e-08
-6.15337e-09
3.73133e-09
-4.07974e-08
-2.64657e-08
-6.56099e-08
-8.43955e-08
-7.76682e-08
-3.5985e-08
-4.36744e-08
-3.09364e-08
-6.25994e-09
3.5483e-09
-4.04822e-08
-2.66316e-08
-6.54343e-08
-8.42316e-08
-7.75118e-08
-3.6136e-08
)
;
    }
    procBoundary18to17
    {
        type            processor;
        value           nonuniform List<scalar> 
20
(
-1.41059e-06
-1.41089e-06
-1.41119e-06
-1.41149e-06
-1.41086e-06
-1.41116e-06
-1.41147e-06
-1.41177e-06
-1.41113e-06
-1.41143e-06
-1.41173e-06
-1.41203e-06
-1.4114e-06
-1.4117e-06
-1.412e-06
-1.4123e-06
-1.41166e-06
-1.41196e-06
-1.41226e-06
-1.41256e-06
)
;
    }
    procBoundary18to19
    {
        type            processor;
        value           nonuniform List<scalar> 
20
(
1.91761e-06
1.91932e-06
1.92096e-06
1.92255e-06
1.91953e-06
1.92117e-06
1.92275e-06
1.92427e-06
1.92142e-06
1.92299e-06
1.9245e-06
1.92597e-06
1.92327e-06
1.92477e-06
1.92623e-06
1.92764e-06
1.9251e-06
1.92654e-06
1.92793e-06
1.92929e-06
)
;
    }
    procBoundary18to26
    {
        type            processor;
        value           nonuniform List<scalar> 
50
(
4.37367e-08
3.10203e-08
6.30087e-09
-3.64632e-09
4.05857e-08
2.65907e-08
6.54932e-08
8.43673e-08
7.77281e-08
3.62081e-08
4.37043e-08
3.09977e-08
6.41057e-09
-3.47733e-09
4.02853e-08
2.67458e-08
6.53211e-08
8.42131e-08
7.75936e-08
3.63627e-08
4.3672e-08
3.09754e-08
6.51941e-09
-3.30936e-09
3.99899e-08
2.68988e-08
6.51506e-08
8.40589e-08
7.74603e-08
3.6516e-08
4.36397e-08
3.09532e-08
6.62723e-09
-3.14266e-09
3.96998e-08
2.70495e-08
6.49823e-08
8.3905e-08
7.73286e-08
3.66677e-08
4.36075e-08
3.09313e-08
6.73417e-09
-2.97695e-09
3.94146e-08
2.71981e-08
6.48157e-08
8.37511e-08
7.71982e-08
3.6818e-08
)
;
    }
}


// ************************************************************************* //
