/*--------------------------------*- C++ -*----------------------------------*\
| =========                 |                                                 |
| \\      /  F ield         | OpenFOAM: The Open Source CFD Toolbox           |
|  \\    /   O peration     | Version:  2.4.0                                 |
|   \\  /    A nd           | Web:      www.OpenFOAM.org                      |
|    \\/     M anipulation  |                                                 |
\*---------------------------------------------------------------------------*/
FoamFile
{
    version     2.0;
    format      ascii;
    class       volVectorField;
    location    "0.01";
    object      Ub;
}
// * * * * * * * * * * * * * * * * * * * * * * * * * * * * * * * * * * * * * //

dimensions      [0 1 -1 0 0 0 0];

internalField   nonuniform List<vector> 
200
(
(6.22096 -0.495269 0.185374)
(5.70604 -0.128279 0.818258)
(5.82093 -0.234857 -0.0422755)
(3.07093 -0.164829 -1.12687)
(2.03283 1.36236 -3.75758)
(2.20606 0.281987 -1.14882)
(3.13858 1.86498 -9.12818)
(3.57586 -0.11645 -0.524918)
(6.73378 0.80561 -9.522)
(7.08176 1.17069 -0.443833)
(5.49657 -0.155957 0.50977)
(5.64927 -0.483761 -0.385688)
(3.55182 -0.727321 -0.313666)
(1.66205 1.45588 -3.13807)
(2.13692 1.5397 -0.635218)
(1.77495 3.17952 -5.96044)
(4.18225 2.06519 0.33586)
(6.0602 2.35467 -2.06964)
(5.11544 0.923949 0.196945)
(7.74906 11.1886 2.99108)
(5.43317 -0.407335 0.306053)
(4.47799 -0.692235 1.31863)
(3.44689 -0.074275 -0.717568)
(3.49434 1.25014 0.582888)
(3.31119 1.91548 -1.53943)
(4.55808 1.06037 0.0965258)
(4.91615 1.05192 -0.714298)
(3.95405 0.259409 -1.49935)
(4.15327 2.55383 0.0479149)
(3.88334 2.13938 1.88795)
(4.49657 -0.228002 0.971734)
(5.71311 -1.01302 -0.0236886)
(4.43592 -0.229318 0.0724291)
(3.27077 -0.340027 0.844572)
(4.04708 0.365541 -4.09467)
(2.54634 -1.75562 3.70091)
(4.86827 7.57404 -20.4977)
(8.28909 0.996068 -4.75245)
(5.68956 -2.1067 -0.970483)
(2.48911 -3.41714 5.71548)
(7.17324 -3.53698 -3.19117)
(5.70162 3.17056 4.90589)
(3.49029 4.33778 7.56941)
(3.0152 10.6745 18.5141)
(4.48173 1.9127 2.40904)
(6.00302 -0.0256065 -5.24562)
(3.76274 0.940019 0.171602)
(8.48249 -0.0941632 -20.5543)
(5.5654 1.09075 -1.39557)
(8.55223 1.3577 -9.64063)
(6.19704 -1.24734 0.0971872)
(3.74683 2.0587 5.5406)
(4.21495 9.18862 16.3818)
(4.63194 2.53556 3.9679)
(4.84411 -0.683643 -4.13958)
(3.30995 1.43595 1.64458)
(6.01769 -3.14715 -17.5522)
(3.21921 2.47494 1.47675)
(7.45177 3.7978 -3.01295)
(6.30327 2.45366 1.17456)
(4.65341 -0.0653729 3.72703)
(5.64655 0.789169 8.92587)
(6.06517 3.28553 3.14489)
(4.96458 3.04393 1.36888)
(2.64623 3.92931 4.59296)
(1.59049 1.52426 -1.12266)
(1.50575 1.80298 2.84381)
(1.24542 2.7616 -0.769215)
(1.81965 1.69497 12.3065)
(6.53049 1.7288 5.58114)
(7.51656 -5.05722 -4.66865)
(6.82472 0.978989 -0.663375)
(5.47347 4.30495 4.68699)
(5.67488 3.83168 6.47322)
(5.32892 0.916719 1.68712)
(4.86174 -1.03442 -3.37618)
(4.7391 -0.681891 3.88459)
(3.56297 -1.14729 0.417579)
(2.74378 -4.86977 31.6805)
(5.48198 -0.622427 6.3417)
(4.5976 1.66799 2.80054)
(3.65793 2.37823 4.66858)
(3.57023 6.17111 9.15114)
(4.62304 -1.35427 1.77016)
(8.4073 0.678436 -2.46835)
(6.99704 1.16501 0.909702)
(12.0893 2.515 -10.5253)
(4.15524 2.45538 -2.17026)
(16.4772 2.73978 -52.6104)
(2.74156 0.905112 1.59947)
(5.04506 1.68993 3.51449)
(4.67792 5.1879 8.1029)
(6.15469 1.70474 4.13743)
(6.86582 0.498677 -0.0334555)
(3.05933 -1.1106 2.6316)
(7.06511 -6.76815 -12.5628)
(4.92075 0.516204 0.724354)
(9.5207 -1.88181 -23.4247)
(2.55827 7.47098 0.133576)
(5.28295 3.41584 3.31633)
(5.89715 0.791771 2.3874)
(7.82483 2.27199 3.38335)
(7.01059 4.08004 4.36758)
(5.18616 3.60761 11.2362)
(4.9844 2.10161 2.30766)
(2.53033 0.401219 13.9062)
(5.72794 -2.07298 -14.4427)
(3.44285 4.23535 -0.961768)
(4.22544 2.72852 -5.03235)
(5.92399 1.23944 2.0053)
(6.48409 -0.483584 -2.20049)
(5.89481 2.47435 4.24555)
(6.41224 4.31466 10.2303)
(7.53683 1.28027 2.92305)
(7.22782 -1.72595 6.55109)
(5.68286 -0.909755 10.4656)
(6.63491 0.00166234 -3.40385)
(3.63602 -1.86465 6.89061)
(7.93834 0.222679 -0.766527)
(8.73667 1.57255 1.76889)
(6.69363 -0.120572 3.73315)
(6.90711 1.61899 2.16986)
(5.93846 -8.03041 12.7667)
(7.86426 -2.31383 -1.75908)
(4.62193 -9.63277 -1.55393)
(8.341 -0.680314 -3.62308)
(9.75102 0.995407 -1.24607)
(11.8045 5.23712 -6.2719)
(4.45029 5.19965 2.99646)
(4.93872 1.92702 1.51808)
(7.87736 1.27229 1.60171)
(8.63669 -0.182764 7.12715)
(8.3924 0.284696 2.08228)
(4.83121 -5.00161 11.692)
(7.04127 -1.64649 -4.44395)
(2.87222 0.736715 -14.2884)
(6.64254 -5.05487 -5.92942)
(5.90274 -0.602211 3.16324)
(5.18963 1.70517 2.92472)
(8.76364 -1.03311 -2.21783)
(8.26557 0.271391 4.20548)
(7.42564 1.59215 3.47008)
(6.94216 0.711035 15.1987)
(7.02394 1.07568 1.89646)
(5.99222 -1.4209 22.4825)
(7.75657 -5.53714 -11.3346)
(7.98816 1.20387 2.09068)
(6.88537 -0.337231 4.08984)
(5.4505 -4.16949 13.6623)
(7.74555 -2.43207 8.73417)
(5.88214 -0.184808 1.3256)
(5.48376 1.75052 -0.123417)
(7.78374 1.11015 0.285775)
(8.44235 -1.5914 7.56212)
(7.96166 0.358107 9.35522)
(9.29165 1.57689 -4.1526)
(7.25465 -1.18576 3.06247)
(7.0017 -2.07606 9.89773)
(8.39925 -1.29279 7.10751)
(2.28725 -2.82048 16.5294)
(6.01127 0.38838 0.25417)
(6.87279 -6.07818 8.48416)
(7.61441 -5.84453 -0.750569)
(6.98102 -17.7001 7.55569)
(9.60034 0.239479 -3.16831)
(8.28314 2.35171 -6.89448)
(2.26202 1.09238 -0.709648)
(4.37691 0.395635 -0.460473)
(4.61496 0.537361 -0.860478)
(4.96338 0.441278 -1.65506)
(7.91454 -0.785448 4.1735)
(8.12049 -0.377448 1.13124)
(9.04374 -5.16643 11.3635)
(9.2334 -3.25537 -0.668703)
(7.69085 -6.44943 -4.09106)
(8.65823 3.2339 -0.224212)
(2.92067 4.40718 -29.7942)
(3.39094 -4.89188 -2.38923)
(5.54024 -1.6939 -1.07784)
(6.45353 -1.91026 1.7751)
(5.81269 0.104882 1.02064)
(6.70642 -0.372047 10.7525)
(7.69528 0.20504 0.343067)
(7.77634 -3.67621 9.54348)
(8.9864 -0.502404 -2.72928)
(6.95279 -0.82629 -1.42218)
(6.68651 -3.70123 2.72397)
(5.99672 -5.40348 4.92357)
(8.98567 -2.98122 -0.00324568)
(7.91819 -2.10983 -2.50221)
(5.20003 0.4005 1.48179)
(5.40444 1.02075 -1.5048)
(5.6809 -0.104365 5.87851)
(6.56924 1.05775 -0.129509)
(6.97228 1.68507 -0.123514)
(6.86579 0.903857 -2.1717)
(5.17866 0.149841 6.15942)
(8.16269 -0.765769 4.03226)
(5.67401 -2.92552 8.5007)
(13.3917 -5.76515 11.339)
)
;

boundaryField
{
    inlet
    {
        type            fixedValue;
        value           nonuniform 0();
    }
    outlet
    {
        type            zeroGradient;
    }
    bottom
    {
        type            fixedValue;
        value           uniform (0 0 0);
    }
    top
    {
        type            symmetryPlane;
    }
    side1
    {
        type            symmetryPlane;
    }
    side2
    {
        type            symmetryPlane;
    }
    procBoundary18to10
    {
        type            processor;
        value           nonuniform List<vector> 
50
(
(6.23567 0.329829 0.542567)
(6.11653 1.80131 0.640377)
(7.97662 1.01797 4.00636)
(4.494 0.93507 2.68212)
(3.25385 0.0421098 -1.17879)
(2.80735 0.71141 -2.40649)
(2.16382 -0.684971 -2.57077)
(4.31728 -1.30672 -0.18732)
(5.96115 0.473343 -6.64492)
(5.36293 -0.739362 0.480095)
(7.60496 -3.86781 -2.24795)
(7.22209 0.390184 0.499956)
(4.56035 4.96282 6.18338)
(3.82331 6.32995 8.49906)
(4.68878 8.3653 16.4936)
(5.77553 0.726056 -0.945884)
(4.48776 0.28349 -1.73917)
(6.85686 1.53995 -10.2025)
(5.68686 -4.92566 5.17974)
(8.20841 1.01265 -8.98488)
(6.74447 -4.66146 -6.11497)
(3.22451 4.82165 5.0645)
(4.38772 3.98364 4.89031)
(5.0886 3.49373 4.77412)
(9.32103 0.953538 -1.91065)
(7.68109 0.41231 0.0218327)
(11.3901 0.932509 -10.4045)
(5.05859 2.53527 -2.44049)
(9.50537 4.51571 -19.1847)
(5.76965 -1.11328 2.86751)
(5.69735 1.69011 0.886767)
(4.90043 -4.70891 7.16105)
(6.44645 -0.33861 -0.161013)
(7.45513 -8.02688 4.33504)
(7.91533 -0.694466 -4.0049)
(13.3515 0.941158 3.77518)
(8.47621 1.08788 1.30386)
(16.4304 -1.72951 -7.08387)
(3.68649 3.47154 -1.301)
(5.64602 1.47114 1.43509)
(4.8531 -2.75328 2.44335)
(6.65468 -2.11944 -0.291859)
(7.10266 -8.75948 3.99949)
(11.0239 -2.15769 -6.29123)
(13.2508 -0.143673 1.72237)
(7.87937 -7.57174 -26.6028)
(2.60683 1.00002 -1.98094)
(5.06009 2.40491 -0.398548)
(4.06322 1.23575 1.52934)
(4.68446 0.969639 0.423478)
)
;
    }
    procBoundary18to17
    {
        type            processor;
        value           nonuniform List<vector> 
20
(
(5.27994 0.0130732 0.483093)
(5.73344 -0.286634 0.198939)
(5.4628 -0.279564 0.580064)
(5.30461 -0.477066 0.25836)
(6.57968 -1.29295 -0.135532)
(7.12894 -2.03246 -1.02046)
(6.03163 -0.853752 0.155849)
(5.87296 -0.407849 0.428703)
(7.87275 -2.57945 -2.5562)
(6.18729 -1.65352 -1.22721)
(5.87572 -0.359349 1.44053)
(6.86518 -1.34928 -2.21952)
(6.97811 1.45967 -0.173481)
(8.23322 0.654709 1.43208)
(7.10137 -0.362857 0.59968)
(6.33611 -0.614241 -1.05718)
(6.04692 0.437274 0.520009)
(6.66048 0.124561 -0.604973)
(5.85748 -0.536 1.869)
(5.34324 0.190413 -0.477561)
)
;
    }
    procBoundary18to19
    {
        type            processor;
        value           nonuniform List<vector> 
20
(
(6.67989 0.665983 0.1116)
(4.66821 2.024 0.136938)
(4.8244 2.01615 1.33459)
(3.98653 1.46683 1.42983)
(7.1724 0.175356 -0.200937)
(5.60768 0.906375 1.12437)
(4.55184 1.68042 1.33273)
(4.72382 0.480667 0.909514)
(4.6366 -0.172307 -0.422658)
(6.42986 -1.63508 -2.30786)
(5.28012 1.18254 2.89505)
(5.08558 -3.37829 4.95006)
(7.18805 -2.34898 -4.09123)
(5.79131 2.90253 3.46757)
(9.79246 -1.19039 -2.8182)
(15.7519 -20.2884 41.8277)
(5.53808 -1.26387 0.183526)
(6.5852 -0.970486 -2.47554)
(16.8043 -6.98656 15.8395)
(7.01029 -4.07107 -0.480749)
)
;
    }
    procBoundary18to26
    {
        type            processor;
        value           nonuniform List<vector> 
50
(
(5.24278 -0.204534 0.313555)
(4.83384 -0.163284 0.221615)
(3.56565 0.403913 0.848756)
(2.79417 0.372157 -0.144613)
(3.35768 0.408685 -0.846383)
(-0.274674 2.19592 -13.8879)
(7.46708 -1.25836 1.23963)
(7.02684 -0.118205 -0.521214)
(6.85086 -0.0582667 0.0561866)
(5.03442 -2.30707 1.86426)
(6.05796 -0.433834 -1.2733)
(5.62781 1.27458 2.89354)
(6.19062 1.62602 4.68039)
(7.57235 1.53952 2.5749)
(7.12038 -0.0696723 0.352636)
(4.79249 0.325301 -1.76191)
(6.19425 -1.88829 -12.3519)
(5.69543 -2.30876 3.40766)
(8.7251 -0.59213 2.16442)
(6.62503 -0.957892 1.22664)
(5.48282 0.412715 1.39535)
(5.98506 1.28764 2.53944)
(6.75716 1.53262 0.129571)
(8.09438 0.914424 2.30034)
(7.17163 2.05768 1.19381)
(10.0584 -0.233848 -5.0329)
(6.77366 1.27343 -3.9411)
(10.9527 -1.32303 -22.3242)
(5.06251 -0.240106 0.656171)
(4.08929 -0.712792 4.66868)
(6.08507 -0.278078 -0.4629)
(6.89762 0.122528 0.106957)
(7.07417 0.00222095 1.19225)
(8.27238 1.4303 -1.14165)
(6.68693 1.79916 -3.02797)
(9.71764 5.84267 -12.2416)
(8.95901 -2.07563 -4.98331)
(4.35932 0.545636 6.30147)
(2.76045 -5.05113 24.1454)
(6.66568 -5.2835 10.093)
(5.82721 0.269257 -0.40529)
(5.80577 0.156336 0.665741)
(6.25048 0.445342 0.611563)
(7.23775 0.852396 -0.783629)
(6.63571 1.38074 -2.21303)
(5.69322 0.314314 1.3467)
(4.50992 0.00538549 4.57037)
(7.08852 -2.11547 6.74297)
(8.93156 1.08367 -2.30762)
(12.3542 0.266516 -7.62332)
)
;
    }
}


// ************************************************************************* //
