/*--------------------------------*- C++ -*----------------------------------*\
| =========                 |                                                 |
| \\      /  F ield         | OpenFOAM: The Open Source CFD Toolbox           |
|  \\    /   O peration     | Version:  2.4.0                                 |
|   \\  /    A nd           | Web:      www.OpenFOAM.org                      |
|    \\/     M anipulation  |                                                 |
\*---------------------------------------------------------------------------*/
FoamFile
{
    version     2.0;
    format      ascii;
    class       volVectorField;
    location    "0.07";
    object      A_Source;
}
// * * * * * * * * * * * * * * * * * * * * * * * * * * * * * * * * * * * * * //

dimensions      [1 -2 -2 0 0 0 0];

internalField   nonuniform List<vector> 
200
(
(60.4856 -333.904 65.8242)
(2.50457 -13.8205 2.72563)
(0.0577686 -0.318639 0.0628673)
(0.000972175 -0.00536006 0.00105798)
(1.33102e-05 -7.33543e-05 1.44849e-05)
(1.57101e-07 -8.65443e-07 1.70967e-07)
(1.65622e-09 -9.11999e-09 1.8024e-09)
(1.59676e-11 -8.78888e-11 1.7377e-11)
(1.43142e-13 -7.87549e-13 1.55776e-13)
(1.2078e-15 -6.64236e-15 1.31441e-15)
(0.128159 -0.707737 0.139471)
(0.00582478 -0.0321553 0.00633889)
(0.000146451 -0.000808194 0.000159377)
(2.66891e-06 -1.47232e-05 2.90447e-06)
(3.9341e-08 -2.16951e-07 4.28133e-08)
(4.97421e-10 -2.74214e-09 5.41324e-10)
(5.59281e-12 -3.08207e-11 6.08645e-12)
(5.72838e-14 -3.15567e-13 6.23397e-14)
(5.43676e-16 -2.99397e-15 5.91661e-16)
(4.84186e-18 -2.66543e-17 5.26921e-18)
(0.000248938 -0.00137507 0.00027091)
(1.23159e-05 -6.801e-05 1.3403e-05)
(3.35207e-07 -1.8505e-06 3.64793e-07)
(6.57606e-09 -3.6292e-08 7.15648e-09)
(1.03832e-10 -5.72858e-10 1.12997e-10)
(1.40012e-12 -7.72232e-12 1.52369e-12)
(1.67241e-14 -9.22136e-14 1.82002e-14)
(1.81352e-16 -9.99639e-16 1.97358e-16)
(1.81666e-18 -1.00107e-17 1.977e-18)
(1.70289e-20 -9.38096e-20 1.85319e-20)
(4.52168e-07 -2.49813e-06 4.92077e-07)
(2.41821e-08 -1.33566e-07 2.63165e-08)
(7.08264e-10 -3.91097e-09 7.70777e-10)
(1.48813e-11 -8.21516e-11 1.61947e-11)
(2.5057e-13 -1.3829e-12 2.72686e-13)
(3.58936e-15 -1.98045e-14 3.90616e-15)
(4.53903e-17 -2.50378e-16 4.93966e-17)
(5.19493e-19 -2.86482e-18 5.65344e-19)
(5.47736e-21 -3.01978e-20 5.9608e-21)
(5.39068e-23 -2.97121e-22 5.86647e-23)
(0.249843 -1.37865 0.271895)
(0.0113533 -0.0626225 0.0123554)
(0.000285406 -0.00157358 0.000310597)
(5.20031e-06 -2.86597e-05 5.65929e-06)
(7.66419e-08 -4.22207e-07 8.34065e-08)
(9.68883e-10 -5.33516e-09 1.0544e-09)
(1.08919e-11 -5.99511e-11 1.18532e-11)
(1.1154e-13 -6.13678e-13 1.21385e-13)
(1.05844e-15 -5.82092e-15 1.15186e-15)
(9.42456e-18 -5.1809e-17 1.02564e-17)
(0.000582177 -0.00321385 0.000633561)
(2.87976e-05 -0.000158919 3.13393e-05)
(7.83653e-07 -4.32308e-06 8.5282e-07)
(1.53709e-08 -8.47649e-08 1.67275e-08)
(2.42654e-10 -1.33768e-09 2.64071e-10)
(3.27145e-12 -1.80282e-11 3.5602e-12)
(3.90697e-14 -2.15229e-13 4.2518e-14)
(4.23585e-16 -2.33264e-15 4.60971e-16)
(4.24241e-18 -2.33544e-17 4.61686e-18)
(3.97602e-20 -2.18802e-19 4.32695e-20)
(1.23336e-06 -6.81072e-06 1.34222e-06)
(6.59491e-08 -3.64069e-07 7.17699e-08)
(1.93122e-09 -1.0658e-08 2.10167e-09)
(4.05691e-11 -2.23826e-10 4.41498e-11)
(6.82975e-13 -3.76693e-12 7.43255e-13)
(9.78162e-15 -5.39341e-14 1.0645e-14)
(1.23673e-16 -6.81707e-16 1.34589e-16)
(1.41518e-18 -7.79835e-18 1.54009e-18)
(1.49184e-20 -8.21831e-20 1.62351e-20)
(1.46796e-22 -8.0843e-22 1.59752e-22)
(2.42644e-09 -1.3402e-08 2.6406e-09)
(1.39421e-10 -7.69866e-10 1.51726e-10)
(4.371e-12 -2.41299e-11 4.75679e-12)
(9.79046e-14 -5.40337e-13 1.06546e-13)
(1.75079e-15 -9.6601e-15 1.90532e-15)
(2.65454e-17 -1.46428e-16 2.88884e-17)
(3.54226e-19 -1.95344e-18 3.85491e-19)
(4.26628e-21 -2.35209e-20 4.64283e-21)
(4.72186e-23 -2.60257e-22 5.13862e-23)
(4.86715e-25 -2.68195e-24 5.29674e-25)
(0.000568317 -0.00313467 0.000618477)
(2.81109e-05 -0.000154988 3.0592e-05)
(7.64941e-07 -4.2157e-06 8.32456e-07)
(1.50033e-08 -8.26506e-08 1.63275e-08)
(2.36843e-10 -1.30418e-09 2.57747e-10)
(3.19301e-12 -1.75749e-11 3.47483e-12)
(3.81316e-14 -2.09795e-13 4.14971e-14)
(4.134e-16 -2.27351e-15 4.49887e-16)
(4.14027e-18 -2.276e-17 4.5057e-18)
(3.88015e-20 -2.13211e-19 4.22261e-20)
(1.44452e-06 -7.97151e-06 1.57202e-06)
(7.72371e-08 -4.26082e-07 8.40541e-08)
(2.26167e-09 -1.24723e-08 2.46129e-09)
(4.7509e-11 -2.61903e-10 5.17022e-11)
(7.99771e-13 -4.40736e-12 8.70361e-13)
(1.14539e-14 -6.30977e-14 1.24648e-14)
(1.4481e-16 -7.97457e-16 1.57592e-16)
(1.65698e-18 -9.12161e-18 1.80322e-18)
(1.74666e-20 -9.61193e-20 1.90082e-20)
(1.71862e-22 -9.4543e-22 1.87031e-22)
(3.31502e-09 -1.83002e-08 3.60761e-09)
(1.9047e-10 -1.05116e-09 2.07281e-10)
(5.97119e-12 -3.29439e-11 6.49822e-12)
(1.3374e-13 -7.37642e-13 1.45545e-13)
(2.39151e-15 -1.31864e-14 2.60259e-15)
(3.62583e-17 -1.99862e-16 3.94585e-17)
(4.83812e-19 -2.66605e-18 5.26515e-19)
(5.82671e-21 -3.20985e-20 6.34099e-21)
(6.44861e-23 -3.55137e-22 7.01778e-23)
(6.64671e-25 -3.65936e-24 7.23336e-25)
(7.02291e-12 -3.87795e-11 7.64276e-12)
(4.31394e-13 -2.38149e-12 4.69469e-13)
(1.44147e-14 -7.95547e-14 1.56869e-14)
(3.42897e-16 -1.89195e-15 3.73161e-16)
(6.49067e-18 -3.58033e-17 7.06355e-18)
(1.03856e-19 -5.72729e-19 1.13022e-19)
(1.45855e-21 -8.04128e-21 1.58728e-21)
(1.84422e-23 -1.01649e-22 2.007e-23)
(2.13808e-25 -1.17814e-24 2.32679e-25)
(2.30375e-27 -1.2691e-26 2.50709e-27)
(9.4048e-07 -5.18523e-06 1.02349e-06)
(5.02864e-08 -2.77134e-07 5.47247e-08)
(1.47249e-09 -8.11169e-09 1.60246e-09)
(3.09314e-11 -1.70324e-10 3.36615e-11)
(5.20703e-13 -2.86604e-12 5.66661e-13)
(7.45722e-15 -4.10287e-14 8.11541e-15)
(9.4281e-17 -5.18503e-16 1.02602e-16)
(1.0788e-18 -5.93041e-18 1.17402e-18)
(1.13719e-20 -6.24876e-20 1.23756e-20)
(1.11893e-22 -6.14584e-22 1.21769e-22)
(2.58951e-09 -1.4285e-08 2.81807e-09)
(1.48785e-10 -8.20489e-10 1.61917e-10)
(4.66433e-12 -2.5713e-11 5.07601e-12)
(1.04469e-13 -5.75704e-13 1.1369e-13)
(1.86807e-15 -1.02909e-14 2.03295e-15)
(2.8322e-17 -1.55967e-16 3.08218e-17)
(3.77912e-19 -2.08039e-18 4.11267e-19)
(4.55128e-21 -2.50458e-20 4.95298e-21)
(5.037e-23 -2.77091e-22 5.48157e-23)
(5.19168e-25 -2.85499e-24 5.64991e-25)
(6.39949e-12 -3.5317e-11 6.96432e-12)
(3.93097e-13 -2.16876e-12 4.27793e-13)
(1.31349e-14 -7.24451e-14 1.42942e-14)
(3.12449e-16 -1.72279e-15 3.40027e-16)
(5.91425e-18 -3.26003e-17 6.43626e-18)
(9.46313e-20 -5.21466e-19 1.02984e-19)
(1.32898e-21 -7.32115e-21 1.44628e-21)
(1.68037e-23 -9.2541e-23 1.82868e-23)
(1.94809e-25 -1.07252e-24 2.12003e-25)
(2.09901e-27 -1.15527e-26 2.28427e-27)
(1.45252e-14 -8.01848e-14 1.58072e-14)
(9.49636e-16 -5.24103e-15 1.03345e-15)
(3.36883e-17 -1.85877e-16 3.66617e-17)
(8.4817e-19 -4.67859e-18 9.23031e-19)
(1.69425e-20 -9.34318e-20 1.84378e-20)
(2.85307e-22 -1.57296e-21 3.10489e-22)
(4.20659e-24 -2.31857e-23 4.57787e-24)
(5.57154e-26 -3.07009e-25 6.06329e-26)
(6.75224e-28 -3.7197e-27 7.3482e-28)
(7.5911e-30 -4.18072e-29 8.2611e-30)
(1.26618e-09 -6.97795e-09 1.37474e-09)
(7.27567e-11 -4.00801e-10 7.89824e-11)
(2.28111e-12 -1.25609e-11 2.47589e-12)
(5.10958e-14 -2.8124e-13 5.54498e-14)
(9.13761e-16 -5.02738e-15 9.91464e-16)
(1.3855e-17 -7.61959e-17 1.50307e-17)
(1.8489e-19 -1.01638e-18 2.00546e-19)
(2.22689e-21 -1.22365e-20 2.41506e-21)
(2.46478e-23 -1.3538e-22 2.67262e-23)
(2.54071e-25 -1.39492e-24 2.7545e-25)
(3.75458e-12 -2.07048e-11 4.07584e-12)
(2.30652e-13 -1.27151e-12 2.50348e-13)
(7.70767e-15 -4.2475e-14 8.36446e-15)
(1.83364e-16 -1.01012e-15 1.98956e-16)
(3.47114e-18 -1.91152e-17 3.76569e-18)
(5.5545e-20 -3.05773e-19 6.02485e-20)
(7.80131e-22 -4.29308e-21 8.46052e-22)
(9.86486e-24 -5.42675e-23 1.06967e-23)
(1.14375e-25 -6.28969e-25 1.23999e-25)
(1.23247e-27 -6.77517e-27 1.33595e-27)
(9.942e-15 -5.48505e-14 1.07909e-14)
(6.50053e-16 -3.58533e-15 7.05444e-16)
(2.30626e-17 -1.27162e-16 2.50237e-17)
(5.80694e-19 -3.20087e-18 6.2997e-19)
(1.16005e-20 -6.39245e-20 1.25828e-20)
(1.95366e-22 -1.07624e-21 2.11874e-22)
(2.88073e-24 -1.58647e-23 3.12363e-24)
(3.81577e-26 -2.10078e-25 4.13684e-26)
(4.62477e-28 -2.54541e-27 5.01309e-28)
(5.19975e-30 -2.86101e-29 5.63542e-30)
(2.40716e-17 -1.32849e-16 2.61226e-17)
(1.66862e-18 -9.20667e-18 1.81051e-18)
(6.26333e-20 -3.45491e-19 6.79481e-20)
(1.664e-21 -9.17635e-21 1.8049e-21)
(3.49824e-23 -1.92865e-22 3.79384e-23)
(6.18495e-25 -3.40899e-24 6.70647e-25)
(9.55292e-27 -5.26394e-26 1.03567e-26)
(1.32275e-28 -7.28681e-28 1.43381e-28)
(1.67275e-30 -9.21251e-30 1.81291e-30)
(1.95893e-32 -1.07858e-31 2.12272e-32)
)
;

boundaryField
{
    inlet
    {
        type            zeroGradient;
    }
    outlet
    {
        type            zeroGradient;
    }
    bottom
    {
        type            zeroGradient;
    }
    top
    {
        type            symmetryPlane;
    }
    side1
    {
        type            symmetryPlane;
    }
    side2
    {
        type            symmetryPlane;
    }
    procBoundary8to0
    {
        type            processor;
        value           nonuniform List<vector> 
50
(
(25377.1 -140017 27617)
(947.805 -5226.77 1031.46)
(19.8895 -109.625 21.645)
(0.306953 -1.69095 0.334045)
(0.00388032 -0.0213647 0.00422281)
(4.2537e-05 -0.000234082 4.62914e-05)
(4.18613e-07 -2.30242e-06 4.5556e-07)
(3.78411e-09 -2.08021e-08 4.11811e-09)
(3.1931e-11 -1.75439e-10 3.47493e-11)
(2.54489e-13 -1.3975e-12 2.7695e-13)
(94.3664 -520.388 102.695)
(3.90689 -21.5336 4.25172)
(0.0900994 -0.496341 0.0980518)
(0.00151603 -0.00834714 0.00164984)
(2.0753e-05 -0.000114204 2.25847e-05)
(2.44912e-07 -1.34705e-06 2.66528e-07)
(2.58157e-09 -1.41914e-08 2.80942e-09)
(2.48851e-11 -1.36727e-10 2.70815e-11)
(2.23049e-13 -1.22486e-12 2.42736e-13)
(1.88177e-15 -1.03282e-14 2.04786e-15)
(0.195167 -1.07569 0.212393)
(0.00886851 -0.0488547 0.00965126)
(0.000222936 -0.00122747 0.000242613)
(4.06198e-06 -2.23531e-05 4.4205e-06)
(5.98644e-08 -3.29261e-07 6.51481e-08)
(7.56774e-10 -4.16015e-09 8.23568e-10)
(8.5073e-12 -4.67418e-11 9.25817e-12)
(8.71189e-14 -4.78407e-13 9.48081e-14)
(8.26685e-16 -4.53729e-15 8.99649e-16)
(7.36095e-18 -4.03796e-17 8.01064e-18)
(0.000296091 -0.00163108 0.000322224)
(1.46456e-05 -8.0637e-05 1.59383e-05)
(3.98533e-07 -2.19313e-06 4.33708e-07)
(7.81681e-09 -4.29933e-08 8.50674e-09)
(1.23399e-10 -6.78348e-10 1.3429e-10)
(1.66363e-12 -9.14051e-12 1.81046e-12)
(1.98678e-14 -1.09102e-13 2.16213e-14)
(2.15399e-16 -1.18222e-15 2.3441e-16)
(2.1573e-18 -1.18342e-17 2.3477e-18)
(2.02182e-20 -1.10851e-19 2.20026e-20)
(3.67973e-07 -2.02598e-06 3.9959e-07)
(1.96766e-08 -1.0828e-07 2.13638e-08)
(5.7623e-10 -3.16931e-09 6.25538e-10)
(1.21056e-11 -6.65471e-11 1.31394e-11)
(2.0381e-13 -1.1198e-12 2.21178e-13)
(2.91918e-15 -1.60305e-14 3.16742e-15)
(3.69111e-17 -2.02588e-16 4.00433e-17)
(4.224e-19 -2.31713e-18 4.58169e-19)
(4.45314e-21 -2.44154e-20 4.82943e-21)
(4.38218e-23 -2.40137e-22 4.75169e-23)
)
;
    }
    procBoundary8to9
    {
        type            processor;
        value           nonuniform List<vector> 
20
(
(6.07278e-18 -3.34025e-17 6.60878e-18)
(3.0972e-20 -1.70524e-19 3.37056e-20)
(1.27481e-22 -7.02309e-22 1.38733e-22)
(4.49301e-25 -2.47639e-24 4.88957e-25)
(4.92563e-20 -2.70823e-19 5.36038e-20)
(2.65299e-22 -1.4602e-21 2.88715e-22)
(1.14692e-24 -6.31677e-24 1.24815e-24)
(4.23099e-27 -2.33139e-26 4.60443e-27)
(2.10508e-22 -1.15697e-21 2.29088e-22)
(1.19426e-24 -6.57105e-24 1.29966e-24)
(5.41097e-27 -2.9793e-26 5.88856e-27)
(2.08539e-29 -1.14882e-28 2.26945e-29)
(6.29315e-25 -3.45744e-24 6.84859e-25)
(3.75127e-27 -2.06336e-26 4.08236e-27)
(1.77761e-29 -9.78484e-29 1.9345e-29)
(7.14437e-32 -3.93478e-31 7.77494e-32)
(1.47962e-27 -8.12581e-27 1.60391e-27)
(9.24687e-30 -5.08455e-29 1.00218e-29)
(4.57447e-32 -2.51731e-31 4.95699e-32)
(1.91422e-34 -1.054e-33 2.07394e-34)
)
;
    }
    procBoundary8to16
    {
        type            processor;
        value           nonuniform List<vector> 
50
(
(7.44885e-10 -4.11621e-09 8.1063e-10)
(4.26389e-11 -2.35569e-10 4.64023e-11)
(1.33233e-12 -7.35908e-12 1.44992e-12)
(2.97551e-14 -1.64315e-13 3.23814e-14)
(5.3073e-16 -2.93015e-15 5.77573e-16)
(8.02859e-18 -4.43156e-17 8.73721e-18)
(1.06918e-19 -5.90022e-19 1.16355e-19)
(1.28538e-21 -7.09171e-21 1.39883e-21)
(1.42033e-23 -7.83449e-23 1.54569e-23)
(1.46188e-25 -8.06182e-25 1.59091e-25)
(4.28611e-12 -2.36795e-11 4.66441e-12)
(2.62394e-13 -1.44933e-12 2.85553e-13)
(8.74109e-15 -4.82703e-14 9.5126e-15)
(2.07372e-16 -1.1449e-15 2.25675e-16)
(3.91589e-18 -2.16146e-17 4.26151e-18)
(6.2522e-20 -3.45026e-19 6.80403e-20)
(8.76351e-22 -4.83502e-21 9.53699e-22)
(1.10613e-23 -6.10136e-23 1.20376e-23)
(1.28032e-25 -7.06062e-25 1.39333e-25)
(1.37751e-27 -7.59483e-27 1.49909e-27)
(1.32428e-14 -7.31459e-14 1.44117e-14)
(8.63228e-16 -4.76693e-15 9.39418e-16)
(3.05402e-17 -1.68612e-16 3.32357e-17)
(7.67042e-19 -4.23386e-18 8.34742e-19)
(1.52884e-20 -8.43686e-20 1.66378e-20)
(2.56945e-22 -1.41762e-21 2.79624e-22)
(3.78163e-24 -2.08593e-23 4.11541e-24)
(5.00052e-26 -2.75764e-25 5.44187e-26)
(6.05117e-28 -3.33628e-27 6.58525e-28)
(6.79355e-30 -3.74474e-29 7.39316e-30)
(2.9122e-17 -1.60817e-16 3.16924e-17)
(2.01328e-18 -1.11152e-17 2.19097e-18)
(7.5382e-20 -4.16087e-19 8.20353e-20)
(1.99815e-21 -1.10267e-20 2.17451e-21)
(4.19208e-23 -2.31286e-22 4.56208e-23)
(7.39771e-25 -4.08055e-24 8.05064e-25)
(1.14064e-26 -6.29028e-26 1.24131e-26)
(1.57688e-28 -8.69408e-28 1.71606e-28)
(1.99122e-30 -1.0976e-29 2.16697e-30)
(2.3287e-32 -1.28333e-31 2.53424e-32)
(5.11368e-20 -2.82322e-19 5.54851e-20)
(3.73649e-21 -2.06243e-20 4.05357e-21)
(1.47612e-22 -8.14592e-22 1.60113e-22)
(4.1183e-24 -2.27215e-23 4.46632e-24)
(9.0723e-26 -5.00424e-25 9.83734e-26)
(1.67733e-27 -9.25e-27 1.81848e-27)
(2.70406e-29 -1.49087e-28 2.93112e-29)
(3.90119e-31 -2.15041e-30 4.22807e-31)
(5.13205e-33 -2.82824e-32 5.56116e-33)
(6.24258e-35 -3.43947e-34 6.76343e-35)
)
;
    }
}


// ************************************************************************* //
