/*--------------------------------*- C++ -*----------------------------------*\
| =========                 |                                                 |
| \\      /  F ield         | OpenFOAM: The Open Source CFD Toolbox           |
|  \\    /   O peration     | Version:  2.4.0                                 |
|   \\  /    A nd           | Web:      www.OpenFOAM.org                      |
|    \\/     M anipulation  |                                                 |
\*---------------------------------------------------------------------------*/
FoamFile
{
    version     2.0;
    format      ascii;
    class       volSymmTensorField;
    location    "0.07";
    object      B;
}
// * * * * * * * * * * * * * * * * * * * * * * * * * * * * * * * * * * * * * //

dimensions      [0 2 -2 0 0 0 0];

internalField   nonuniform List<symmTensor> 
200
(
(1.84775e+09 -6.34879e+08 1.44235e+08 1.21932e+09 -1.0292e+08 1.44964e+09)
(2.80148e+08 8.27448e+07 -1.21396e+08 3.26239e+08 -1.10412e+08 2.61062e+08)
(3.61737e+08 9.56058e+07 1.66699e+07 2.05799e+08 -4.33369e+07 1.2076e+08)
(2.33357e+08 -1.65079e+07 5.15069e+07 1.76158e+08 -5.92908e+07 7.5054e+07)
(1.73555e+08 -4.40511e+07 6.8227e+07 1.38371e+08 -1.52896e+07 1.04918e+08)
(4.55999e+08 -3.47806e+07 7.34162e+07 3.33296e+08 -5.69609e+07 3.22699e+08)
(7.48049e+08 -1.8095e+08 -3.16606e+07 9.01153e+08 2.82045e+06 8.37127e+08)
(3.41183e+09 6.04143e+07 -3.4315e+08 2.78682e+09 1.84578e+07 2.90878e+09)
(6.00767e+09 -9.80651e+08 -8.69105e+07 4.73948e+09 -1.24923e+08 4.05004e+09)
(3.02809e+09 -1.64828e+09 -1.61667e+09 6.35849e+09 7.00892e+08 1.50155e+09)
(2.29682e+09 -7.89805e+08 -2.40149e+07 2.42212e+09 -3.70447e+08 2.42471e+09)
(8.25004e+08 2.44668e+08 -1.21652e+08 6.10728e+08 -1.17261e+08 4.66642e+08)
(4.43636e+08 1.1934e+08 2.82943e+07 4.26505e+08 -2.68542e+07 2.23439e+08)
(2.28116e+08 2.95619e+06 7.87699e+07 1.7421e+08 -1.77118e+06 1.528e+08)
(1.7483e+08 -3.50174e+07 3.47782e+07 1.59642e+08 -2.12724e+07 1.05435e+08)
(1.4612e+08 -4.15282e+07 3.94717e+07 1.52744e+08 -1.61162e+07 1.16627e+08)
(3.23079e+08 -4.15222e+07 5.9814e+07 2.87521e+08 -4.49153e+07 2.61493e+08)
(1.80816e+09 -2.07599e+08 -8.50168e+07 2.15032e+09 1.21921e+07 2.01543e+09)
(8.11183e+09 6.10689e+07 -4.19818e+08 7.62871e+09 3.65511e+07 7.64888e+09)
(5.38246e+09 -1.1251e+09 -1.70463e+07 4.20142e+09 -2.49426e+08 2.35965e+09)
(1.15445e+09 -5.43332e+08 -1.50474e+08 1.08471e+09 -3.2362e+08 9.23928e+08)
(9.74157e+08 5.65935e+07 2.82358e+06 9.02604e+08 -3.58101e+07 8.57655e+08)
(4.32685e+08 8.85077e+07 8.80367e+07 3.61812e+08 -7.0407e+07 2.85861e+08)
(4.28341e+07 -2.24052e+07 4.1829e+07 2.61915e+08 1.48592e+07 9.4999e+07)
(2.27683e+08 -2.17524e+06 3.59845e+07 2.22809e+08 4.26426e+06 2.1672e+08)
(8.84985e+07 -4.32099e+07 4.20679e+07 1.43857e+08 -2.55738e+07 3.93127e+07)
(1.03574e+08 -3.24186e+07 2.51365e+07 1.41628e+08 -1.51547e+07 1.03232e+08)
(1.56467e+08 -2.21029e+07 4.39258e+07 1.82401e+08 -3.55757e+07 1.51495e+08)
(3.09164e+09 -2.22556e+08 -1.42626e+08 3.60453e+09 3.35374e+07 3.3898e+09)
(6.39426e+09 3.29279e+07 -2.9078e+08 6.06294e+09 6.49619e+07 6.0826e+09)
(1.76186e+09 -4.88504e+08 -3.61672e+07 1.87596e+09 -8.05043e+07 1.70033e+09)
(8.05175e+08 8.30893e+07 -3.57745e+07 7.38416e+08 -8.81234e+07 6.45793e+08)
(7.65919e+08 2.40184e+07 1.43762e+07 7.13883e+08 -7.39741e+06 6.94782e+08)
(1.55508e+08 1.76518e+07 5.42537e+07 1.3561e+08 1.42261e+07 1.58063e+08)
(1.22188e+08 -5.90449e+07 1.19721e+07 2.44176e+08 2.57274e+07 1.7195e+08)
(1.08394e+08 -6.84353e+06 1.35131e+07 1.15657e+08 3.1762e+06 1.20266e+08)
(4.70494e+07 -4.20476e+07 1.44129e+07 1.11101e+08 -3.169e+07 2.53675e+07)
(1.10044e+08 -1.96474e+07 1.2833e+07 1.34821e+08 -1.26736e+07 1.11574e+08)
(5.49125e+07 -4.0635e+06 3.08845e+07 9.20401e+07 -3.46879e+07 7.2957e+07)
(3.67562e+09 -2.06233e+08 -1.6437e+08 4.2376e+09 5.14201e+07 3.96901e+09)
(2.54783e+09 -6.82248e+08 -6.02637e+08 1.6516e+09 5.9467e+07 1.49476e+09)
(2.18489e+08 1.62467e+08 1.48343e+08 -2.92682e+07 -6.03586e+06 -9.81654e+07)
(3.77486e+08 5.98727e+07 -2.46783e+07 3.49276e+08 1.27075e+07 3.13301e+08)
(1.68125e+08 1.70762e+07 3.96764e+07 1.41742e+08 1.95826e+07 1.21953e+08)
(4.96697e+07 -1.4806e+07 1.38533e+07 2.14902e+07 5.89096e+06 2.726e+07)
(9.53408e+07 -1.50728e+07 1.41934e+07 8.6537e+07 5.24497e+06 1.08861e+08)
(1.63737e+08 -2.91345e+06 4.95535e+06 1.04369e+08 9984.1 1.1349e+08)
(2.60225e+09 -1.71507e+08 -1.62495e+08 2.92432e+09 1.03242e+08 2.95633e+09)
(5.69933e+09 4.36021e+07 -2.01063e+08 5.6284e+09 4.02103e+07 5.75037e+09)
(1.18695e+09 -4.75479e+08 -6.32808e+08 2.45983e+08 2.70892e+08 1.08098e+09)
(2.30896e+09 -7.08276e+08 -2.47317e+08 7.99646e+08 734812 1.30238e+09)
(5.5879e+08 5.69462e+07 -2.7018e+07 5.3118e+08 -486907 4.74774e+08)
(6.13374e+08 2.1101e+08 1.95374e+08 1.81281e+08 -9.39159e+07 4.01266e+08)
(5.87307e+07 -8.16819e+06 -4.90976e+07 1.41768e+08 4.15023e+07 7.0433e+07)
(1.11964e+08 -4.37981e+06 1.47903e+06 2.00314e+08 2.27644e+07 1.52832e+08)
(4.48506e+06 -3.23578e+07 9.05831e+06 -7.3129e+06 2.19579e+07 -2.32391e+07)
(1.12311e+08 -3.27993e+07 1.08497e+07 1.2295e+08 6.86224e+06 1.37618e+08)
(7.4617e+07 -1.67237e+07 1.04759e+07 2.27793e+07 8.78782e+06 2.10282e+07)
(4.26643e+09 -2.19121e+08 -2.26855e+08 4.85462e+09 2.06772e+08 4.79326e+09)
(8.80883e+09 5.69743e+07 -2.32732e+08 8.71288e+09 7.39808e+07 8.85881e+09)
(6.58718e+09 -2.56566e+09 -8.92857e+08 6.54692e+09 -1.11026e+08 4.94143e+09)
(2.37862e+09 6.00396e+08 -3.6112e+07 -2.66897e+08 -4.24858e+08 1.28216e+09)
(5.98606e+08 2.5301e+07 -1.26317e+06 4.60141e+08 -1.70635e+07 4.70134e+08)
(8.5137e+08 1.82314e+08 1.17045e+08 8.23107e+08 6.79165e+06 9.01286e+08)
(2.55822e+08 -1.20681e+08 -9.63707e+07 5.01687e+08 5.22991e+07 3.46503e+08)
(1.60964e+08 -1.0061e+08 -8.16801e+07 4.18255e+08 3.74907e+07 3.20432e+08)
(1.06118e+07 -2.80516e+07 3.21853e+07 -3.7715e+07 1.06963e+07 -3.8342e+06)
(9.65272e+07 -5.92822e+07 9.5636e+06 1.38036e+08 -1.98829e+07 1.19229e+08)
(1.55464e+07 -2.16489e+07 2.07691e+07 6.34861e+06 4.17773e+06 1.18379e+07)
(4.73948e+09 -1.44333e+08 -1.56272e+08 5.2639e+09 1.86026e+08 5.19912e+09)
(7.64954e+09 -2.19842e+09 -1.14815e+09 3.67061e+09 -9.16607e+08 5.43913e+09)
(9.78786e+07 -9.75093e+07 -9.23957e+06 6.59148e+07 3.85316e+06 1.31296e+08)
(3.11238e+09 2.78859e+08 1.41224e+08 3.4376e+09 5.15803e+07 3.39221e+09)
(1.15246e+08 2.04825e+07 -1.7696e+07 8.6574e+07 -2.30193e+07 4.33085e+07)
(9.64013e+08 2.39413e+07 1.10947e+07 6.656e+08 -2.1327e+07 7.94238e+08)
(6.9966e+08 -1.42259e+08 -6.12175e+07 7.84361e+08 4.01323e+07 6.77335e+08)
(2.65054e+08 -9.15534e+07 -7.41755e+07 3.84453e+08 2.72739e+07 3.43e+08)
(7.87026e+07 -2.2542e+06 4.54073e+07 -2.25356e+07 -1.34162e+07 1.20521e+08)
(2.49448e+08 -5.94457e+07 -2.10277e+06 3.12864e+08 -1.27885e+07 3.49724e+08)
(6.00303e+06 -2.0845e+07 1.05958e+07 3.40396e+07 1.15939e+06 7.51313e+07)
(4.25927e+09 -1.43141e+09 -8.44393e+08 1.6772e+09 -3.02867e+08 3.24292e+09)
(8.45549e+08 1.25586e+08 -7.23701e+07 8.8022e+08 -8.13533e+07 7.80955e+08)
(5.89718e+08 1.06095e+08 5.91946e+07 2.51921e+08 -5.0634e+07 5.84469e+08)
(-1.96996e+06 1.47102e+07 -2.37698e+06 1.81117e+06 -1.27951e+06 9.27997e+06)
(1.78795e+08 -6.77533e+07 1.14082e+08 1.47011e+08 -1.50786e+07 2.76319e+08)
(5.95013e+07 -5.09099e+07 -2.57787e+07 1.09318e+08 -1.52599e+07 5.63514e+07)
(2.75303e+08 -8.75165e+07 1.06995e+08 3.38657e+08 -1.01017e+08 4.59138e+08)
(6.18051e+07 -6.37673e+06 -3.20015e+07 1.84298e+07 -154231 -1.13846e+07)
(2.39292e+09 -1.33381e+08 -2.4459e+08 2.8298e+09 1.13264e+08 2.97556e+09)
(2.9937e+09 4.92911e+07 -1.20797e+08 2.95927e+09 -5.71771e+06 3.09298e+09)
(5.24371e+09 -1.30931e+09 -1.12809e+09 5.85844e+09 -2.32679e+08 5.21188e+09)
(1.07589e+09 1.65291e+08 -1.34225e+08 2.0771e+08 -2.63941e+07 1.05446e+09)
(3.0942e+08 -1.7585e+07 7.36297e+07 2.67743e+08 3.33517e+06 3.02643e+08)
(9.44101e+07 5.06137e+07 8.96986e+07 1.00122e+08 2.99041e+07 2.38761e+08)
(1.8497e+08 -1.2993e+07 -3.71129e+07 2.04807e+08 -9.92899e+06 1.76128e+08)
(2.30387e+08 -4.13763e+07 9.60633e+06 1.86746e+08 -2.10379e+07 2.42524e+08)
(2.9623e+08 -1.16794e+08 1.02221e+07 2.99208e+08 4.88769e+06 9.28847e+07)
(3.09075e+08 -8.96798e+07 1.13845e+07 2.06805e+08 -9.05731e+07 4.17442e+08)
(5.78904e+08 -4.22683e+07 -1.18244e+08 4.78052e+08 3.14905e+07 4.41093e+08)
(2.73569e+09 -1.06412e+08 -1.77977e+08 3.14882e+09 1.84548e+08 3.24085e+09)
(4.69202e+09 -1.25398e+09 -1.191e+09 3.87654e+09 1.90621e+08 5.05369e+09)
(2.63563e+08 -3.37915e+07 8.60245e+07 2.86974e+08 9.68109e+07 3.56972e+08)
(1.51571e+09 1.48635e+08 5.91717e+07 1.74901e+09 1.04233e+08 1.80047e+09)
(2.40266e+08 1.96482e+07 -4.10212e+07 2.49054e+08 -1.4215e+07 2.18337e+08)
(2.90195e+08 -2.86332e+07 -8.13115e+07 2.37092e+08 -3.56067e+07 2.83672e+08)
(1.25624e+08 -5.25908e+07 1.83175e+07 7.39107e+07 -1.14445e+07 3.38704e+07)
(7.06066e+08 -6.74668e+07 -1.72311e+07 6.84657e+08 -2.19348e+07 7.06007e+08)
(2.83082e+08 -1.36637e+08 4.59832e+07 1.95862e+08 9.46813e+07 -9.41635e+07)
(9.15507e+07 -2.99866e+07 6.61416e+07 4.0022e+07 -4.34074e+06 7.98715e+07)
(4.81127e+08 -2.59982e+07 -2.15089e+07 4.84201e+08 6.63811e+07 4.21755e+08)
(5.53961e+09 -7.35349e+08 -2.67804e+08 5.35159e+09 5.62856e+07 5.52614e+09)
(4.08383e+09 1.477e+08 6.41959e+07 4.43479e+09 1.26364e+08 4.43405e+09)
(2.5829e+08 6.26795e+07 -9.26071e+07 2.99352e+08 -1.14098e+07 3.03365e+08)
(4.60053e+08 1.78072e+06 -2.31999e+07 4.07329e+08 -4.27524e+06 4.41659e+08)
(1.80515e+08 -7.16337e+06 -1.32519e+07 1.13727e+08 -3.93848e+07 5.87248e+07)
(2.92155e+08 1.3484e+07 -4.64526e+07 2.4011e+08 -4.81777e+07 2.62489e+08)
(3.07326e+08 -3.43168e+07 8.27845e+07 2.99068e+08 -1.01888e+06 2.99436e+08)
(4.00034e+08 -6.82587e+07 6.87486e+07 4.64094e+08 -1.68946e+07 3.66433e+08)
(4.21849e+07 -1.45431e+07 3.91799e+07 7.55091e+07 6.32325e+07 6.01948e+07)
(1.45157e+08 -1.74559e+07 -4.15322e+07 1.6803e+08 9.40966e+06 2.20376e+08)
(4.79281e+09 -1.13024e+09 -6.10181e+08 5.02665e+09 1.1387e+08 2.52888e+09)
(1.23521e+09 1.02855e+08 1.06607e+08 1.22062e+09 5.38728e+07 1.45942e+09)
(2.01183e+08 4.11329e+07 -3.77266e+07 2.9092e+08 1.14698e+08 1.34088e+08)
(3.84037e+08 1.29673e+07 -3.03076e+07 3.65703e+08 1.71171e+07 5.35925e+08)
(1.32122e+08 -1.23909e+07 -5.64926e+07 8.51027e+07 8.03172e+06 1.37915e+07)
(3.34423e+08 -6.53933e+07 2.75459e+07 2.61193e+08 -3.09572e+07 4.15181e+08)
(1.91998e+08 -6.27386e+07 -7.00659e+07 7.74604e+07 -5.92466e+07 9.63363e+06)
(4.40001e+08 -1.39386e+08 -3.46366e+07 3.20849e+08 -2.2839e+07 4.43566e+08)
(9.52503e+06 -1.77372e+07 5.9473e+06 -6.89839e+06 -1.93856e+07 -4.69988e+07)
(9.44174e+08 -5.15294e+07 -1.50415e+08 1.22607e+09 8.1166e+07 1.41141e+09)
(2.46562e+09 -6.17381e+08 1.40029e+08 2.70101e+09 2.15036e+08 2.40382e+09)
(2.07867e+08 3.02896e+06 1.23921e+07 2.91686e+08 2.33824e+07 -3.1549e+07)
(8.12931e+08 1.47367e+07 3.09313e+06 8.28967e+08 1.4918e+07 8.64068e+08)
(1.42139e+08 -1.38615e+06 -1.03164e+08 6.80854e+07 -2.09505e+07 -6.04957e+07)
(2.54878e+08 -3.17967e+06 -3.08641e+07 2.34165e+08 4.16615e+06 3.03616e+08)
(6.10595e+08 -9.67549e+07 -2.19605e+08 4.1083e+08 -5.13747e+07 3.86598e+08)
(7.31406e+08 -1.80028e+08 1.13842e+08 5.46072e+08 -7.68813e+07 8.25937e+08)
(3.23283e+08 -1.01891e+07 2.69344e+08 1.72556e+08 -1.90992e+08 -8.01166e+07)
(4.60695e+08 -2.77251e+07 -9.89576e+07 3.42137e+08 -6.23874e+07 4.88962e+08)
(-5.91914e+07 1.63949e+07 -5.66721e+06 9.34269e+06 -1.73097e+07 2.35431e+07)
(1.53796e+09 -2.58069e+08 2.94966e+08 1.79995e+09 -2.99895e+07 2.00488e+09)
(3.53001e+08 1.63936e+07 -2.88671e+07 4.76675e+08 4.79274e+07 4.6674e+08)
(2.98069e+08 -1.21818e+07 -4.22959e+07 2.58744e+08 -2.41408e+07 1.34051e+08)
(2.02892e+08 -900379 -1.14978e+07 1.93075e+08 -1.03053e+07 2.25527e+08)
(2.27286e+08 -2.99859e+07 -3.72879e+07 1.47119e+08 -7.0814e+07 1.81712e+08)
(2.2456e+08 -1.16818e+08 -1.2292e+07 1.86278e+08 -2.24135e+07 3.58734e+08)
(6.06721e+08 -3.60347e+07 -2.31153e+08 4.89862e+08 8.35211e+07 1.41706e+08)
(1.66763e+09 -2.06034e+08 -8.09843e+07 1.29658e+09 -1.73323e+08 1.78031e+09)
(3.96605e+08 1.76606e+07 2.98579e+08 3.27714e+08 7.42191e+07 2.70706e+07)
(2.49049e+08 5.53397e+07 1.68853e+07 2.08819e+08 2.60973e+07 2.63912e+08)
(1.16976e+09 -2.51636e+08 1.92209e+08 1.42912e+09 6.91958e+07 1.75036e+09)
(2.71835e+07 8.72071e+06 -2.12563e+06 2.10223e+07 -1.09452e+07 3.78846e+07)
(8.09288e+07 1.8806e+07 1.43173e+07 8.98928e+07 -2.13229e+07 1.34498e+08)
(5.49824e+08 -2.21655e+07 -3.88623e+07 5.32101e+08 -1.4117e+07 5.13395e+08)
(8.96278e+07 -3.93003e+07 1.92917e+07 1.23197e+08 5.43601e+06 2.84649e+08)
(1.87917e+08 5.12463e+07 1.75829e+08 3.3611e+08 -3.24191e+07 1.40143e+08)
(1.12658e+09 -1.80583e+08 -1.90513e+08 1.06813e+09 -1.12107e+08 1.24663e+09)
(1.03613e+09 -4.20285e+07 1.2229e+08 9.16393e+08 1.23881e+08 2.73287e+08)
(1.02742e+09 4.83599e+07 2.1635e+08 9.95522e+08 6.15878e+06 8.1953e+08)
(2.24208e+08 -1.63607e+07 -4.38852e+07 1.94154e+08 1.14091e+08 -1.16172e+07)
(1.84593e+10 -3.88144e+08 -3.50197e+09 1.87052e+10 -3.68549e+08 2.23116e+10)
(9.21617e+09 -4.01229e+08 3.67295e+09 8.63986e+09 -1.83301e+09 8.52095e+09)
(3.47174e+08 9.92721e+07 -1.84134e+08 3.50434e+08 3.42203e+07 9.60595e+08)
(1.14233e+08 1.07948e+08 2.67665e+06 -1.20212e+08 -9.6261e+07 -9.61137e+07)
(3.24989e+08 8.01232e+07 3.27225e+07 2.74738e+08 -1.35548e+07 4.80948e+08)
(2.77817e+08 5.95214e+07 -3.07853e+07 6.54443e+07 -5.37897e+07 5.86901e+07)
(1.83234e+08 -1.50982e+07 4.75556e+07 -2.81316e+06 5.92496e+07 2.5695e+08)
(7.16921e+07 4.1193e+07 3.53962e+06 -1.7086e+06 -6.83463e+07 -2.01686e+07)
(1.74668e+08 1.44097e+07 -8.44283e+07 1.31246e+08 3.59036e+07 1.8244e+08)
(1.38357e+07 3.58783e+07 3.64624e+07 8.96844e+07 -2.17175e+07 3.74961e+07)
(2.36834e+10 -1.15256e+09 -3.63783e+09 2.33865e+10 1.51348e+09 2.41939e+10)
(6.73213e+09 4.41544e+08 4.91657e+08 6.89319e+09 -1.44102e+08 8.33497e+09)
(6.38154e+09 1.73329e+08 1.94065e+09 5.78012e+09 -4.95546e+08 5.83667e+09)
(5.81225e+08 1.10173e+08 3.42249e+07 4.87898e+08 -1.95228e+07 8.1088e+08)
(3.30331e+08 5.24748e+07 3.26093e+07 1.1818e+08 1.18201e+07 1.70999e+08)
(4.84577e+08 649533 9.32119e+07 3.73964e+08 -3.07376e+07 5.93696e+08)
(2.72852e+08 8.07208e+07 -2.39342e+08 -8.85061e+07 -3.24062e+08 3.01112e+08)
(3.55692e+08 3.45062e+07 1.48849e+07 2.21544e+08 1.35529e+08 6.18228e+08)
(2.23097e+08 1.07206e+08 2.20846e+08 1.64271e+08 -1.31729e+08 1.07638e+08)
(4.24161e+08 9.84671e+07 -8.6315e+07 3.45063e+08 3.61745e+07 4.37572e+08)
(4.93998e+09 -1.01229e+09 1.86139e+08 5.06471e+09 3.68941e+08 4.36341e+09)
(7.50015e+09 4.82686e+07 -5.23773e+08 7.56704e+09 3.6154e+08 7.57199e+09)
(2.33557e+09 1.2065e+08 1.18194e+08 2.38022e+09 -1.16566e+07 2.6065e+09)
(1.71746e+09 1.79836e+08 9.76766e+08 1.37591e+09 3.36749e+07 1.55665e+09)
(9.938e+07 7.1749e+06 4.39827e+07 4.12336e+07 -2.04e+07 2.04839e+08)
(8.60804e+08 5.53965e+07 -3.69967e+08 4.08013e+08 -1.67536e+07 7.24568e+08)
(1.48773e+09 1.35365e+08 6.98857e+08 1.42495e+09 -6.70719e+07 2.29686e+09)
(8.24631e+08 1.88214e+08 1.42735e+08 1.93891e+08 -5.13711e+08 8.10856e+08)
(1.02517e+09 -1.00916e+08 -2.18154e+08 4.79749e+08 -1.75584e+08 1.32893e+09)
(2.76651e+08 2.81995e+07 9.40525e+07 2.82939e+08 1.55467e+06 2.86471e+08)
(2.75439e+09 -6.24287e+08 4.14753e+08 2.67133e+09 -1.30509e+08 2.31691e+09)
(3.14261e+08 6.61478e+06 -1.26252e+07 3.64729e+08 2.36665e+07 2.94916e+08)
(2.03152e+09 -3.96958e+07 -2.79243e+08 2.04214e+09 2.4183e+08 1.91396e+09)
(2.59315e+08 6.49031e+07 6.08262e+07 3.67526e+08 -1.46754e+07 4.59667e+08)
(-1.61723e+08 -1.01942e+08 -1.07154e+08 -1.62676e+08 -1.10181e+08 2.05009e+08)
(4.68517e+08 -3.35423e+07 1.84108e+08 7.09449e+08 4.60689e+07 9.89899e+08)
(5.1757e+09 -4.07178e+08 -2.43227e+09 2.62974e+09 -7.59802e+08 3.69089e+09)
(5.36362e+09 -3.15891e+08 -1.76868e+08 5.15928e+09 -4.487e+08 6.5875e+09)
(3.29261e+09 6.20492e+08 2.12758e+09 3.71957e+09 3.73855e+08 3.97664e+09)
(1.47249e+09 1.71397e+08 2.37974e+08 1.04595e+09 -3.93642e+07 1.18715e+09)
)
;

boundaryField
{
    inlet
    {
        type            calculated;
        value           nonuniform List<symmTensor> 
20
(
(2091.73 -5033.02 2974.62 -944.144 -309.334 -251.908)
(-478.513 -4652.24 -348.965 190.268 -1032.19 197.459)
(-390.569 -4023.4 301.855 -17.0904 -933.12 -480.695)
(678.554 -4517.34 -124.949 531.395 -307.616 -139.726)
(3199.55 -1346.18 -4330.34 -86.1314 91.4713 -327.372)
(2353.51 -4693.16 1726.64 -1691.96 1.63341 -574.436)
(2403.73 -8280.22 -3340.9 1050.83 -117.434 -647.31)
(1186.28 92.1907 -537.512 -3228.7 -1317.98 -685.757)
(3367.65 -6248.16 637.649 -2187.03 -450.206 140.376)
(564.534 -6505.73 -4167.62 1073.28 -441.015 -152.182)
(-1444.99 -1525.55 -4060.02 -1166.31 355.213 1027.25)
(4748.51 -11004.5 -4717.99 -523.725 271.063 316.896)
(2299.88 -6255.54 -3813.6 1531.3 252.321 -4003.46)
(585.45 -3159.03 805.1 797.096 705.542 -178.016)
(-1193.06 -3052.36 3410.81 79.6645 -147.826 1089.81)
(-2177.43 -2548.16 1191.66 -38.682 304.993 1377.27)
(-5126.93 -612.068 -25239.4 -1525.28 -609.846 4442.36)
(2949.64 -7536.42 -5145.5 -950.071 3106.54 707.175)
(2039.84 -4782.27 3181.53 994.098 1043.3 -989.05)
(1165.16 -4152.77 4358.53 316.743 -436.51 -868.688)
)
;
    }
    outlet
    {
        type            calculated;
        value           nonuniform 0();
    }
    bottom
    {
        type            calculated;
        value           nonuniform List<symmTensor> 
40
(
(944.638 -1908.18 553.609 -944.144 -1335.19 1729.98)
(-158.876 -2200.67 -214.969 190.268 -1723.43 -263.851)
(183.996 -1566.64 -573.585 -17.0904 -1251.86 139.538)
(95.4116 -1866.63 -105.065 531.395 -1343.26 -123.593)
(-113.169 449.304 -538.514 137.109 -840.307 -1162.82)
(730.818 945.535 -656.497 -97.2614 -1203.14 -86.4258)
(1026.52 694.952 89.6947 147.866 -832.273 -1420.71)
(682.584 941.466 -783.316 -73.8461 -603.756 -403.904)
(650.485 465.743 95.6166 -109.164 -883.602 -274.992)
(456.693 478.141 214.484 388.056 -139.866 -1843.54)
(431.073 632.966 703.511 -75.7802 -424.719 -76.0606)
(1155.35 583.529 727.594 -108.878 -213.707 -1965.68)
(425.997 -98.4366 664.878 84.9215 -170.019 -1563.81)
(351.785 24.5658 589.572 -96.1685 -625.961 -504.974)
(-444.584 -109.93 304.534 630.321 64.8441 -1113.08)
(12.2877 219.179 1162.9 -234.784 287.798 83.7098)
(231.453 -335.853 688.04 -36.7905 -840.73 -287.87)
(280.835 -329.7 622.319 137.837 -64.6568 -1021.64)
(188.923 -34.7782 471.151 111.001 -690.267 -428.113)
(-655.371 -573.598 450.833 529.697 279.078 -747.469)
(693.483 -269.758 1005.27 -258.202 -451.905 -1149.36)
(83.2304 -401.34 499.504 147.248 -926.864 -453.598)
(-29.8009 -276.34 576.964 324.234 -2.83158 -691.685)
(-141.624 -200.242 363.421 70.9173 -558.091 -139.779)
(-774.589 -1523.34 217.719 514.314 -705.894 188.593)
(331.023 -388.038 897.014 -1.28153 -529.23 -863.722)
(-143.698 -374.985 316.446 296.475 -933.403 -394.282)
(-172.324 -319.296 400.99 314.061 10.1661 -503.928)
(2256.46 352.92 -2035.41 -1394.65 -1312.51 -2994.28)
(-1869.02 -1925.83 -512.609 1305.09 -690.828 154.467)
(-95.7907 -248.062 732.217 195.269 -517.501 -610.488)
(-100.633 -323.528 189.381 307.363 -887.598 -266.589)
(2865.78 -2679.4 1647.25 -599.252 384.252 -5726.36)
(2880.12 490.327 -3963.71 -998.914 -1695.75 -3753.3)
(-2447.2 -1934.53 -1238.06 2011.02 -407.563 252.209)
(-309.005 -48.6079 603.421 135.119 -475.039 -426.229)
(-1224.04 -1953.27 -642.999 2722.6 -2032.82 -4791.09)
(2498.72 -2154.72 2022.78 236.863 621.298 -8468.93)
(2522.13 362.367 -4101.96 -1124.11 -1555.26 -4265.89)
(-2261.27 -1693.41 -1462.05 2353.27 -115.642 269.917)
)
;
    }
    top
    {
        type            symmetryPlane;
    }
    side1
    {
        type            symmetryPlane;
    }
    side2
    {
        type            symmetryPlane;
    }
    procBoundary8to0
    {
        type            processor;
        value           nonuniform List<symmTensor> 
50
(
(4.02845e+08 -5.69449e+08 3.14933e+06 -9.08328e+07 -1.04343e+08 -1.37968e+08)
(1.07375e+08 2.10215e+07 -2.97114e+07 -1.10433e+08 -6.294e+07 -8.61247e+07)
(9.46167e+07 8.33958e+07 3.04466e+07 -3.0398e+06 -1.24145e+08 -9.17077e+07)
(3.31394e+07 1.44447e+07 6.33908e+07 -1.19794e+07 -2.01185e+07 -2.49956e+07)
(1.25331e+08 1.96319e+07 5.09526e+07 -6.17243e+07 -7.76857e+07 -5.66669e+07)
(4.88762e+06 -9.0817e+07 1.06431e+07 6.12704e+06 -2.59761e+06 2.05565e+06)
(3.54853e+08 2.02483e+08 -2.20449e+08 -3.26782e+08 2.73667e+07 -9.08438e+07)
(8.04078e+08 -3.86056e+08 -8.63551e+07 -3.31399e+08 1.99749e+07 -3.39659e+08)
(-3.47631e+08 -7.79232e+08 -1.56513e+09 9.87243e+08 1.27261e+09 -8.45014e+08)
(2.6311e+09 -4.06833e+09 8.32594e+09 2.5722e+09 -6.35787e+09 -3.71685e+09)
(5.30217e+08 -5.70879e+08 -4.65766e+08 -2.97603e+08 3.27557e+07 -1.29741e+08)
(8.00319e+07 1.62088e+08 -2.38523e+07 -3.10042e+06 -6.04463e+07 -4.99227e+07)
(6.61835e+07 2.59476e+07 4.15256e+07 -2.7388e+07 1.15987e+07 -2.55161e+07)
(5.45109e+07 1.44695e+07 7.56103e+06 -1.25756e+07 -1.29622e+07 -3.41819e+07)
(1.93579e+07 -1.11335e+07 4.16995e+07 -1.54927e+07 3.48922e+06 1.44598e+07)
(4.188e+07 4.36433e+06 5.66906e+06 -2.95198e+07 -1.12908e+07 -9.73207e+06)
(-1.14128e+08 -1.00023e+08 -8.93918e+07 1.02112e+07 1.72442e+07 1.00261e+08)
(2.24621e+07 5.60089e+07 -1.76552e+08 -8.5626e+07 1.24867e+07 5.73785e+07)
(1.73446e+08 -1.98665e+08 -7.03245e+08 -7.33199e+08 5.9385e+07 3.72043e+08)
(-2.41392e+09 -2.26053e+08 -2.90858e+09 1.62293e+09 2.51038e+09 2.10987e+09)
(7.2996e+08 -1.60099e+08 -4.72949e+08 -2.35698e+08 -6.17962e+07 1.81042e+08)
(6.16494e+07 -1.04603e+08 -7.31487e+07 -2.10964e+08 -1.1411e+08 3.5384e+07)
(7.37879e+07 1.38674e+08 -4.32717e+07 -1.70424e+07 -2.92696e+07 -1.02e+08)
(3.66189e+07 1.1589e+06 9.76592e+07 -3.03423e+07 -4.60059e+07 4.03263e+07)
(6.12676e+06 2.16851e+06 5.61892e+06 -5.80256e+06 24411.4 -6.49492e+06)
(-5.28151e+07 -8.56592e+07 1.70204e+08 1.53596e+07 -7.73687e+07 9.32257e+07)
(1.34371e+07 -8.8715e+06 -2.43514e+07 -5.59851e+06 7.54593e+06 -2.33597e+07)
(-3.26333e+08 -1.353e+08 -2.25846e+08 4.1593e+07 2.09674e+07 2.95427e+08)
(-1.8789e+07 3.83094e+07 -8.89742e+07 -2.52217e+07 -2.55122e+07 5.21718e+07)
(-2.68516e+08 -1.00965e+08 -2.8764e+08 -3.30711e+08 -2.26732e+08 4.12746e+08)
(6.63204e+08 -1.43026e+09 -1.88791e+08 -1.07479e+09 -2.3056e+08 4.52902e+08)
(-4.61343e+07 1.67485e+08 -1.77539e+08 6.38378e+07 4.39208e+07 -1.08823e+08)
(7.42378e+07 9.80378e+07 7.97042e+07 -2.78798e+08 -6.8076e+07 2.58372e+08)
(1.4173e+07 4.60087e+07 6.20948e+07 644251 7.38241e+06 -7.82407e+07)
(2.34473e+06 -1.08072e+07 6.07255e+07 -7.16496e+07 -2.25295e+07 1.09165e+08)
(3.90103e+07 -4.35142e+07 -6.5212e+07 -8.64743e+06 1.90294e+07 -9.32662e+07)
(5.6019e+07 -1.92169e+08 3.69306e+07 1.2363e+07 -6.01778e+07 7.14863e+06)
(4.08637e+07 -3.22752e+07 -41601.6 -6.13007e+06 -2.96702e+07 -6.08921e+07)
(-1.4028e+08 -8.97441e+07 -1.76817e+08 3.39311e+07 3.41704e+07 1.44583e+08)
(-4.65494e+07 -8.92293e+06 5.25885e+06 1.99455e+07 -7.67063e+07 4.17348e+07)
(-3.71212e+08 -1.46646e+09 -1.19327e+09 1.00309e+09 -2.21647e+09 -7.54321e+08)
(-2.91085e+08 -1.31078e+08 -2.39626e+08 -1.58663e+08 2.36392e+08 9.25285e+08)
(-2.9306e+08 7.4197e+07 -7.08353e+07 4.36948e+07 -7.78959e+06 2.23213e+08)
(-7.22631e+07 8.1186e+07 5.99616e+06 -9.46984e+07 -3.17782e+06 2.84333e+08)
(2.19653e+07 4.47979e+06 1.88719e+07 -2.12238e+07 -1.94876e+07 -2.83601e+07)
(-7.14168e+06 -4.02323e+06 -4.10551e+07 -2.84852e+07 2.54214e+07 7.84081e+07)
(-1.59607e+07 -4.64617e+06 -5.85598e+07 -6.82992e+06 2.528e+07 -1.00857e+07)
(7.80148e+06 -3.87237e+07 -1.30253e+07 -1.89537e+07 2.27163e+07 1.59023e+07)
(5.96682e+06 -7.01909e+06 9.72834e+06 3.94614e+06 7.70871e+06 -2.31843e+07)
(-9.30824e+07 -3.01662e+07 -2.33104e+08 3.0423e+07 5.80638e+07 5.10548e+07)
)
;
    }
    procBoundary8to9
    {
        type            processor;
        value           nonuniform List<symmTensor> 
20
(
(2.49999e+09 -3.11303e+09 6.46663e+09 1.74717e+09 -4.59383e+09 -2.89315e+09)
(-1.39664e+09 -1.68921e+09 -2.65524e+08 2.1148e+09 2.32908e+08 -2.68529e+09)
(1.16434e+09 -7.7541e+08 -1.26568e+07 3.7773e+08 -1.9307e+08 -1.59515e+09)
(1.27811e+08 -4.68034e+06 -1.70891e+08 -9.20319e+07 3.45948e+07 -6.51127e+07)
(-2.45667e+09 -6.59583e+08 -1.66121e+09 1.78307e+09 1.622e+09 1.41156e+09)
(2.36932e+07 -2.77253e+08 -4.04006e+08 4.23497e+07 4.67521e+08 2.14654e+08)
(253926 2.5319e+07 -1.19961e+08 -5.73891e+07 5.91298e+07 6.27768e+07)
(-2.5401e+08 -9.12244e+07 -9.75681e+07 1.77648e+08 1.55783e+08 1.36095e+08)
(-1.92272e+08 -5.71306e+07 -4.86308e+07 -1.35624e+08 1.27111e+08 4.13759e+08)
(-9.38385e+07 7.66554e+07 -9.97113e+07 -8.80478e+07 6.35968e+07 1.65035e+08)
(-1.10115e+08 1.67339e+07 -3.29183e+07 8.22367e+07 1.13023e+08 9.17839e+07)
(-4.46995e+06 -3.68833e+06 -1.02178e+07 533087 8.38298e+06 -6.17466e+06)
(-1.65509e+07 5.72126e+06 -3.61045e+06 -1.49237e+06 -1.05593e+07 2.3181e+07)
(-2.69691e+08 -4.39846e+07 -1.2513e+08 8.73715e+07 1.0711e+08 2.07847e+08)
(-3.49315e+07 2.37969e+07 4.24341e+07 5.92262e+06 1.16106e+07 -2.37346e+07)
(7.26607e+07 2.11082e+07 -4.31402e+07 -3.77208e+07 2.88235e+07 2.79278e+07)
(-1.35472e+08 7.07423e+07 -2.12015e+08 7.98604e+07 1.39235e+08 7.30781e+07)
(-3.13718e+07 6.73921e+07 7.87257e+07 2.33758e+07 -1.36742e+07 -1.18271e+07)
(8.4847e+07 5.62834e+07 -4.73354e+07 -3.33445e+07 1.67659e+07 4.84096e+07)
(1.49213e+07 -2.09485e+07 3.96835e+07 -2.48894e+06 -2.586e+07 -3.03474e+07)
)
;
    }
    procBoundary8to16
    {
        type            processor;
        value           nonuniform List<symmTensor> 
50
(
(1.08742e+08 -2.78959e+08 1.96434e+08 1.35472e+08 -3.91556e+08 -3.36634e+08)
(-1.09223e+07 302108 -1.33189e+07 2.34664e+07 -2.44178e+07 3.77486e+06)
(1.95247e+06 1.5046e+07 -2.57713e+07 -2.34402e+07 2.16178e+07 1.20978e+07)
(2.0608e+07 899953 3.31469e+06 -1.83172e+07 -1.76374e+06 -6.59437e+06)
(1.25099e+07 7.02856e+06 -1.01974e+07 -3.09852e+07 7.18613e+06 1.377e+07)
(-1.98673e+07 -4.55977e+07 -9.35102e+06 3.23663e+07 8.28526e+06 -2.44284e+06)
(-769124 -5.20321e+06 5.27288e+06 -7.36684e+06 -207610 7.07966e+06)
(-1.10053e+07 -2.70994e+07 3.09851e+06 1.36205e+07 -3.50075e+07 -3.07695e+07)
(-2.18388e+06 -1.49602e+07 4.23827e+06 1.24703e+07 -1.14691e+07 -823017)
(-3.20024e+07 -4.99268e+06 1.14314e+07 3.42602e+06 -3.08701e+07 -6.46697e+06)
(4.11759e+08 -1.35938e+09 -5.5557e+08 -2.17394e+08 -1.9357e+07 -4.10479e+07)
(-2.02238e+08 2.25236e+08 1.30186e+08 1.6607e+08 4.55424e+07 -7.99797e+06)
(2.60499e+07 6.0385e+07 -3.83112e+07 5.4117e+07 -1.52775e+07 -4.14015e+07)
(3.96778e+07 -1.72246e+07 -1.63078e+07 -2.95564e+07 -4.75643e+06 -4.76629e+06)
(5.12135e+07 -1.7318e+07 9.77287e+06 -2.19969e+07 -9.65319e+06 -3.31803e+07)
(8.94894e+07 1.57129e+07 4.13494e+06 -6.70475e+07 -2.03757e+07 -7.74254e+06)
(-3.34593e+07 -9.19394e+07 -4.59553e+07 4.4926e+07 2.67166e+07 -2.72281e+07)
(-5.83522e+07 -8.14211e+07 -6.62626e+07 2.16867e+07 7.76985e+06 3.56329e+07)
(-1.96963e+07 3.53823e+07 4.2276e+07 -4.39411e+07 -2.95437e+06 6.75442e+07)
(-4.75775e+07 -4.17054e+07 -1.44159e+07 2.82271e+07 -1.66731e+07 5.63115e+07)
(-4.68673e+08 -4.02354e+08 -1.19804e+08 3.81568e+08 3.7462e+08 3.55304e+08)
(-1.42954e+07 3.77061e+07 -1.92193e+07 -3.27626e+06 -404596 4.31458e+06)
(2.35631e+07 2.11255e+07 209860 -1.13004e+07 -1.29322e+07 1.17573e+07)
(5.30019e+07 4.99389e+07 -4.13355e+07 -4.23215e+07 -3.48333e+07 -7.17311e+06)
(1.03976e+07 1.91988e+07 -2.23195e+07 -9.07816e+06 -6.77602e+06 2.40604e+07)
(4.85444e+07 2.11702e+06 -7.41719e+06 -8.43132e+06 -9.19609e+06 -1.96899e+07)
(2.44042e+07 2.50145e+06 1.37052e+07 -3.23974e+06 -2.58334e+07 -2.24059e+07)
(-2.75892e+07 -7.13298e+06 5.1687e+07 7.17504e+06 -4.96464e+06 2.68932e+07)
(-2.91134e+07 -3.69735e+07 2.11068e+07 7.72392e+06 -2.73247e+07 3.74907e+07)
(1.95532e+06 1.26459e+06 -3.50262e+07 -2.32361e+07 -1.23856e+07 3.53602e+07)
(-1.09199e+08 -2.78745e+08 1.01993e+08 -2.54269e+07 -3.42411e+07 2.45632e+07)
(-4.17969e+07 2.74208e+07 2.95381e+07 -1.21208e+07 -1.48112e+07 4.22666e+07)
(-2.74956e+07 1.01899e+07 -1.25375e+07 -1.80091e+07 -2.05456e+07 7.94467e+06)
(-9.01353e+07 1.89948e+07 5.98924e+07 -2.07897e+07 -1.64007e+07 8.86041e+07)
(-2.4376e+07 8.493e+06 1.02578e+07 4.31617e+07 2.46143e+07 -5.52128e+07)
(-1.12578e+07 -3.10496e+07 -1.12883e+08 -5.10522e+07 -6.30712e+07 1.36511e+08)
(8.36283e+07 6.9855e+06 1.09329e+08 3.8059e+06 -4.49635e+07 -2.57673e+08)
(7.7077e+07 4.95635e+07 1.37202e+08 1.33628e+08 -3.40718e+06 -1.03996e+08)
(-8.51525e+07 -5.10158e+07 -2.45317e+07 4.57051e+07 4.02224e+07 -7.03665e+07)
(5.10362e+07 -5.32145e+07 -2.09406e+07 3.70967e+07 -5.98849e+07 -5.25719e+07)
(5.01555e+07 -4.17258e+08 2.40943e+08 1.10237e+08 -2.56288e+07 -7.68546e+07)
(2.79538e+07 -1.18797e+07 -3.91512e+07 3.55448e+07 -6.02793e+07 -7.38932e+07)
(-2.21858e+07 2.29205e+07 3.35175e+07 4.88936e+07 -2.11129e+07 -1.74905e+07)
(-1.57767e+07 -1.74766e+08 -3.47572e+08 1.35135e+08 5.03671e+07 -1.05682e+08)
(-1.7021e+08 6.55929e+07 2.76274e+08 8.43919e+07 -2.08823e+07 2.60736e+08)
(4.9636e+08 -7.48017e+08 -1.44118e+09 -7.10292e+07 -5.28655e+08 -4.15156e+08)
(-3.1128e+08 -3.37978e+08 -3.9686e+08 -1.73271e+08 -2.75853e+08 6.08295e+08)
(-1.36068e+08 4.01105e+07 2.6741e+08 6.9098e+07 1.56201e+08 1.10603e+07)
(2.15794e+08 1.36462e+08 2.87425e+08 1.85684e+08 1.91973e+07 -1.31429e+08)
(2.46536e+08 8.68243e+07 -3.65069e+08 -1.30257e+08 4.59834e+07 -1.86281e+08)
)
;
    }
}


// ************************************************************************* //
