/*--------------------------------*- C++ -*----------------------------------*\
| =========                 |                                                 |
| \\      /  F ield         | OpenFOAM: The Open Source CFD Toolbox           |
|  \\    /   O peration     | Version:  2.4.0                                 |
|   \\  /    A nd           | Web:      www.OpenFOAM.org                      |
|    \\/     M anipulation  |                                                 |
\*---------------------------------------------------------------------------*/
FoamFile
{
    version     2.0;
    format      ascii;
    class       volScalarField;
    location    "0.01";
    object      p;
}
// * * * * * * * * * * * * * * * * * * * * * * * * * * * * * * * * * * * * * //

dimensions      [1 -1 -2 0 0 0 0];

internalField   nonuniform List<scalar> 
40
(
-1.54981e+19
-1.19454e+19
-8.16211e+18
-4.59885e+18
-3.91579e+18
-9.64701e+18
-7.56131e+18
-5.01929e+18
-3.22455e+18
-2.7824e+18
-9.32143e+18
-6.27872e+18
-4.34478e+18
-3.28604e+18
-3.13529e+18
-8.78309e+18
-7.94083e+18
-4.73158e+18
-3.22578e+18
-2.52334e+18
-4.49443e+19
-4.00264e+19
-3.57363e+19
-2.538e+19
-1.5973e+19
-3.37256e+19
-2.59278e+19
-2.03335e+19
-1.53227e+19
-9.97035e+18
-1.81029e+19
-1.44496e+19
-1.12113e+19
-8.38566e+18
-6.182e+18
-1.13883e+19
-1.00459e+19
-7.944e+18
-5.88018e+18
-4.17704e+18
)
;

boundaryField
{
    inlet
    {
        type            zeroGradient;
    }
    outlet
    {
        type            fixedValue;
        value           nonuniform 0();
    }
    bottom
    {
        type            zeroGradient;
    }
    top
    {
        type            symmetryPlane;
    }
    side1
    {
        type            symmetryPlane;
    }
    side2
    {
        type            symmetryPlane;
    }
    procBoundary83to19
    {
        type            processor;
        value           nonuniform List<scalar> 
20
(
3.38127e+19
2.09943e+19
1.31284e+19
8.48969e+18
6.11205e+18
2.04168e+19
1.30076e+19
9.06712e+18
5.67688e+18
3.47999e+18
9.53163e+18
8.06945e+18
5.85564e+18
3.9029e+18
2.57337e+18
4.99812e+18
4.94209e+18
3.67388e+18
2.5525e+18
1.52785e+18
)
;
    }
    procBoundary83to67
    {
        type            processor;
        value           nonuniform List<scalar> 10(-1.44655e+19 -1.14473e+19 -5.74377e+18 -3.92501e+18 -3.48958e+18 -4.83917e+19 -4.42291e+19 -4.4054e+19 -2.90882e+19 -1.66184e+19);
    }
    procBoundary83to82
    {
        type            processor;
        value           nonuniform List<scalar> 8(-2.32895e+19 -1.51818e+19 -1.02193e+19 -8.18169e+18 -5.89677e+19 -4.48509e+19 -2.43939e+19 -1.2953e+19);
    }
    procBoundary83to84
    {
        type            processor;
        value           nonuniform List<scalar> 8(-3.47859e+18 -2.7961e+18 -3.15239e+18 -1.95276e+18 -1.02332e+19 -6.09723e+18 -4.39553e+18 -3.16463e+18);
    }
    procBoundary83to99
    {
        type            processor;
        value           nonuniform List<scalar> 10(-7.10276e+18 -6.9782e+18 -4.08771e+18 -2.75121e+18 -1.97261e+18 -9.11716e+18 -7.69618e+18 -6.1757e+18 -4.55354e+18 -3.06777e+18);
    }
}


// ************************************************************************* //
