/*--------------------------------*- C++ -*----------------------------------*\
| =========                 |                                                 |
| \\      /  F ield         | OpenFOAM: The Open Source CFD Toolbox           |
|  \\    /   O peration     | Version:  2.4.0                                 |
|   \\  /    A nd           | Web:      www.OpenFOAM.org                      |
|    \\/     M anipulation  |                                                 |
\*---------------------------------------------------------------------------*/
FoamFile
{
    version     2.0;
    format      ascii;
    class       surfaceScalarField;
    location    "0.01";
    object      phib;
}
// * * * * * * * * * * * * * * * * * * * * * * * * * * * * * * * * * * * * * //

dimensions      [0 3 -1 0 0 0 0];

internalField   nonuniform List<scalar> 
82
(
-649553
-156456
310147
-781407
-297752
656154
-715401
-282812
378268
-713333
-114917
222539
-176888
224479
-581241
-227158
130887
-699167
-196807
400800
-834215
-211591
349549
-933706
-76542.3
237363
-74140.1
229196
-667090
-348554
128995
-721949
-93393.4
107461
-772944
-83242.9
130415
-686838
-58888.4
167331
-134501
179587
-635965
141786
-518065
46778.9
-440176
61746.2
-378024
64889.9
64027.2
-3.45901e+06
-399251
-2.66639e+06
-854188
-1.9514e+06
-762962
-1.4563e+06
-453763
-209510
-1.32551e+06
-348654
-1.34096e+06
-437937
-1.22426e+06
-530119
-990534
-450124
-266930
-445029
-287822
-550162
-225344
-740192
-209673
-803870
-219114
-194394
-345578
-365656
-373558
-415330
)
;

boundaryField
{
    inlet
    {
        type            fixedValue;
        value           nonuniform 0();
    }
    outlet
    {
        type            calculated;
        value           nonuniform 0();
    }
    bottom
    {
        type            fixedValue;
        value           nonuniform 0();
    }
    top
    {
        type            symmetryPlane;
        value           nonuniform List<scalar> 
20
(
-3.75734e-16
-1.12344e-16
-7.8157e-17
-2.97186e-16
-6.09629e-16
-2.61142e-16
-1.16438e-16
-1.44828e-16
-2.10269e-16
-3.30989e-16
-2.90363e-16
-1.56772e-16
-2.00651e-16
-2.14243e-16
-4.30218e-16
-1.468e-16
-1.68069e-16
-1.69739e-16
-4.48151e-16
-3.96117e-16
)
;
    }
    side1
    {
        type            symmetryPlane;
        value           nonuniform 0();
    }
    side2
    {
        type            symmetryPlane;
        value           nonuniform 0();
    }
    procBoundary83to19
    {
        type            processor;
        value           nonuniform List<scalar> 
20
(
-188501
-303308
-234181
-117730
-206360
-143978
-383818
-285721
-176246
-205440
-203659
-156016
-207768
-271091
-313676
-301779
-163523
-167514
-129810
-129046
)
;
    }
    procBoundary83to67
    {
        type            processor;
        value           nonuniform List<scalar> 10(20159.6 76759.3 72719.3 8037.99 55338.6 192752 717726 426240 181200 52818.7);
    }
    procBoundary83to82
    {
        type            processor;
        value           nonuniform List<scalar> 8(664202 665035 863149 881261 3.97566e+06 1.4058e+06 513192 409208);
    }
    procBoundary83to84
    {
        type            processor;
        value           nonuniform List<scalar> 8(-609902 -1.06021e+06 -492388 -355439 -1.07513e+06 -703918 -696819 -450848);
    }
    procBoundary83to99
    {
        type            processor;
        value           nonuniform List<scalar> 10(-433856 -94549.2 -55363.8 -56121 -92067 -209667 -158487 -140025 -112452 -94848.9);
    }
}


// ************************************************************************* //
