/*--------------------------------*- C++ -*----------------------------------*\
| =========                 |                                                 |
| \\      /  F ield         | OpenFOAM: The Open Source CFD Toolbox           |
|  \\    /   O peration     | Version:  2.4.0                                 |
|   \\  /    A nd           | Web:      www.OpenFOAM.org                      |
|    \\/     M anipulation  |                                                 |
\*---------------------------------------------------------------------------*/
FoamFile
{
    version     2.0;
    format      ascii;
    class       volVectorField;
    location    "0.01";
    object      Ur;
}
// * * * * * * * * * * * * * * * * * * * * * * * * * * * * * * * * * * * * * //

dimensions      [0 1 -1 0 0 0 0];

internalField   nonuniform List<vector> 
40
(
(5.50234e+10 1.08693e+09 -8.09967e+10)
(3.60607e+10 -6.7298e+09 -4.81583e+10)
(3.27251e+10 1.77241e+09 -3.37538e+10)
(2.05488e+10 -8.49362e+09 -3.15747e+10)
(1.81485e+10 -1.14019e+10 -2.76651e+10)
(5.17511e+10 2.37631e+08 -4.3623e+10)
(4.15219e+10 -5.71577e+09 -4.70496e+10)
(3.84977e+10 9.393e+08 -4.42529e+10)
(3.70972e+10 -8.85003e+09 -4.40204e+10)
(3.60472e+10 -1.27912e+10 -5.08415e+10)
(6.8478e+10 -4.79996e+09 -2.57168e+10)
(7.30301e+10 -1.20937e+10 -4.18314e+10)
(5.60234e+10 -7.89292e+09 -3.97053e+10)
(4.87937e+10 -1.37861e+10 -3.59528e+10)
(3.83827e+10 -8.54927e+09 -2.65259e+10)
(7.30992e+10 -1.57019e+10 -2.24622e+10)
(6.45619e+10 -1.64112e+10 -3.05409e+10)
(5.22343e+10 -7.05574e+09 -2.79955e+10)
(5.07939e+10 -1.14505e+10 -3.04278e+10)
(4.79516e+10 -7.56244e+09 -2.18517e+10)
(9.29615e+10 2.63154e+10 -2.52212e+10)
(7.46454e+10 1.97212e+10 -2.01885e+10)
(6.40355e+10 1.67892e+10 -1.43691e+10)
(5.8973e+10 8.83094e+09 -1.24549e+10)
(3.74792e+10 -4.25136e+09 -5.86381e+09)
(6.2839e+10 1.66329e+10 -1.27554e+10)
(6.45071e+10 1.99602e+10 -1.41977e+10)
(5.10348e+10 1.65129e+10 -1.41312e+10)
(4.90141e+10 1.33872e+10 -1.5632e+10)
(3.52595e+10 3.08886e+09 -1.1668e+10)
(5.56802e+10 6.52505e+09 -7.92734e+09)
(5.82867e+10 1.51901e+10 -1.5987e+10)
(5.365e+10 1.25103e+10 -1.51343e+10)
(5.03321e+10 4.48696e+09 -1.0757e+10)
(4.98009e+10 3.01393e+09 -1.01637e+10)
(6.08363e+10 -2.02515e+07 -7.4578e+09)
(6.02509e+10 -1.8829e+09 -6.73122e+09)
(6.04314e+10 3.63231e+08 -5.42486e+09)
(5.92967e+10 -2.03228e+09 -9.87816e+09)
(5.04507e+10 -4.57859e+07 -9.07757e+09)
)
;

boundaryField
{
    inlet
    {
        type            calculated;
        value           nonuniform 0();
    }
    outlet
    {
        type            calculated;
        value           nonuniform 0();
    }
    bottom
    {
        type            calculated;
        value           nonuniform 0();
    }
    top
    {
        type            symmetryPlane;
    }
    side1
    {
        type            symmetryPlane;
    }
    side2
    {
        type            symmetryPlane;
    }
    procBoundary101to37
    {
        type            processor;
        value           nonuniform List<vector> 
20
(
(9.1966e+09 -1.73824e+10 -8.8884e+10)
(7.80084e+09 -1.46201e+10 -5.21158e+10)
(1.41326e+10 -1.25292e+10 -3.94072e+10)
(1.60065e+10 -2.11447e+10 -4.57926e+10)
(1.37668e+10 -2.25677e+10 -4.31233e+10)
(1.53651e+10 -1.92025e+10 -6.65515e+10)
(2.30995e+10 -1.89731e+10 -7.60687e+10)
(1.52018e+10 -2.34142e+10 -5.90471e+10)
(2.00301e+10 -2.41043e+10 -4.89307e+10)
(1.75054e+10 -2.10798e+10 -5.4507e+10)
(1.79382e+10 -2.11934e+10 -3.59525e+10)
(2.03052e+10 -3.12227e+10 -5.04699e+10)
(2.60917e+10 -3.10118e+10 -5.83064e+10)
(2.12522e+10 -2.30228e+10 -5.31951e+10)
(1.61926e+10 -2.23826e+10 -4.87077e+10)
(3.75255e+10 -1.7477e+10 -2.71222e+10)
(3.9911e+10 -3.28827e+10 -4.93862e+10)
(3.54891e+10 -3.9978e+10 -5.67608e+10)
(2.69416e+10 -2.53346e+10 -5.11944e+10)
(1.9949e+10 -2.31145e+10 -3.47031e+10)
)
;
    }
    procBoundary101to85
    {
        type            processor;
        value           nonuniform List<vector> 10((3.89693e+10 1.19178e+09 -4.16861e+10) (4.59488e+10 -1.70701e+10 -6.54504e+10) (3.04773e+10 -1.14655e+10 -3.61223e+10) (2.47349e+10 -1.04797e+10 -2.37349e+10) (1.85377e+10 -6.4807e+09 -1.76068e+10) (1.16025e+11 3.7163e+10 -1.91164e+10) (8.01487e+10 9.02901e+09 -2.56642e+10) (7.27432e+10 5.70339e+09 -2.69606e+10) (4.36613e+10 -1.00283e+10 -9.97943e+09) (3.68493e+10 -8.01254e+09 -5.82996e+09));
    }
    procBoundary101to100
    {
        type            processor;
        value           nonuniform List<vector> 8((5.99599e+10 1.16309e+10 -9.09915e+10) (5.8438e+10 1.80099e+09 -5.60308e+10) (7.05162e+10 -1.43655e+09 -3.91068e+10) (7.11918e+10 -1.00512e+10 -3.92595e+10) (9.99786e+10 3.01443e+10 -2.8656e+10) (7.33825e+10 2.40033e+10 -2.14973e+10) (5.37222e+10 9.3841e+09 -1.3606e+10) (7.19407e+10 5.23066e+09 -1.77228e+10));
    }
    procBoundary101to102
    {
        type            processor;
        value           nonuniform List<vector> 8((1.34952e+10 -1.54417e+10 -1.58514e+10) (1.95381e+10 -1.05174e+10 -1.56914e+10) (4.07086e+10 -6.94361e+09 -1.49857e+10) (4.7291e+10 -1.24225e+10 -1.98451e+10) (3.44764e+10 -4.35668e+09 -3.54764e+09) (2.99883e+10 -3.52143e+09 -5.18792e+09) (4.06663e+10 -2.13039e+09 -6.48247e+09) (4.54859e+10 8.05867e+08 -7.13433e+09));
    }
    procBoundary101to117
    {
        type            processor;
        value           nonuniform List<vector> 10((6.8104e+10 -1.26651e+09 -2.00251e+10) (5.30748e+10 -4.5119e+09 -2.09947e+10) (4.46528e+10 -1.20552e+10 -2.00501e+10) (4.29548e+10 -1.74593e+10 -1.86742e+10) (3.90761e+10 -1.02382e+10 -1.11065e+10) (5.1904e+10 2.23755e+09 -3.49918e+09) (4.56187e+10 -1.05385e+09 -3.22517e+09) (4.07847e+10 -3.05821e+09 -4.18712e+09) (3.72997e+10 -5.98152e+09 -4.42559e+09) (4.21535e+10 -3.93424e+09 -3.17873e+09));
    }
}


// ************************************************************************* //
