/*--------------------------------*- C++ -*----------------------------------*\
| =========                 |                                                 |
| \\      /  F ield         | OpenFOAM: The Open Source CFD Toolbox           |
|  \\    /   O peration     | Version:  2.4.0                                 |
|   \\  /    A nd           | Web:      www.OpenFOAM.org                      |
|    \\/     M anipulation  |                                                 |
\*---------------------------------------------------------------------------*/
FoamFile
{
    version     2.0;
    format      ascii;
    class       volScalarField;
    location    "0.11";
    object      p;
}
// * * * * * * * * * * * * * * * * * * * * * * * * * * * * * * * * * * * * * //

dimensions      [1 -1 -2 0 0 0 0];

internalField   nonuniform List<scalar> 
200
(
4.29346e+16
4.02615e+16
4.21652e+16
4.11572e+16
4.41035e+16
4.41319e+16
4.53921e+16
4.61494e+16
4.30521e+16
4.31172e+16
4.02344e+16
3.9815e+16
3.77064e+16
4.09773e+16
4.12004e+16
4.35698e+16
4.35647e+16
4.04691e+16
3.3993e+16
1.20618e+16
4.06825e+16
3.91792e+16
3.97343e+16
3.9804e+16
4.2738e+16
4.49591e+16
4.61395e+16
4.34696e+16
3.5757e+16
1.85408e+16
4.13182e+16
4.17399e+16
4.15455e+16
4.35e+16
4.51948e+16
4.7439e+16
4.90642e+16
5.01641e+16
4.78194e+16
4.2184e+16
3.91504e+16
3.82286e+16
3.64074e+16
3.91215e+16
3.96294e+16
4.23368e+16
4.42148e+16
4.71175e+16
5.18891e+16
5.41721e+16
4.0189e+16
3.75378e+16
3.70787e+16
3.65956e+16
4.00175e+16
4.13552e+16
4.22602e+16
4.38446e+16
4.34808e+16
4.84107e+16
4.02618e+16
3.9645e+16
3.80824e+16
3.93781e+16
4.03084e+16
4.20751e+16
4.28013e+16
4.21127e+16
3.90943e+16
2.83878e+16
4.19491e+16
4.10076e+16
4.1482e+16
4.12983e+16
4.2823e+16
4.3564e+16
4.422e+16
4.28884e+16
3.82744e+16
3.23867e+16
4.01058e+16
3.83353e+16
3.76134e+16
3.66901e+16
3.77903e+16
3.83841e+16
3.97079e+16
4.11421e+16
4.3655e+16
4.64309e+16
3.91253e+16
3.84222e+16
3.65199e+16
3.72034e+16
3.70016e+16
3.80982e+16
3.81558e+16
3.89632e+16
3.88167e+16
3.5337e+16
4.01758e+16
3.87012e+16
3.82498e+16
3.70877e+16
3.75812e+16
3.71101e+16
3.70815e+16
3.54245e+16
3.12524e+16
2.40284e+16
4.01934e+16
3.94388e+16
3.84372e+16
3.78767e+16
3.69021e+16
3.61468e+16
3.43413e+16
3.15747e+16
2.56783e+16
1.37564e+16
3.95921e+16
3.86026e+16
3.70347e+16
3.63083e+16
3.53456e+16
3.4842e+16
3.39745e+16
3.33372e+16
3.18678e+16
3.01886e+16
3.9215e+16
3.80208e+16
3.69565e+16
3.56511e+16
3.48038e+16
3.35041e+16
3.22187e+16
3.05115e+16
2.81847e+16
2.47977e+16
3.88499e+16
3.78121e+16
3.65586e+16
3.53946e+16
3.39048e+16
3.2461e+16
3.0549e+16
2.82822e+16
2.50936e+16
1.96652e+16
3.83268e+16
3.7118e+16
3.57786e+16
3.43059e+16
3.2643e+16
3.07277e+16
2.84504e+16
2.53368e+16
2.10851e+16
1.33422e+16
3.90152e+16
3.78224e+16
3.65351e+16
3.5279e+16
3.41615e+16
3.29445e+16
3.1896e+16
3.05907e+16
2.93337e+16
2.74534e+16
3.86836e+16
3.75274e+16
3.62431e+16
3.49076e+16
3.3476e+16
3.20202e+16
3.03268e+16
2.84817e+16
2.60131e+16
2.35312e+16
3.82189e+16
3.70522e+16
3.57858e+16
3.42215e+16
3.26097e+16
3.06916e+16
2.87378e+16
2.64165e+16
2.36226e+16
2.03742e+16
3.75768e+16
3.64217e+16
3.48519e+16
3.32064e+16
3.11686e+16
2.91355e+16
2.65821e+16
2.40467e+16
2.06164e+16
1.70421e+16
)
;

boundaryField
{
    inlet
    {
        type            zeroGradient;
    }
    outlet
    {
        type            fixedValue;
        value           nonuniform 0();
    }
    bottom
    {
        type            zeroGradient;
    }
    top
    {
        type            symmetryPlane;
    }
    side1
    {
        type            symmetryPlane;
    }
    side2
    {
        type            symmetryPlane;
    }
    procBoundary3to2
    {
        type            processor;
        value           nonuniform List<scalar> 
20
(
4.32574e+16
4.31941e+16
4.10429e+16
4.20679e+16
4.16076e+16
4.09716e+16
4.18068e+16
4.20922e+16
4.07855e+16
4.06594e+16
4.08389e+16
4.12239e+16
4.04818e+16
4.00865e+16
3.9866e+16
3.92313e+16
4.01882e+16
3.96751e+16
3.91503e+16
3.85951e+16
)
;
    }
    procBoundary3to4
    {
        type            processor;
        value           nonuniform List<scalar> 
20
(
3.19914e+16
5.28293e+15
1.71022e+15
4.17728e+16
6.60933e+16
2.09333e+16
2.07079e+16
1.76141e+16
4.40666e+16
3.23779e+16
4.24294e+15
2.07384e+15
2.58935e+16
1.9606e+16
1.35397e+16
5.15185e+15
2.6538e+16
1.9191e+16
1.74877e+16
1.36195e+16
)
;
    }
    procBoundary3to11
    {
        type            processor;
        value           nonuniform List<scalar> 
50
(
4.38857e+16
4.43931e+16
4.54992e+16
4.66542e+16
4.81687e+16
4.95444e+16
5.0047e+16
5.08862e+16
4.7642e+16
5.64391e+16
4.30578e+16
4.32524e+16
4.35367e+16
4.39984e+16
4.45119e+16
4.46626e+16
4.35228e+16
3.85706e+16
3.78455e+16
2.82479e+16
4.02459e+16
3.95061e+16
3.88098e+16
3.78436e+16
3.66563e+16
3.49291e+16
3.20071e+16
2.70217e+16
1.82641e+16
1.00767e+16
3.7549e+16
3.61741e+16
3.47921e+16
3.29679e+16
3.11212e+16
2.86314e+16
2.556e+16
2.14229e+16
1.51471e+16
7.38848e+15
3.68173e+16
3.53593e+16
3.35763e+16
3.16742e+16
2.9436e+16
2.7023e+16
2.43635e+16
2.1131e+16
1.76543e+16
1.32549e+16
)
;
    }
}


// ************************************************************************* //
