/*--------------------------------*- C++ -*----------------------------------*\
| =========                 |                                                 |
| \\      /  F ield         | OpenFOAM: The Open Source CFD Toolbox           |
|  \\    /   O peration     | Version:  2.4.0                                 |
|   \\  /    A nd           | Web:      www.OpenFOAM.org                      |
|    \\/     M anipulation  |                                                 |
\*---------------------------------------------------------------------------*/
FoamFile
{
    version     2.0;
    format      ascii;
    class       volScalarField;
    location    "0.12";
    object      nut;
}
// * * * * * * * * * * * * * * * * * * * * * * * * * * * * * * * * * * * * * //

dimensions      [0 2 -1 0 0 0 0];

internalField   nonuniform List<scalar> 
200
(
222840
159266
86634.7
178853
104711
209663
239884
359895
208842
451475
84792.9
252269
98358
113756
191996
205396
244921
233553
277749
182769
323129
266573
229267
89443.1
170874
227082
193107
223231
246098
265602
377308
232530
150755
223519
115130
233764
172243
226467
219472
259553
74284.3
68591.9
78806.7
46937
160313
330647
317800
316887
379143
618328
91981.8
49665.9
91591.9
134952
293582
191576
225813
216297
491118
642838
123109
117240
49310.6
175690
265621
189007
185474
137571
277410
88815.3
184632
86871.8
138363
120328
246969
220378
112790
94160.4
137335
416975
102293
121385
124034
181271
232308
142000
165332
105553
203707
216470
47151.4
128649
86452.8
82875.3
45320.1
123119
130943
87605.6
259384
129359
107882
52524.5
136112
60833.6
29300.9
124892
188216
153618
125039
283952
73860.3
127284
82966.3
135353
82445.7
215030
180595
138613
143635
242658
145296
119602
136522
132160
219454
91395.1
289104
146162
457144
224200
207914
179482
28457.8
96161.2
122778
17194.4
152418
224063
97409
199331
165319
139893
55981.3
75766.4
95668.4
15126.2
69931.6
228983
130965
95080.1
118405
197894
68515.7
55166
94061.6
61338.5
75429.7
168547
157715
120083
649176
273131
88077.5
111252
77118.4
35620.2
162016
848908
406311
625944
660686
773374
198723
111083
176270
219627
11812.3
623915
1.03973e+06
180867
315809
280515
211815
67419.4
57065.5
70001.4
230698
242460
362193
705875
567502
83380
167208
35530.1
105954
92113
125535
159385
223779
111511
)
;

boundaryField
{
    inlet
    {
        type            calculated;
        value           nonuniform 0();
    }
    outlet
    {
        type            calculated;
        value           nonuniform 0();
    }
    bottom
    {
        type            calculated;
        value           nonuniform List<scalar> 
40
(
1.69379e-19
5.09254e-20
8.36109e-19
2.47686e-19
2.61344e-19
2.23929e-19
1.79831e-19
5.57218e-19
8.20586e-20
1.73069e-19
2.18562e-19
1.2054e-19
2.26668e-19
9.21905e-20
1.4139e-19
2.62575e-19
1.0451e-19
2.20486e-19
1.50386e-19
1.47441e-19
2.25006e-19
1.64056e-19
2.33329e-19
2.20271e-19
2.58848e-19
2.61813e-19
2.09343e-19
2.01923e-19
3.52787e-19
2.48669e-19
2.57516e-19
2.44536e-19
2.69417e-19
3.17114e-19
2.83807e-19
2.62329e-19
3.90746e-19
3.46796e-19
3.10012e-19
2.9939e-19
)
;
    }
    top
    {
        type            symmetryPlane;
    }
    side1
    {
        type            symmetryPlane;
    }
    side2
    {
        type            symmetryPlane;
    }
    procBoundary17to9
    {
        type            processor;
        value           nonuniform List<scalar> 
50
(
153002
122625
167728
80674.9
177495
203575
411044
291910
230845
259439
159124
56354.9
10706.4
134257
44557.6
351895
177599
495884
137674
98024.7
107468
112760
203745
264328
417242
232972
174442
265573
128413
156522
81621.3
55659.9
66311.4
321067
77199.6
172777
150998
455362
78846.2
152145
24308.4
35713.2
59337.6
63994.1
169259
47078.8
412739
214758
363984
343234
)
;
    }
    procBoundary17to16
    {
        type            processor;
        value           nonuniform List<scalar> 
20
(
121936
155626
411129
398649
162902
67466.3
182453
224677
21912
77161.8
45068.2
66894.4
120032
96507.5
103784
77764.6
278829
535658
576935
127057
)
;
    }
    procBoundary17to18
    {
        type            processor;
        value           nonuniform List<scalar> 
20
(
247968
181926
387547
242643
441167
301866
1.33676e+06
716922
150862
204182
209138
191932
392515
207127
120623
91980.2
404642
600316
92548.6
54329.4
)
;
    }
    procBoundary17to25
    {
        type            processor;
        value           nonuniform List<scalar> 
50
(
233254
218252
181785
123478
213382
153753
217906
190670
270809
307842
141102
162254
141395
162835
165108
261941
105692
132639
409558
524595
122288
132390
191677
168559
121649
130800
156099
109086
156502
170730
50598.6
192702
122833
125501
118280
80843.4
69577.7
130019
155491
133729
282421
122306
146830
101986
199771
213727
115326
119614
140841
140455
)
;
    }
}


// ************************************************************************* //
