/*--------------------------------*- C++ -*----------------------------------*\
| =========                 |                                                 |
| \\      /  F ield         | OpenFOAM: The Open Source CFD Toolbox           |
|  \\    /   O peration     | Version:  2.4.0                                 |
|   \\  /    A nd           | Web:      www.OpenFOAM.org                      |
|    \\/     M anipulation  |                                                 |
\*---------------------------------------------------------------------------*/
FoamFile
{
    version     2.0;
    format      ascii;
    class       volVectorField;
    location    "0.12";
    object      Ub;
}
// * * * * * * * * * * * * * * * * * * * * * * * * * * * * * * * * * * * * * //

dimensions      [0 1 -1 0 0 0 0];

internalField   nonuniform List<vector> 
200
(
(-1.27949e+08 3.35111e+09 1.08668e+09)
(-1.23136e+09 8.16792e+09 -6.11394e+08)
(4.09225e+08 3.68741e+09 4.31873e+08)
(-3.70665e+08 6.29789e+09 -6.52159e+08)
(2.95516e+08 4.26196e+09 -3.10244e+08)
(-7.24144e+07 6.12664e+09 -7.65524e+08)
(2.30576e+08 8.33077e+09 -5.42298e+08)
(1.24575e+09 1.0199e+10 2.3352e+08)
(9.11138e+08 1.07024e+10 -1.23805e+08)
(9.64504e+08 9.67777e+09 3.33031e+08)
(-1.42679e+09 3.20761e+09 1.49237e+09)
(-1.96066e+07 3.17062e+09 -4.74781e+08)
(-3.04236e+08 6.37347e+09 -6.26e+08)
(8.33391e+08 3.29666e+09 1.08085e+08)
(9.37646e+07 6.41914e+09 -7.06695e+08)
(6.23094e+08 5.81846e+09 -5.30676e+08)
(5.44497e+08 7.50064e+09 -9.60882e+08)
(1.33391e+09 7.80469e+09 -5.72575e+08)
(2.15262e+09 9.66786e+09 -3.89237e+08)
(2.17601e+09 1.13494e+10 -2.35235e+08)
(-1.56819e+09 4.81189e+09 -1.10116e+10)
(2.53399e+08 2.89203e+09 4.68356e+08)
(4.93703e+08 3.12053e+09 -9.83236e+08)
(5.88346e+08 5.76446e+09 -5.45282e+08)
(1.246e+09 4.44098e+09 -2.68994e+08)
(1.07872e+09 7.16059e+09 -7.52708e+08)
(1.66433e+09 6.35239e+09 -6.92841e+08)
(2.01153e+09 7.22354e+09 -7.26024e+08)
(2.44567e+09 8.56199e+09 -1.87064e+08)
(2.98591e+09 9.76452e+09 5.18978e+08)
(9.56646e+08 7.44141e+08 1.12482e+09)
(-6.58388e+08 3.8707e+09 -7.12822e+09)
(1.64575e+09 2.82417e+09 3.84237e+08)
(1.02419e+09 3.87116e+09 -1.9841e+09)
(1.98178e+09 5.70252e+09 -2.40822e+08)
(2.32481e+09 5.19204e+09 -7.00148e+08)
(2.87898e+09 6.41185e+09 -4.30215e+08)
(3.64372e+09 5.87644e+09 -7.56013e+08)
(4.25671e+09 7.7903e+09 -3.83189e+07)
(4.95348e+09 7.79201e+09 -3.11045e+08)
(6.56598e+08 4.51548e+09 2.52025e+08)
(9.57398e+08 5.82651e+09 -4.28565e+08)
(1.03958e+09 6.59631e+09 -3.15824e+08)
(1.04796e+09 7.20098e+09 -4.4343e+08)
(1.70582e+09 8.67009e+09 -1.00308e+09)
(3.34138e+08 9.39749e+09 -1.17442e+08)
(-8.56411e+08 1.83536e+10 4.17726e+09)
(3.53717e+09 1.75592e+10 1.53067e+09)
(-5.04905e+09 1.9628e+10 4.47651e+09)
(7.91057e+08 2.21472e+10 3.43042e+09)
(1.09249e+09 4.94685e+09 3.28103e+07)
(1.03119e+09 5.11223e+09 6.37494e+08)
(1.74197e+09 5.60764e+09 -4.525e+08)
(1.99092e+09 7.91125e+09 -5.33404e+08)
(2.14795e+09 9.02601e+09 -6.51985e+08)
(4.37553e+08 1.61652e+10 -1.30702e+09)
(1.38274e+09 1.45801e+10 3.34839e+08)
(1.9395e+09 1.47699e+10 6.85466e+08)
(5.62801e+09 1.49953e+10 2.01812e+09)
(6.04332e+09 -2.89266e+09 2.41343e+08)
(1.47653e+09 3.5083e+09 8.89168e+08)
(1.44032e+09 4.35752e+09 -5.84755e+08)
(1.63324e+09 5.39855e+09 1.14106e+08)
(2.32296e+09 6.44309e+09 -3.8114e+08)
(2.68233e+09 1.0637e+10 -1.55622e+08)
(3.34728e+09 1.51691e+10 5.27476e+08)
(3.77349e+09 1.23593e+10 3.0735e+08)
(4.18643e+09 1.04272e+10 4.04128e+08)
(6.22861e+09 9.25198e+09 -4.78048e+07)
(4.90627e+09 9.16882e+09 -1.3411e+08)
(7.91101e+08 4.12443e+09 -3.47158e+09)
(1.29009e+09 3.0419e+09 1.14638e+08)
(8.17136e+08 4.92086e+09 -1.97099e+09)
(1.6734e+09 5.47397e+09 -1.47695e+08)
(2.67096e+09 8.13383e+09 -2.24611e+08)
(4.12535e+09 1.17497e+10 -9.89951e+07)
(5.38757e+09 9.66727e+09 -1.11513e+08)
(5.50575e+09 9.83877e+09 -2.17951e+08)
(5.99131e+09 7.15248e+09 -6.70462e+08)
(5.66101e+09 1.10707e+10 5.46987e+08)
(6.09938e+08 4.61402e+09 3.04621e+08)
(5.48385e+08 5.12957e+09 3.63588e+08)
(8.56478e+08 6.26225e+09 2.73606e+08)
(8.31719e+08 7.51935e+09 1.87121e+07)
(1.81426e+09 7.5153e+09 -1.83107e+08)
(2.36379e+09 7.82876e+09 -5.42468e+08)
(3.48475e+09 6.42778e+09 2.5839e+08)
(2.49905e+09 7.99908e+09 -1.12854e+09)
(3.11719e+09 7.96295e+09 -1.42896e+08)
(3.24721e+09 1.09247e+10 9.17012e+08)
(1.7076e+09 2.65258e+09 -2.24196e+07)
(2.02033e+09 4.82828e+09 1.0071e+08)
(2.08331e+09 4.99282e+09 -2.22939e+08)
(2.40319e+09 6.49996e+09 -4.97063e+08)
(2.42092e+09 6.25326e+09 -5.26631e+08)
(2.9534e+09 6.82072e+09 -5.96624e+08)
(3.06562e+09 6.29357e+09 -2.24166e+08)
(2.9104e+09 1.01329e+10 5.1794e+08)
(3.49178e+09 9.66786e+09 7.38349e+08)
(1.34108e+09 1.45804e+10 5.46148e+09)
(2.68617e+09 4.08912e+09 2.00972e+08)
(2.62627e+09 3.03925e+09 -3.66631e+08)
(3.05819e+09 5.19238e+09 -3.69808e+08)
(2.89272e+09 6.20608e+09 -6.00624e+08)
(2.99056e+09 6.30149e+09 -5.44959e+08)
(3.41565e+09 5.47402e+09 -3.7071e+08)
(3.24237e+09 7.11707e+09 2.18514e+08)
(2.65962e+09 1.11293e+10 1.52256e+09)
(3.67548e+09 1.07371e+10 9.25379e+08)
(4.02215e+09 1.37721e+10 -4.33474e+08)
(2.87545e+09 1.04154e+09 -7.74424e+08)
(3.08922e+09 4.25448e+09 -8.89779e+08)
(3.53605e+09 4.10952e+09 -1.15084e+09)
(3.86248e+09 6.94528e+09 -1.65094e+09)
(4.78437e+09 6.89453e+09 -2.70017e+08)
(5.51293e+09 5.61633e+09 3.03734e+08)
(3.87073e+09 1.09855e+10 1.09025e+09)
(4.80432e+09 9.51158e+09 4.82994e+08)
(6.79792e+09 1.00261e+10 1.83337e+08)
(7.64242e+09 7.06374e+09 -2.13713e+09)
(1.29095e+09 6.06578e+09 7.17974e+08)
(1.60348e+09 7.69948e+09 7.93197e+08)
(4.91303e+08 7.72365e+09 1.10977e+09)
(-1.27387e+08 8.94491e+09 1.85777e+09)
(8.16214e+08 1.08985e+10 1.5465e+09)
(2.09263e+09 7.05137e+09 9.15761e+08)
(2.75162e+09 5.70195e+09 -4.09382e+07)
(-3.75962e+07 8.78652e+09 6.78832e+09)
(2.62012e+09 1.00036e+10 1.29906e+09)
(4.02871e+09 1.2248e+10 1.30653e+09)
(3.36473e+09 4.61347e+09 -4.23539e+08)
(2.28789e+09 8.15961e+09 1.46269e+09)
(2.42939e+09 9.26606e+09 8.44086e+08)
(3.03514e+09 7.83001e+09 -5.96608e+07)
(3.37858e+09 8.2525e+09 -2.44923e+08)
(3.67283e+09 6.69484e+09 -5.36122e+08)
(4.06548e+09 6.52929e+09 6.94142e+07)
(3.53378e+09 9.73907e+09 -6.22498e+08)
(4.72487e+09 9.85717e+09 -6.509e+08)
(4.29677e+09 1.1404e+10 -3.52702e+08)
(2.73e+09 4.48569e+09 -5.10628e+08)
(2.64671e+09 8.66406e+09 -7.8384e+07)
(3.30267e+09 8.09891e+09 -7.40514e+08)
(3.88318e+09 6.65264e+09 -9.60187e+08)
(4.22149e+09 7.2234e+09 -8.89199e+08)
(4.43727e+09 7.24585e+09 -7.13554e+08)
(4.88557e+09 6.34444e+09 -8.68276e+08)
(4.90415e+09 8.96927e+09 -8.46113e+08)
(5.29094e+09 1.13309e+10 -1.36001e+09)
(6.29006e+09 1.18471e+10 -1.37456e+09)
(3.55834e+09 4.93838e+09 3.06269e+08)
(3.79206e+09 7.041e+09 -7.19723e+08)
(4.46522e+09 7.67911e+09 -1.41042e+09)
(4.81675e+09 5.52936e+09 -1.50208e+09)
(5.15313e+09 5.70318e+09 -1.40291e+09)
(5.5797e+09 6.39513e+09 -8.82042e+08)
(5.76918e+09 6.31477e+09 -6.67099e+08)
(5.61328e+09 7.58026e+09 -6.15858e+08)
(7.18177e+09 9.86384e+09 -1.00872e+09)
(7.8705e+09 9.46234e+09 -2.4334e+08)
(4.81546e+09 8.59142e+09 -1.12717e+09)
(1.64434e+09 7.74193e+09 4.39752e+07)
(6.69569e+08 7.40847e+09 4.81151e+08)
(7.11467e+08 6.82447e+09 1.28593e+09)
(2.06106e+09 4.02773e+09 8.66948e+08)
(1.7207e+09 6.99702e+09 -2.01983e+08)
(1.89651e+09 4.66869e+09 4.96402e+07)
(2.31536e+09 1.15636e+10 -5.01005e+06)
(7.26893e+09 2.71111e+10 -1.00742e+10)
(-4.92053e+09 9.0874e+09 1.16327e+09)
(6.51365e+09 -1.14857e+10 1.36236e+09)
(-7.07905e+08 1.48451e+10 2.09821e+09)
(2.73083e+09 8.56941e+09 6.67118e+08)
(3.26424e+09 4.74423e+09 1.01069e+08)
(2.58599e+09 8.24652e+09 1.34899e+08)
(7.75837e+08 6.88002e+09 -2.70641e+07)
(1.25905e+09 4.40567e+09 -2.55239e+09)
(1.79786e+09 6.26091e+09 -5.68578e+08)
(-1.99057e+09 2.09434e+10 -4.62884e+08)
(7.66222e+08 3.21296e+10 1.62468e+09)
(-4.5961e+08 1.92043e+10 2.88816e+09)
(3.80746e+09 1.1452e+10 6.87569e+07)
(4.17346e+09 8.04343e+09 -1.01642e+08)
(3.24779e+09 5.00064e+09 -2.7631e+08)
(2.92469e+09 7.56771e+09 -1.6053e+08)
(3.80692e+09 5.47506e+09 -3.46927e+08)
(2.7219e+09 7.5824e+09 2.55821e+08)
(2.12533e+09 1.11745e+10 7.95061e+07)
(1.83213e+09 1.39858e+10 -1.72789e+09)
(6.51718e+09 1.06178e+10 -8.81373e+08)
(3.50917e+09 9.29238e+09 6.05455e+08)
(5.18827e+09 9.80405e+09 -3.47261e+08)
(5.01797e+09 6.64726e+09 -5.51037e+08)
(3.9449e+09 7.47311e+09 1.21989e+08)
(4.75486e+09 6.89753e+09 -3.19826e+08)
(4.68692e+09 6.35863e+09 -5.97303e+07)
(4.17713e+09 8.77314e+09 3.59926e+07)
(4.95844e+09 9.22843e+09 -4.42433e+08)
(6.36815e+09 9.09383e+09 -6.92698e+08)
(7.73551e+09 9.33636e+09 5.12339e+07)
)
;

boundaryField
{
    inlet
    {
        type            fixedValue;
        value           nonuniform 0();
    }
    outlet
    {
        type            zeroGradient;
    }
    bottom
    {
        type            fixedValue;
        value           uniform (0 0 0);
    }
    top
    {
        type            symmetryPlane;
    }
    side1
    {
        type            symmetryPlane;
    }
    side2
    {
        type            symmetryPlane;
    }
    procBoundary17to9
    {
        type            processor;
        value           nonuniform List<vector> 
50
(
(-1.17286e+08 3.41153e+09 3.42761e+08)
(-6.6386e+08 4.87387e+09 -9.50003e+07)
(-8.01306e+08 6.501e+09 -3.26797e+08)
(-3.04868e+08 4.62916e+09 -1.32788e+08)
(-4.41167e+08 5.16195e+09 -1.9011e+08)
(-3.68493e+08 5.76867e+09 -2.5255e+08)
(-4.13464e+08 1.02882e+10 1.59808e+09)
(-1.63605e+09 1.32654e+10 9.26898e+07)
(-2.34178e+09 7.51347e+09 1.65808e+09)
(-3.25718e+09 1.00539e+10 -1.50049e+07)
(1.49819e+08 5.78227e+09 -2.34185e+08)
(6.4031e+08 6.02576e+09 -4.06302e+08)
(4.42334e+08 6.40828e+09 -1.0989e+08)
(7.14757e+08 6.20757e+09 -6.35554e+08)
(3.30416e+08 1.05778e+10 -1.0976e+08)
(1.80844e+09 6.64903e+09 3.26208e+08)
(-2.21293e+09 1.89245e+10 2.63884e+09)
(1.47462e+09 1.23395e+10 1.05989e+08)
(-8.0865e+09 7.32094e+09 -3.53033e+09)
(6.88106e+08 1.27803e+10 9.17441e+08)
(-5.34958e+08 4.19078e+09 4.83323e+08)
(-1.5106e+09 6.63048e+09 9.11125e+08)
(-8.05271e+08 6.47409e+09 6.19316e+08)
(-2.01375e+09 1.12213e+10 2.24776e+09)
(-5.42855e+08 1.36658e+10 1.72244e+09)
(3.4388e+08 1.12291e+10 1.58284e+09)
(1.82178e+09 5.99128e+09 -6.46548e+08)
(-5.17963e+06 9.59548e+09 7.07067e+08)
(4.20566e+08 8.97866e+09 -1.48887e+09)
(1.09927e+09 8.91956e+09 -7.43119e+08)
(-4.18099e+08 5.9011e+09 8.46909e+08)
(-3.75352e+08 7.12053e+09 9.48403e+08)
(-5.17133e+08 6.13453e+09 1.38939e+09)
(-5.57483e+07 8.0376e+09 2.31427e+09)
(-1.68103e+09 1.43954e+10 5.16849e+09)
(1.05723e+09 6.21605e+09 1.13979e+09)
(8.23004e+08 6.39458e+09 1.45761e+09)
(1.18097e+09 8.36525e+09 7.59297e+08)
(9.4569e+08 1.56802e+10 -3.09731e+09)
(7.74568e+08 1.00794e+10 -8.09506e+07)
(1.16909e+09 6.55676e+09 2.47031e+08)
(1.32698e+09 5.39413e+09 5.44894e+08)
(1.26545e+09 6.47005e+09 1.30933e+08)
(8.20108e+08 5.83567e+09 7.02351e+08)
(1.87128e+09 6.887e+09 9.44104e+08)
(2.37833e+09 5.38792e+09 8.23398e+08)
(2.9758e+09 7.09904e+09 -1.86623e+08)
(3.90558e+09 1.64778e+10 -5.47495e+09)
(-4.48114e+08 3.0644e+09 8.04498e+08)
(-1.2366e+09 1.26186e+10 -1.94925e+09)
)
;
    }
    procBoundary17to16
    {
        type            processor;
        value           nonuniform List<vector> 
20
(
(-6.30771e+08 1.35585e+09 7.40688e+08)
(-4.82053e+08 7.26723e+08 9.74497e+08)
(-1.75024e+09 4.52045e+07 3.60189e+09)
(-3.50712e+09 5.53149e+09 -1.97055e+10)
(7.17277e+08 4.68657e+09 4.83567e+08)
(4.22462e+08 3.5769e+09 4.26985e+08)
(1.16236e+09 5.82809e+09 -3.89522e+09)
(2.07178e+09 2.19719e+09 6.49578e+08)
(3.99553e+08 3.65723e+09 2.84182e+08)
(1.61247e+09 4.6769e+09 1.20619e+08)
(2.19696e+09 1.45699e+09 -4.2465e+08)
(3.24269e+09 3.30814e+09 -8.31625e+08)
(1.63315e+09 6.5244e+09 9.31982e+08)
(2.0582e+09 5.65696e+09 1.8608e+08)
(2.57155e+09 4.92847e+09 -1.06083e+08)
(3.36149e+09 2.84923e+09 -1.64988e+08)
(-7.59926e+08 6.57276e+09 5.68031e+08)
(7.26921e+09 5.59257e+08 -7.58586e+08)
(5.70478e+09 1.15764e+09 -1.61788e+08)
(3.19155e+09 3.87905e+09 -1.52759e+08)
)
;
    }
    procBoundary17to18
    {
        type            processor;
        value           nonuniform List<vector> 
20
(
(-3.02481e+09 1.28758e+10 -2.28167e+09)
(2.44573e+09 1.29924e+10 8.2064e+08)
(3.83594e+09 1.07845e+10 1.0807e+09)
(5.4921e+09 9.32453e+09 4.72865e+08)
(4.86158e+08 5.50319e+09 3.34558e+08)
(6.46713e+09 -6.14604e+08 -6.97304e+08)
(1.10604e+10 4.76288e+09 -9.93221e+08)
(2.03005e+09 1.61954e+10 9.28026e+08)
(1.16124e+09 1.22797e+10 1.99656e+09)
(3.46925e+09 1.25513e+10 2.89995e+08)
(6.80462e+09 8.72897e+09 -2.65732e+09)
(8.67869e+09 8.40089e+09 6.48609e+07)
(1.52633e+09 1.44815e+10 1.30947e+09)
(5.56679e+09 1.22801e+10 7.35391e+08)
(6.42567e+09 9.66505e+09 7.12955e+06)
(8.31026e+09 9.04337e+09 9.3935e+06)
(-1.17996e+09 2.06358e+10 1.92939e+09)
(6.09551e+09 9.92569e+09 1.68798e+08)
(8.74881e+09 8.47304e+09 -1.48488e+08)
(8.69059e+09 8.69654e+09 -6.15381e+07)
)
;
    }
    procBoundary17to25
    {
        type            processor;
        value           nonuniform List<vector> 
50
(
(-1.68346e+09 3.56387e+09 -1.09372e+10)
(2.18707e+09 1.56364e+09 8.87352e+08)
(4.92634e+08 3.63311e+09 -5.26158e+09)
(2.82886e+09 3.32294e+09 4.01612e+08)
(2.05534e+09 4.29321e+09 -2.59172e+09)
(4.01262e+09 4.49337e+09 5.13756e+08)
(3.89058e+09 4.59778e+09 -1.59913e+09)
(5.57912e+09 5.08736e+09 2.25765e+08)
(5.89827e+09 5.95135e+09 -1.63549e+09)
(7.92951e+09 6.82195e+09 8.33911e+07)
(1.88468e+09 8.21053e+08 -1.78263e+08)
(4.92518e+08 3.49971e+09 -4.82396e+09)
(1.99559e+09 3.19318e+09 -3.31755e+08)
(2.1095e+09 4.61928e+09 -1.53426e+09)
(3.29208e+09 5.88688e+09 -5.42543e+08)
(4.62521e+09 8.17791e+09 -1.04397e+09)
(6.25086e+09 8.49685e+09 -5.22404e+08)
(7.27693e+09 7.44044e+09 -1.53671e+09)
(9.55696e+09 7.24992e+09 5.28856e+07)
(5.90088e+09 1.53861e+10 1.7546e+09)
(3.37414e+09 2.3754e+09 -1.23154e+09)
(3.5258e+09 1.58868e+09 -2.00282e+09)
(3.97562e+09 4.7981e+09 -3.9146e+09)
(5.3211e+09 5.34048e+09 -1.94359e+09)
(6.12325e+09 5.85982e+09 -9.68274e+08)
(6.25203e+09 6.41575e+09 -1.20112e+09)
(6.43998e+09 9.07503e+09 -1.39493e+09)
(7.4431e+09 7.28562e+09 -2.86795e+08)
(8.28476e+09 6.63843e+09 -5.67778e+08)
(8.85825e+09 6.6411e+09 -7.8841e+07)
(3.92562e+09 5.2467e+09 -2.52011e+09)
(4.5538e+09 4.32688e+09 -4.74773e+08)
(5.7216e+09 5.79294e+09 -3.54051e+09)
(5.80084e+09 4.76427e+09 -2.03799e+09)
(5.79313e+09 4.89723e+09 -1.21297e+09)
(6.14641e+09 6.20128e+09 -8.56773e+07)
(5.90308e+09 5.87457e+09 -4.65722e+08)
(7.10021e+09 6.42062e+09 -1.04587e+09)
(8.09474e+09 7.57947e+09 -4.47004e+08)
(9.20295e+09 8.05273e+09 5.4516e+08)
(4.15178e+09 5.71114e+09 3.72281e+08)
(4.91232e+09 9.69791e+09 -4.88656e+09)
(5.93787e+09 5.47517e+09 -1.2121e+09)
(5.97409e+09 6.57721e+09 -1.62708e+09)
(7.09814e+09 4.06481e+09 -1.03468e+09)
(6.44452e+09 6.93018e+09 3.4898e+08)
(5.64719e+09 7.33615e+09 6.65934e+07)
(6.6408e+09 6.36242e+09 -7.93102e+08)
(7.52431e+09 6.87089e+09 1.82675e+08)
(9.02515e+09 7.02763e+09 -5.30846e+08)
)
;
    }
}


// ************************************************************************* //
