/*--------------------------------*- C++ -*----------------------------------*\
| =========                 |                                                 |
| \\      /  F ield         | OpenFOAM: The Open Source CFD Toolbox           |
|  \\    /   O peration     | Version:  2.4.0                                 |
|   \\  /    A nd           | Web:      www.OpenFOAM.org                      |
|    \\/     M anipulation  |                                                 |
\*---------------------------------------------------------------------------*/
FoamFile
{
    version     2.0;
    format      ascii;
    class       volScalarField;
    location    "0.01";
    object      nut;
}
// * * * * * * * * * * * * * * * * * * * * * * * * * * * * * * * * * * * * * //

dimensions      [0 2 -1 0 0 0 0];

internalField   nonuniform List<scalar> 
60
(
3.65491e+06
2.35122e+06
2.50305e+06
1.24762e+06
2.94513e+06
2.28558e+06
2.00485e+06
1.56331e+06
1.3987e+06
1.85841e+06
2.54269e+06
1.54225e+06
1.98401e+06
3.08727e+06
2.44889e+06
2.37446e+06
2.2411e+06
2.17597e+06
2.53233e+06
2.80722e+06
3.34745e+06
3.83204e+06
2.67596e+06
1.16975e+06
2.76322e+06
2.26907e+06
2.55519e+06
1.59794e+06
2.04811e+06
2.45946e+06
2.73016e+06
948474
1.56236e+06
2.11087e+06
1.9336e+06
1.14899e+06
1.80273e+06
1.14868e+06
1.96232e+06
1.59437e+06
5.29043e+06
5.21008e+06
2.11011e+06
1.96379e+06
1.30206e+06
2.57073e+06
1.68729e+06
2.13879e+06
2.0006e+06
2.15377e+06
2.37914e+06
4.04807e+06
2.67667e+06
3.71032e+06
1.69498e+06
1.09254e+06
1.18381e+06
2.65015e+06
1.95152e+06
1.61349e+06
)
;

boundaryField
{
    inlet
    {
        type            calculated;
        value           nonuniform 0();
    }
    outlet
    {
        type            calculated;
        value           nonuniform 0();
    }
    bottom
    {
        type            calculated;
        value           nonuniform List<scalar> 
20
(
3.25535e-18
1.91344e-18
2.35358e-18
2.66074e-18
2.26399e-18
1.884e-18
1.74943e-18
2.95368e-18
2.20217e-18
1.6391e-18
2.07851e-18
3.1006e-18
1.56032e-18
1.57702e-18
3.03785e-18
3.02245e-18
2.91413e-18
2.09241e-18
3.22717e-18
2.65485e-18
)
;
    }
    top
    {
        type            symmetryPlane;
    }
    side1
    {
        type            symmetryPlane;
    }
    side2
    {
        type            symmetryPlane;
    }
    procBoundary49to33
    {
        type            processor;
        value           nonuniform List<scalar> 
15
(
1.70871e+06
3.44182e+06
5.51408e+06
5.14615e+06
3.87901e+06
4.46526e+06
4.00373e+06
5.74223e+06
2.55217e+06
4.53135e+06
4.00772e+06
7.07391e+06
5.5045e+06
3.63455e+06
3.06845e+06
)
;
    }
    procBoundary49to48
    {
        type            processor;
        value           nonuniform List<scalar> 
12
(
3.2411e+06
2.47964e+06
2.37019e+06
2.18766e+06
3.96504e+06
1.93973e+06
2.25385e+06
1.1195e+06
3.87598e+06
3.02777e+06
2.84057e+06
1.8027e+06
)
;
    }
    procBoundary49to50
    {
        type            processor;
        value           nonuniform List<scalar> 
12
(
3.20024e+06
3.37998e+06
4.29551e+06
2.19394e+06
2.85915e+06
2.83064e+06
2.63608e+06
1.52153e+06
2.00893e+06
2.63058e+06
1.33193e+06
1.60572e+06
)
;
    }
    procBoundary49to113
    {
        type            processor;
        value           nonuniform List<scalar> 
20
(
2.74811e+06
3.59559e+06
3.77364e+06
1.75162e+06
1.5896e+06
2.56821e+06
2.62155e+06
4.17096e+06
3.1758e+06
3.32058e+06
3.59303e+06
2.04938e+06
3.01236e+06
1.97225e+06
967869
1.34625e+06
1.69356e+06
1.66276e+06
2.02437e+06
2.50768e+06
)
;
    }
}


// ************************************************************************* //
