/*--------------------------------*- C++ -*----------------------------------*\
| =========                 |                                                 |
| \\      /  F ield         | OpenFOAM: The Open Source CFD Toolbox           |
|  \\    /   O peration     | Version:  2.4.0                                 |
|   \\  /    A nd           | Web:      www.OpenFOAM.org                      |
|    \\/     M anipulation  |                                                 |
\*---------------------------------------------------------------------------*/
FoamFile
{
    version     2.0;
    format      ascii;
    class       volVectorField;
    location    "0.01";
    object      U;
}
// * * * * * * * * * * * * * * * * * * * * * * * * * * * * * * * * * * * * * //

dimensions      [0 1 -1 0 0 0 0];

internalField   nonuniform List<vector> 
60
(
(-3.36821e+10 4.51465e+10 2.59889e+10)
(-3.99855e+10 4.96561e+10 2.3172e+10)
(-2.67146e+10 5.1659e+10 9.41902e+09)
(-2.30114e+10 4.81988e+10 9.98356e+09)
(-1.92122e+10 7.49781e+10 2.00382e+10)
(-3.02219e+10 2.61411e+10 2.67312e+10)
(-3.50183e+10 2.99414e+10 1.39673e+10)
(-3.53162e+10 3.01092e+10 1.06577e+10)
(-4.01754e+10 3.23915e+10 1.32655e+10)
(-4.66073e+10 5.45473e+10 1.60738e+10)
(-5.1207e+10 -5.80054e+08 2.44218e+10)
(-4.62913e+10 1.19474e+10 8.91506e+09)
(-5.03122e+10 2.41807e+10 1.34284e+10)
(-7.01587e+10 3.83575e+10 2.05881e+10)
(-9.30566e+10 6.19176e+10 2.81545e+10)
(-8.03143e+10 -3.63263e+09 2.7228e+10)
(-9.44785e+10 2.93899e+09 2.47596e+10)
(-9.98837e+10 1.45424e+10 2.14513e+10)
(-8.84141e+10 2.49148e+10 7.25404e+09)
(-6.05449e+10 2.63043e+10 1.16108e+09)
(-6.51805e+10 1.07967e+10 9.29721e+10)
(-6.64725e+10 2.94338e+10 6.41627e+10)
(-4.90375e+10 3.10372e+10 2.05638e+10)
(-4.78394e+10 3.93902e+10 4.77341e+10)
(-4.69678e+10 5.05917e+10 6.94867e+10)
(-5.1017e+10 3.5184e+10 6.98695e+10)
(-6.06519e+10 2.43082e+10 4.70188e+10)
(-6.36653e+10 1.55783e+10 3.68371e+10)
(-7.77191e+10 1.85755e+10 5.60392e+10)
(-8.89921e+10 3.36738e+10 5.91199e+10)
(-6.24393e+10 -7.46625e+09 4.14528e+10)
(-5.77943e+10 -5.81887e+09 3.54215e+10)
(-5.63109e+10 7.12803e+09 5.37932e+10)
(-7.2949e+10 1.72908e+10 6.69111e+10)
(-7.80523e+10 3.1078e+10 4.94496e+10)
(-4.4319e+10 -4.97457e+09 4.396e+10)
(-5.76065e+10 -7.83897e+09 4.93603e+10)
(-7.07288e+10 -3.9688e+09 6.47671e+10)
(-7.21065e+10 8.91364e+09 2.39704e+10)
(-6.67673e+10 1.26314e+10 1.79047e+10)
(-7.82199e+10 -4.06987e+10 1.43291e+11)
(-8.60583e+10 -4.0177e+10 5.39852e+10)
(-8.49346e+10 -1.86144e+10 3.92514e+10)
(-8.9988e+10 -1.21886e+10 7.00379e+10)
(-8.77576e+10 5.68023e+08 9.63346e+10)
(-5.9104e+10 -1.92059e+10 8.9101e+10)
(-6.89564e+10 -2.54376e+10 6.23205e+10)
(-7.96729e+10 -1.97596e+10 6.88734e+10)
(-9.55991e+10 9.37211e+09 7.70675e+10)
(-1.06259e+11 1.47802e+10 8.00753e+10)
(-7.97069e+10 -1.77488e+10 6.96285e+10)
(-8.95349e+10 -1.66568e+10 7.40764e+10)
(-1.3552e+11 -2.33851e+10 1.58231e+11)
(-1.26174e+11 2.34571e+09 7.58088e+10)
(-9.56344e+10 1.15728e+09 4.00744e+10)
(-6.00287e+10 -3.83662e+09 4.83238e+10)
(-6.57235e+10 -4.14951e+09 6.66535e+10)
(-7.81952e+10 -7.24764e+09 6.43218e+10)
(-8.24237e+10 -7.22015e+09 2.62095e+10)
(-9.23448e+10 -1.17018e+10 3.19174e+10)
)
;

boundaryField
{
    inlet
    {
        type            calculated;
        value           nonuniform 0();
    }
    outlet
    {
        type            calculated;
        value           nonuniform 0();
    }
    bottom
    {
        type            calculated;
        value           uniform (0 0 0);
    }
    top
    {
        type            symmetryPlane;
    }
    side1
    {
        type            symmetryPlane;
    }
    side2
    {
        type            symmetryPlane;
    }
    procBoundary49to33
    {
        type            processor;
        value           nonuniform List<vector> 
15
(
(-3.16468e+10 9.2847e+10 1.23575e+10)
(-5.03364e+10 9.30243e+10 3.49375e+10)
(-3.64294e+10 1.05e+11 5.08879e+10)
(-6.4142e+09 6.96728e+10 1.52942e+10)
(2.0181e+10 1.13915e+11 2.6567e+10)
(-4.98531e+10 4.36487e+10 1.03957e+11)
(-5.86295e+10 8.42848e+10 1.24098e+11)
(-6.26743e+10 7.94027e+10 9.99109e+10)
(-5.26233e+10 4.00623e+10 6.75391e+10)
(-3.40417e+10 1.12556e+11 9.55567e+10)
(-9.10632e+10 -6.41422e+10 2.12731e+11)
(-8.26605e+10 -2.26887e+10 1.58582e+11)
(-7.43994e+10 -9.97001e+09 1.24034e+11)
(-7.42507e+10 4.4413e+09 1.19723e+11)
(-7.02153e+10 1.24152e+10 1.1384e+11)
)
;
    }
    procBoundary49to48
    {
        type            processor;
        value           nonuniform List<vector> 
12
(
(-1.39925e+10 4.12889e+10 3.86062e+10)
(-2.28936e+10 4.29307e+10 1.94686e+10)
(-5.32667e+10 -2.87108e+09 6.22629e+10)
(-6.20908e+10 -1.14663e+09 2.61786e+10)
(-4.77517e+10 -1.19075e+10 1.42507e+11)
(-4.12046e+10 2.45796e+10 6.84983e+10)
(-6.67961e+10 8.63775e+08 1.10061e+11)
(-3.83397e+10 3.43844e+09 5.0147e+10)
(-6.09331e+10 -4.77023e+10 1.73683e+11)
(-5.6333e+10 -2.75642e+10 8.59516e+10)
(-6.82e+10 -1.6088e+10 1.18122e+11)
(-4.98557e+10 7.00253e+08 6.84862e+10)
)
;
    }
    procBoundary49to50
    {
        type            processor;
        value           nonuniform List<vector> 
12
(
(-2.36284e+10 1.4844e+11 3.24057e+10)
(-4.81653e+10 1.17306e+11 3.6749e+10)
(-8.58772e+10 4.91755e+10 1.89927e+10)
(-4.04185e+10 2.08758e+10 4.05077e+09)
(-4.33401e+10 7.92681e+10 7.77583e+10)
(-1.02506e+11 6.68969e+10 9.50644e+10)
(-6.68445e+10 3.4909e+10 3.22885e+10)
(-6.17516e+10 8.90179e+09 1.37848e+10)
(-7.69841e+10 -3.32056e+09 8.51169e+10)
(-1.12402e+11 -5.49436e+09 1.06808e+11)
(-8.31414e+10 -3.82595e+09 3.79968e+10)
(-1.06373e+11 -9.81221e+09 3.15052e+10)
)
;
    }
    procBoundary49to113
    {
        type            processor;
        value           nonuniform List<vector> 
20
(
(-1.04587e+11 -1.20463e+11 1.0511e+11)
(-1.05871e+11 -1.66153e+11 6.23326e+10)
(-1.03735e+11 -7.89139e+10 4.52467e+10)
(-1.0266e+11 -5.56232e+10 5.14022e+10)
(-9.99456e+10 -5.2353e+10 5.73113e+10)
(-8.88452e+10 -7.89227e+10 7.19515e+10)
(-1.04639e+11 -8.33518e+10 7.13699e+10)
(-1.2255e+11 -7.65708e+10 8.14506e+10)
(-1.43823e+11 -2.67736e+10 5.9231e+10)
(-1.51801e+11 -2.65052e+10 7.17687e+10)
(-1.14591e+11 -3.99218e+10 8.01103e+10)
(-1.40642e+11 -5.63253e+10 1.04896e+11)
(-1.39457e+11 -5.09052e+10 8.87935e+10)
(-1.18262e+11 -1.31862e+10 5.82642e+10)
(-1.11115e+11 -1.821e+10 6.37007e+10)
(-7.54558e+10 -6.89102e+09 4.84378e+10)
(-8.20071e+10 -1.11399e+10 5.48679e+10)
(-8.48599e+10 -1.10495e+10 4.36709e+10)
(-9.17378e+10 -1.51799e+10 4.12415e+10)
(-1.14113e+11 -2.05494e+10 4.0235e+10)
)
;
    }
}


// ************************************************************************* //
