/*--------------------------------*- C++ -*----------------------------------*\
| =========                 |                                                 |
| \\      /  F ield         | OpenFOAM: The Open Source CFD Toolbox           |
|  \\    /   O peration     | Version:  2.4.0                                 |
|   \\  /    A nd           | Web:      www.OpenFOAM.org                      |
|    \\/     M anipulation  |                                                 |
\*---------------------------------------------------------------------------*/
FoamFile
{
    version     2.0;
    format      ascii;
    class       volScalarField;
    location    "0.01";
    object      alpha;
}
// * * * * * * * * * * * * * * * * * * * * * * * * * * * * * * * * * * * * * //

dimensions      [0 0 0 0 0 0 0];

internalField   nonuniform List<scalar> 
60
(
2.22757e-08
1.72434e-10
1.24829e-12
8.56669e-15
5.6281e-17
2.57335e-10
2.17173e-12
1.70213e-14
1.25725e-16
8.84463e-19
1.62726e-12
1.48731e-14
1.25506e-16
9.93002e-19
7.44969e-21
7.43821e-15
7.32005e-17
6.61707e-19
5.58361e-21
4.4501e-23
1.00912e-10
8.51903e-13
6.67912e-15
4.935e-17
3.47286e-19
1.27082e-12
1.16149e-14
9.80089e-17
7.75424e-19
5.81721e-21
8.70236e-15
8.56312e-17
7.73987e-19
6.53028e-21
5.20399e-23
4.28259e-17
4.51419e-19
4.35147e-21
3.9003e-23
3.29051e-25
2.49697e-13
2.28321e-15
1.92751e-17
1.52571e-19
1.14511e-21
3.40452e-15
3.35041e-17
3.02864e-19
2.5556e-21
2.03679e-23
2.51009e-17
2.64589e-19
2.55057e-21
2.28617e-23
1.92878e-25
1.32329e-19
1.48758e-21
1.52336e-23
1.44554e-25
1.28713e-27
)
;

boundaryField
{
    inlet
    {
        type            zeroGradient;
    }
    outlet
    {
        type            zeroGradient;
    }
    bottom
    {
        type            fixedValue;
        value           uniform 0;
    }
    top
    {
        type            symmetryPlane;
    }
    side1
    {
        type            symmetryPlane;
    }
    side2
    {
        type            symmetryPlane;
    }
    procBoundary1to0
    {
        type            processor;
        value           nonuniform List<scalar> 
12
(
2.63842e-06
2.77277e-08
1.60777e-10
6.78548e-13
1.08697e-08
1.25563e-10
7.93961e-13
3.62903e-15
2.46602e-11
3.10579e-13
2.12699e-15
1.04683e-17
)
;
    }
    procBoundary1to2
    {
        type            processor;
        value           nonuniform List<scalar> 
12
(
3.41717e-19
5.70913e-21
5.09562e-23
3.21546e-25
2.24239e-21
3.97889e-23
3.75978e-25
2.50414e-27
7.83582e-24
1.47169e-25
1.46787e-27
1.02914e-29
)
;
    }
    procBoundary1to17
    {
        type            processor;
        value           nonuniform List<scalar> 
15
(
1.92374e-17
2.11061e-19
2.149e-21
2.01987e-23
1.76929e-25
1.16381e-19
1.36812e-21
1.4859e-23
1.48274e-25
1.37332e-27
3.77005e-22
4.72805e-24
5.45675e-26
5.76203e-28
5.62698e-30
)
;
    }
    procBoundary1to65
    {
        type            processor;
        value           nonuniform List<scalar> 
20
(
3.31296e-16
3.28542e-18
3.06074e-20
2.66673e-22
2.1867e-24
4.76946e-18
5.08244e-20
5.06653e-22
4.70125e-24
4.08812e-26
3.70328e-20
4.22105e-22
4.48451e-24
4.41638e-26
4.06053e-28
2.05092e-22
2.48986e-24
2.8086e-26
2.92589e-28
2.83612e-30
)
;
    }
}


// ************************************************************************* //
