/*--------------------------------*- C++ -*----------------------------------*\
| =========                 |                                                 |
| \\      /  F ield         | OpenFOAM: The Open Source CFD Toolbox           |
|  \\    /   O peration     | Version:  2.4.0                                 |
|   \\  /    A nd           | Web:      www.OpenFOAM.org                      |
|    \\/     M anipulation  |                                                 |
\*---------------------------------------------------------------------------*/
FoamFile
{
    version     2.0;
    format      ascii;
    class       volVectorField;
    location    "0.01";
    object      gradp;
}
// * * * * * * * * * * * * * * * * * * * * * * * * * * * * * * * * * * * * * //

dimensions      [1 -2 -2 0 0 0 0];

internalField   nonuniform List<vector> 
200
(
(2328.35 -1073.47 958.733)
(2584.29 -2578.18 103.025)
(1977.31 -3808.52 -141.086)
(1515.22 -4952.96 -383.58)
(3259.1 -7149.91 -1433.65)
(1854.78 -5719.36 -1892.27)
(-6156.24 -5540.78 -3033.32)
(-5254.29 -4195.22 -615.526)
(-933.468 -2642.09 -964.471)
(-1176.23 -711.516 -621.313)
(2170.39 -736.354 1424.37)
(1009.6 -1187.21 1762.04)
(1217.62 -617.13 1026.89)
(-33.087 -1271.92 652.283)
(-1451.86 -1955.13 228.939)
(-3838.08 -3341.75 315.173)
(-1778.51 -3118.21 892.456)
(2298.13 -403.717 271.147)
(1455.72 -718.829 -104.362)
(89.6878 -187.95 -331.697)
(2626.22 -1964.72 1792.29)
(2822.74 -256.744 1984.58)
(1807.89 468.24 709.721)
(-1160.79 -96.8951 759.704)
(-880.552 -610.832 547.036)
(-471.385 272.846 218.723)
(-280.176 2308.26 -96.2127)
(-455.513 1814.57 -480.03)
(-501.934 1041.37 -284.13)
(-675.167 733.09 -459.349)
(6901.53 -1656.35 2774.99)
(5875.52 -53.7562 2218.01)
(1537.32 -129.958 1604.43)
(-2191.23 -189.042 1051.38)
(-712.38 -645.181 2817.53)
(2000.1 -104.956 509.726)
(1304.95 590.564 -108.541)
(-235.653 687.607 -919.861)
(-707.245 700.495 -1751.17)
(-317.711 584.951 -1253.07)
(-587.061 217.06 -1095.61)
(-935.129 750.607 -2193.85)
(420.176 -2129.99 -3895.31)
(-2621 -166.379 -3269.91)
(-1568.69 -94.4793 -2168.88)
(-3264.15 2403.9 -3131.99)
(-2070.67 1018.84 -3414.43)
(1366.03 172.807 -1979.63)
(-951.984 940.148 -2842.51)
(1416.94 403.599 -2790.67)
(1768.53 597.338 1157.18)
(-262.35 1823.28 368.333)
(-2333.61 744.161 2112.46)
(-2586.52 557.334 -476.404)
(-2530.62 1213.97 277.931)
(-1714.83 35.834 560.11)
(-1919.39 1581.15 1144.15)
(-891.688 -186.923 653.106)
(-473.376 369.715 -893.662)
(-140.266 71.1916 -837.956)
(1520.82 196.267 2002.25)
(-641.485 472.802 1610.1)
(-2111.71 1392.3 842.178)
(-1681.38 541.653 1547.69)
(-2611.69 3530.92 2737.4)
(-2529.78 584.132 2451.65)
(-2516.19 706.667 2171.73)
(-1056.85 -91.0387 1870.04)
(-435.754 -1593.52 528.633)
(-560.334 -741.108 -194.314)
(1623.22 -84.0336 3731.65)
(2129.72 319.731 2675.88)
(-2195.9 1301.57 2325.31)
(1690.71 277.633 3761.95)
(-2445.66 2987.62 6588.78)
(-7363.33 360.649 13179.6)
(-3269.73 570.838 5236.48)
(-5492.05 -16.1236 3039.64)
(-1773.51 -1646.76 1806.25)
(1313.63 -685.004 -675.811)
(429.178 11365.9 -11000.1)
(-6374.74 5768.69 -6378.61)
(-1466.09 6957.03 -2271.55)
(7039.77 772.158 -2802.77)
(3700.47 2182.13 -2511.25)
(-2130.97 2491.35 -3121.88)
(-2468.71 2743.15 -1520.38)
(-3424.14 4769.22 -2436.6)
(-3528.77 4365.04 -2090.35)
(-1337.01 11689 -2040.03)
(613.382 4220.23 -9697.6)
(4066.5 4899.11 -7851.39)
(-1485.54 6962.84 -3473.82)
(-5903.59 6436.24 632.052)
(1864.98 5894.92 -1316.27)
(-1066.19 5592.07 -1110.78)
(-1480.92 5819.64 -1299.83)
(-4222.86 5755.76 -1639.32)
(-3315.67 4675 -2301.16)
(-1561.68 3966.21 -1870.39)
(574.222 2154.43 -7414.79)
(-889.503 3435.33 -6758.14)
(1608.17 808.799 -4003.91)
(4903.92 6684.47 -3767.42)
(2012.12 9486.52 -2446.64)
(-2281.53 20464 -1698.47)
(-2141.33 8856 -1488.42)
(-5713.42 5633.03 -1603.08)
(-7107.86 5361.24 -2210.6)
(-2781.15 992.522 -1723.73)
(2253.81 1110.69 -8680.28)
(1375.23 1651.49 -7864.98)
(5012.74 2243.06 -8603.38)
(11451.8 3353.78 -4264.14)
(29424.1 5517.02 -5354.83)
(-2327.23 17059.8 -2344.43)
(-31142.9 5494.17 -1682.48)
(-11212.4 2558.97 -1011.92)
(-12596.7 2744.69 -88.0338)
(-8935.32 -185.444 -1318.3)
(10784.1 4338.65 -3506.07)
(26996.2 -1173.2 -4081.03)
(11862.9 2699.04 612.801)
(-3388.06 7276.7 6202.76)
(-2589.84 -1367.33 3447.54)
(-93.3627 2910.25 646.178)
(122.234 1305.11 -359.341)
(-457.874 1612.76 -317.41)
(317.015 1777.14 1139.07)
(1093.13 2843.55 194.988)
(6703.99 6333.84 -9408.29)
(19653.8 1216.04 -5665.3)
(24813.4 -2027.61 -8015.05)
(4317.63 -986.101 -4764.27)
(-8107.69 1317.35 -2781.95)
(-1662.22 2313.3 -3987.76)
(-3610.71 1632.3 -2805.63)
(-4095.95 1146.7 -2045.78)
(-1212.8 177.328 -451.544)
(994.632 577.282 -633.468)
(4584.79 1823.98 -6337.56)
(10273.3 451.053 -5963.52)
(7458.6 -6815 -5783.6)
(3301.88 -7292.26 -5807.8)
(4008.95 -2930.78 -8718.67)
(536.526 -1389.7 -7459.41)
(-2210.97 94.4363 -6259.77)
(-3367.82 912.812 -4824.11)
(-821.816 1947.49 -2331.5)
(942.164 142.245 -100.025)
(2704.92 -2108.82 -6700.15)
(2375.81 -1451.22 -7466.14)
(9326.79 -6057.59 -8319.32)
(12086.1 -517.128 -11066.4)
(3697.41 -1665.5 -14762.3)
(4388.21 -672.898 -27740.3)
(994.32 260.347 -13357.6)
(-389.84 929.745 -8003.76)
(-2753.94 1749.34 -5113.6)
(1778.67 -36.3171 -1027.79)
(7528.39 -7782.19 5439.69)
(6805.65 3226.48 0.707206)
(31442 9334.85 -869.872)
(16111 2907.47 6119.19)
(-14080.6 3515.38 5223.57)
(-14313 53.8677 2528.34)
(-5552.19 524.233 779.932)
(1370.78 2151.83 755.078)
(-1889.1 3120.61 1351.39)
(-2276.5 3226.84 65.6682)
(12088.6 -310.167 22.1287)
(8524.87 1887.13 792.38)
(1397.75 -3271.39 -3455.65)
(10842.3 -12780.6 -6525.01)
(4349.83 -13571 -1416.69)
(-1141.98 -7376.87 -2632.04)
(4733.41 -3621.04 -1254.11)
(3310.23 -1454.96 -24.4967)
(1203.72 -877.911 1060.32)
(1215.73 3494.19 730.667)
(10230.7 6487.45 1287.19)
(883.201 553.996 420.137)
(2106.49 321.96 -1647.23)
(-4488.32 -3398.98 -1252.4)
(-3273.04 -9682.08 -4081.67)
(5586.96 -17540.1 -3528.02)
(6291.63 -8027.16 -2503.4)
(6857.04 -3899.74 -870.957)
(8009.21 -2098.06 691.862)
(3860.59 361.602 1888.74)
(1976.89 530.558 2936.8)
(-3806.12 -752.69 856.72)
(-6508.2 -1814.1 1004.95)
(-9165.78 -5060.03 -4091.71)
(-23932.4 -4152.83 -5636.25)
(2167.86 -15389.7 -12726)
(32014.1 -5862.38 -6330.11)
(15168.4 -2528.47 -3032.34)
(9726.41 -1706.68 -1468.15)
(7060.76 -1669.87 867.766)
)
;

boundaryField
{
    inlet
    {
        type            zeroGradient;
    }
    outlet
    {
        type            zeroGradient;
    }
    bottom
    {
        type            zeroGradient;
    }
    top
    {
        type            symmetryPlane;
    }
    side1
    {
        type            symmetryPlane;
    }
    side2
    {
        type            symmetryPlane;
    }
    procBoundary27to19
    {
        type            processor;
        value           nonuniform List<vector> 
50
(
(3401.77 -3708.38 617.79)
(6479.69 -4408.18 -318.451)
(5967.18 -7762.59 -22.193)
(6649.7 -4750.3 -2339.33)
(80.9296 -3606.46 -4180.71)
(-7056.35 -1816.89 -4761.86)
(-4826.78 -524.018 -3207.3)
(-3499.23 -2922.88 -2458.87)
(-5511.68 -4726.58 -2343.26)
(-5423.49 -1540.75 -1028.64)
(1279.16 -630.272 -6617.43)
(4431.75 -2837.37 -4848.46)
(-499.632 -832.202 -4616)
(-6657.54 1542.53 -4054.6)
(-7671.17 811.856 -5554.6)
(-3941.46 -479.3 -4571.58)
(2542.79 -2806.04 -4033.31)
(-734.308 -3876.36 -4949.67)
(-934.96 -3233.26 -5273.12)
(1632.58 -3692.62 -8588.3)
(1839.53 6590.49 -12273.6)
(12884.3 3802.9 -6649.01)
(8507.51 1998.55 -6491.96)
(3646.19 625.07 -4019.87)
(-1573.4 1529.26 -520.741)
(-2188.23 1453.31 -1427.26)
(-6036.66 1468.14 -1478.75)
(-7466.63 1107.86 -2539.29)
(-17155.3 1857.52 -2824.28)
(-3145.92 2663.88 -3395.36)
(35849.5 -8860.48 2559.27)
(22933 6703.62 -4076.42)
(7913.61 11973.4 -9501.18)
(12450.4 6876.04 -6098.84)
(625.204 5147.72 -3615.23)
(-7007.1 2911.98 -2464.33)
(-1015.73 3414.9 -1418.81)
(-5040.01 2757.46 -409.908)
(-3674.38 3689.64 326.225)
(216.532 9293.75 4655.4)
(-40183.2 -3508.81 7597.65)
(-25709.2 2204.32 -1957.42)
(2035.78 6667.69 -7603.03)
(22481.3 19471.5 -3794.24)
(10057 18833.7 -4468.38)
(4840.31 9784.23 -846.795)
(537.493 5609.6 -766.062)
(-1882.52 4735.86 -361.412)
(-946.312 5052.03 220.653)
(813.543 2931.3 491.109)
)
;
    }
    procBoundary27to26
    {
        type            processor;
        value           nonuniform List<vector> 
20
(
(375.247 -1962.49 1014.09)
(3064.02 -1336.14 1887.62)
(6292.89 -2622.32 2330.02)
(13128.1 -2191.42 3867.48)
(3565.55 505.925 -1600.36)
(3684.45 769.338 854.898)
(4024.59 545.456 2251.35)
(1444.98 268.529 4128.29)
(1358.47 6381.76 -9932.11)
(1483.5 4826.59 -9393.72)
(1434.73 2615.12 -7715.63)
(3531.15 811.696 -8203.01)
(-162.765 13399.6 -6299.54)
(1875.54 4315.7 -9251.29)
(5078.36 2450.59 -8981.18)
(3473.14 -511.286 -7379.6)
(8791.9 -22909.4 1018.12)
(2572.59 535.958 -890.294)
(8156.28 5609.82 -1344.22)
(-886.507 3374.23 1084.23)
)
;
    }
    procBoundary27to28
    {
        type            processor;
        value           nonuniform List<vector> 
20
(
(-1486.44 114.494 -154.106)
(-834.415 -468.3 -176.223)
(-556.843 837.672 -248.245)
(-722.8 879.223 -1241.37)
(1483.86 53.7268 -2892.75)
(66.2945 -618.922 -1409.71)
(381.834 -866.57 -129.487)
(1137.63 -709.784 -886.749)
(373.644 5157.16 -2191.54)
(-1014.73 3952.93 -1946.51)
(-268.864 1674.41 -1741.06)
(-728.65 -332.397 57.2923)
(645.522 2166.19 845.479)
(-1058.86 101.845 416.395)
(831.636 2339.51 -255.954)
(3984.71 2167.59 -114.825)
(-951.185 3321.7 298.376)
(-59.0074 2190.63 1129.41)
(-1983.97 824.462 1603.87)
(4199.18 -106.591 182.507)
)
;
    }
}


// ************************************************************************* //
