/*--------------------------------*- C++ -*----------------------------------*\
| =========                 |                                                 |
| \\      /  F ield         | OpenFOAM: The Open Source CFD Toolbox           |
|  \\    /   O peration     | Version:  2.4.0                                 |
|   \\  /    A nd           | Web:      www.OpenFOAM.org                      |
|    \\/     M anipulation  |                                                 |
\*---------------------------------------------------------------------------*/
FoamFile
{
    version     2.0;
    format      ascii;
    class       volScalarField;
    location    "0.01";
    object      p;
}
// * * * * * * * * * * * * * * * * * * * * * * * * * * * * * * * * * * * * * //

dimensions      [1 -1 -2 0 0 0 0];

internalField   nonuniform List<scalar> 
200
(
0.799318
2.61919
4.02968
5.09083
5.9237
9.16471
8.24218
1.46941
1.67432
0.302576
-0.270637
0.158642
0.99136
1.68066
0.950002
-0.134166
-3.8476
-2.3573
-0.974942
-0.537646
-1.04157
-0.348828
2.48686
1.91103
1.03587
0.810339
0.446643
0.460118
-0.122749
-0.167299
-5.18244
-0.483219
2.16196
1.43842
-0.577078
0.54795
1.92305
2.17913
1.62849
1.29508
4.63425
3.03129
3.46534
3.55651
0.189087
1.59565
-3.89109
-0.992695
-2.18356
-2.18267
5.42685
7.2068
5.09891
4.28979
1.86576
1.12652
-0.27778
-1.27271
-1.39239
-1.86443
6.1276
7.58948
5.32574
4.94984
3.22402
1.68523
0.061792
-1.46
-1.25927
-2.00469
5.91751
8.38881
8.57967
5.64393
10.6931
2.58685
1.48889
-1.50031
-5.37618
-3.7172
-3.58312
-6.15621
-11.5515
-7.98882
-2.75182
-3.36324
-5.41554
-6.44913
-9.69571
-10.8601
4.3581
1.63197
9.44122
-0.224955
2.06173
2.10627
0.728983
0.255121
-4.54959
-3.88947
6.96745
6.09157
5.85557
8.10179
11.9855
10.6169
9.13356
7.94028
1.99178
-0.944554
9.74418
10.2203
11.4632
16.4862
25.778
53.2664
22.869
14.3377
8.8535
-1.40816
-39.3662
-22.4832
-5.62085
-7.65457
-9.85593
-10.8919
-9.97263
-10.7391
-10.545
-10.3428
-33.3636
-24.1988
-8.79637
6.818
-3.39933
-3.31661
-5.47711
-7.83
-10.597
-9.34601
-23.5316
-19.4431
-10.6899
-10.1198
-6.56254
-5.10863
-5.89188
-7.87233
-10.1017
-8.89961
-28.8036
-23.0711
-25.8339
-11.4126
-10.7263
-6.79087
-5.24102
-5.54797
-5.72831
-8.9904
-17.6074
-22.4803
-9.10034
16.8222
11.0384
-0.778526
-6.8529
-7.71877
-5.13943
-10.0801
-33.275
-21.0292
-22.619
-19.282
-9.06608
-13.8448
-10.4936
-7.92799
-6.35577
-6.42334
-18.3828
-17.7625
-17.2788
-15.1294
-22.8892
-19.2207
-15.9055
-11.3562
-7.33421
-1.34465
-17.0564
-19.6442
-21.8141
-27.7795
-33.2713
-57.695
-30.5615
-17.6773
-11.6009
-5.51933
)
;

boundaryField
{
    inlet
    {
        type            zeroGradient;
    }
    outlet
    {
        type            fixedValue;
        value           nonuniform 0();
    }
    bottom
    {
        type            zeroGradient;
    }
    top
    {
        type            symmetryPlane;
    }
    side1
    {
        type            symmetryPlane;
    }
    side2
    {
        type            symmetryPlane;
    }
    procBoundary27to19
    {
        type            processor;
        value           nonuniform List<scalar> 
50
(
2.41304
6.60409
10.5127
14.0631
18.8248
14.1642
10.0043
8.13075
5.63029
1.24115
4.88419
5.33028
10.4239
4.70574
2.10196
-4.88322
-2.82488
-1.70473
-3.74276
-2.87343
-24.0567
-12.7897
-7.95135
-2.15535
-3.39361
-4.1221
-6.1289
-11.6679
-15.4622
-33.112
-44.2102
-21.2658
-15.544
-11.3738
0.0189909
-10.5922
-8.73989
-11.8619
-15.0399
-16.4549
-13.8196
-29.0954
-45.9561
-26.5507
-17.8545
-13.9794
-11.8041
-13.3076
-14.1573
-14.4905
)
;
    }
    procBoundary27to26
    {
        type            processor;
        value           nonuniform List<scalar> 
20
(
-0.291251
-2.55435
-3.6316
-9.11014
3.76511
4.99614
5.68846
6.35978
-6.69268
0.865245
5.37379
7.40303
-35.9633
-32.5787
-25.1741
-26.4523
-31.8908
-36.1399
-30.5509
-22.1154
)
;
    }
    procBoundary27to28
    {
        type            processor;
        value           nonuniform List<scalar> 
20
(
0.204042
-0.862832
-0.966708
1.23135
-0.412383
-1.56772
-1.95969
-3.73415
-11.367
-6.50168
-1.48466
-2.31565
-9.17856
-9.35376
-8.92395
-3.50498
-7.98506
-4.83611
-2.50847
-2.77495
)
;
    }
}


// ************************************************************************* //
