/*--------------------------------*- C++ -*----------------------------------*\
| =========                 |                                                 |
| \\      /  F ield         | OpenFOAM: The Open Source CFD Toolbox           |
|  \\    /   O peration     | Version:  2.4.0                                 |
|   \\  /    A nd           | Web:      www.OpenFOAM.org                      |
|    \\/     M anipulation  |                                                 |
\*---------------------------------------------------------------------------*/
FoamFile
{
    version     2.0;
    format      ascii;
    class       surfaceScalarField;
    location    "0.01";
    object      phia;
}
// * * * * * * * * * * * * * * * * * * * * * * * * * * * * * * * * * * * * * //

dimensions      [0 3 -1 0 0 0 0];

internalField   nonuniform List<scalar> 
490
(
2.83168e-06
2.61124e-08
2.91206e-08
4.22834e-06
-4.37671e-08
-5.85249e-07
4.59273e-06
6.81783e-08
1.74393e-07
4.10892e-06
1.38951e-07
2.00104e-07
4.06735e-06
4.81628e-07
4.45224e-08
4.37431e-06
6.37382e-07
1.72477e-08
4.44956e-06
6.68706e-07
1.20412e-08
4.48477e-06
6.81908e-07
9.89146e-09
4.50535e-06
6.89129e-07
8.72508e-09
6.93654e-07
7.99478e-09
2.83383e-06
2.59518e-08
2.73689e-08
4.22586e-06
-4.2818e-08
-5.78337e-07
4.58935e-06
6.8377e-08
1.72896e-07
4.10884e-06
1.40485e-07
1.99301e-07
4.06329e-06
4.80848e-07
4.4918e-08
4.36564e-06
6.34353e-07
1.77897e-08
4.44307e-06
6.66605e-07
1.23993e-08
4.47967e-06
6.80342e-07
1.01545e-08
4.50116e-06
6.87896e-07
8.93213e-09
6.92647e-07
8.16523e-09
2.83606e-06
2.57577e-08
2.56039e-08
4.22344e-06
-4.18111e-08
-5.71426e-07
4.58595e-06
6.84945e-08
1.71424e-07
4.10873e-06
1.41831e-07
1.98487e-07
4.05944e-06
4.7941e-07
4.53112e-08
4.35725e-06
6.30535e-07
1.83199e-08
4.43671e-06
6.63574e-07
1.27529e-08
4.47464e-06
6.77765e-07
1.04153e-08
4.49702e-06
6.85588e-07
9.1378e-09
6.90508e-07
8.33477e-09
2.83837e-06
2.38323e-08
4.22107e-06
-5.64519e-07
4.58253e-06
1.69972e-07
4.10861e-06
1.97664e-07
4.05577e-06
4.57028e-08
4.34913e-06
1.88397e-08
4.43048e-06
1.31027e-08
4.46968e-06
1.06742e-08
4.49292e-06
9.34247e-09
8.50371e-09
2.83469e-06
2.5923e-08
2.70692e-08
4.22616e-06
-4.27023e-08
-5.77445e-07
4.58891e-06
6.84232e-08
1.72926e-07
4.10861e-06
1.40711e-07
1.99159e-07
4.06332e-06
4.80761e-07
4.49152e-08
4.36564e-06
6.34217e-07
1.77903e-08
4.44307e-06
6.66455e-07
1.23997e-08
4.47967e-06
6.80183e-07
1.01547e-08
4.50117e-06
6.87728e-07
8.93223e-09
6.92471e-07
8.16527e-09
2.83669e-06
2.57716e-08
2.53901e-08
4.22364e-06
-4.17797e-08
-5.70747e-07
4.58562e-06
6.86226e-08
1.71446e-07
4.10856e-06
1.42189e-07
1.98382e-07
4.05946e-06
4.79987e-07
4.53093e-08
4.35725e-06
6.31289e-07
1.83205e-08
4.43672e-06
6.64401e-07
1.27533e-08
4.47464e-06
6.78645e-07
1.04155e-08
4.49702e-06
6.86515e-07
9.13791e-09
6.9148e-07
8.33482e-09
2.83879e-06
2.55844e-08
2.36884e-08
4.22119e-06
-4.07947e-08
-5.64025e-07
4.58229e-06
6.87376e-08
1.6999e-07
4.10849e-06
1.43476e-07
1.97589e-07
4.05579e-06
4.78525e-07
4.57009e-08
4.34914e-06
6.2753e-07
1.88395e-08
4.43049e-06
6.61375e-07
1.31025e-08
4.46969e-06
6.76055e-07
1.0674e-08
4.49293e-06
6.84185e-07
9.34224e-09
6.89313e-07
8.50347e-09
2.84099e-06
2.19729e-08
4.2188e-06
-5.57286e-07
4.57893e-06
1.68556e-07
4.1084e-06
1.96785e-07
4.05229e-06
4.60908e-08
4.34127e-06
1.93487e-08
4.42438e-06
1.34481e-08
4.46481e-06
1.09308e-08
4.48888e-06
9.54559e-09
8.67153e-09
2.83764e-06
2.574e-08
2.50626e-08
4.22396e-06
-4.16507e-08
-5.69765e-07
4.58512e-06
6.86765e-08
1.71478e-07
4.10832e-06
1.42443e-07
1.98226e-07
4.05948e-06
4.79895e-07
4.53067e-08
4.35723e-06
6.31139e-07
1.83218e-08
4.4367e-06
6.64239e-07
1.27542e-08
4.47463e-06
6.78475e-07
1.04161e-08
4.49701e-06
6.86336e-07
9.13837e-09
6.91293e-07
8.33516e-09
2.83949e-06
2.55974e-08
2.34533e-08
4.2214e-06
-4.07538e-08
-5.63275e-07
4.58192e-06
6.88764e-08
1.70013e-07
4.10831e-06
1.43867e-07
1.97473e-07
4.0558e-06
4.79127e-07
4.56993e-08
4.34912e-06
6.28308e-07
1.88409e-08
4.43048e-06
6.6223e-07
1.31034e-08
4.46968e-06
6.76965e-07
1.06747e-08
4.49292e-06
6.85144e-07
9.34272e-09
6.90318e-07
8.50383e-09
2.84147e-06
2.54169e-08
2.18124e-08
4.21893e-06
-3.97901e-08
-5.56736e-07
4.57866e-06
6.89883e-08
1.68574e-07
4.10827e-06
1.45096e-07
1.96702e-07
4.0523e-06
4.77642e-07
4.60893e-08
4.34126e-06
6.24602e-07
1.93493e-08
4.42437e-06
6.59207e-07
1.34485e-08
4.4648e-06
6.7436e-07
1.09311e-08
4.48887e-06
6.8279e-07
9.54574e-09
6.88124e-07
8.67161e-09
2.84357e-06
2.01511e-08
4.21653e-06
-5.50161e-07
4.57536e-06
1.67157e-07
4.10821e-06
1.95915e-07
4.04896e-06
4.64775e-08
4.33365e-06
1.98483e-08
4.41838e-06
1.37899e-08
4.45999e-06
1.11857e-08
4.48487e-06
9.74781e-09
8.83882e-09
2.84053e-06
2.55634e-08
2.30626e-08
4.22175e-06
-4.06138e-08
-5.61199e-07
4.58137e-06
6.89376e-08
1.69741e-07
4.10804e-06
1.44144e-07
1.96947e-07
4.05583e-06
4.79032e-07
4.56127e-08
4.3491e-06
6.28151e-07
1.88066e-08
4.43046e-06
6.6206e-07
1.30787e-08
4.46967e-06
6.76787e-07
1.06537e-08
4.49291e-06
6.84957e-07
9.32351e-09
6.90123e-07
8.48561e-09
2.84223e-06
2.54293e-08
2.15216e-08
4.21917e-06
-3.97418e-08
-5.54876e-07
4.57825e-06
6.91374e-08
1.68281e-07
4.10807e-06
1.45516e-07
1.96203e-07
4.05232e-06
4.7827e-07
4.59993e-08
4.34124e-06
6.25411e-07
1.93125e-08
4.42436e-06
6.60095e-07
1.3422e-08
4.46479e-06
6.75305e-07
1.09086e-08
4.48886e-06
6.83785e-07
9.52534e-09
6.89165e-07
8.65233e-09
2.8441e-06
2.52551e-08
1.99408e-08
4.21667e-06
-3.8799e-08
-5.48483e-07
4.57507e-06
6.92461e-08
1.66847e-07
4.10806e-06
1.46688e-07
1.95437e-07
4.04898e-06
4.76761e-07
4.63831e-08
4.33363e-06
6.21755e-07
1.98082e-08
4.41838e-06
6.57075e-07
1.37611e-08
4.45998e-06
6.72684e-07
1.11614e-08
4.48486e-06
6.81408e-07
9.72583e-09
6.86943e-07
8.81815e-09
2.8461e-06
1.83335e-08
4.21425e-06
-5.42037e-07
4.57183e-06
1.65435e-07
4.10803e-06
1.94653e-07
4.0458e-06
4.6765e-08
4.32625e-06
2.02949e-08
4.41251e-06
1.40967e-08
4.45524e-06
1.14125e-08
4.4809e-06
9.92537e-09
8.98339e-09
2.84337e-06
2.53927e-08
4.21954e-06
-3.95893e-08
4.57765e-06
6.92067e-08
4.10778e-06
1.45819e-07
4.05234e-06
4.78169e-07
4.34121e-06
6.25242e-07
4.42433e-06
6.59915e-07
4.46477e-06
6.75116e-07
4.48884e-06
6.83588e-07
6.8896e-07
2.84492e-06
2.52668e-08
4.21692e-06
-3.87417e-08
4.57462e-06
6.94061e-08
4.10785e-06
1.47141e-07
4.04899e-06
4.77414e-07
4.3336e-06
6.2259e-07
4.41835e-06
6.57992e-07
4.45996e-06
6.73661e-07
4.48484e-06
6.82436e-07
6.88017e-07
2.84667e-06
2.50988e-08
4.21441e-06
-3.78192e-08
4.5715e-06
6.9511e-08
4.10787e-06
1.48257e-07
4.04581e-06
4.75881e-07
4.32623e-06
6.1898e-07
4.41248e-06
6.54974e-07
4.45522e-06
6.71025e-07
4.48089e-06
6.80035e-07
6.85767e-07
2.84857e-06
4.21197e-06
4.56832e-06
4.10786e-06
4.04277e-06
4.31907e-06
4.40673e-06
4.45055e-06
4.47698e-06
)
;

boundaryField
{
    inlet
    {
        type            calculated;
        value           nonuniform 0();
    }
    outlet
    {
        type            calculated;
        value           nonuniform 0();
    }
    bottom
    {
        type            calculated;
        value           uniform 0;
    }
    top
    {
        type            symmetryPlane;
        value           uniform 0;
    }
    side1
    {
        type            symmetryPlane;
        value           nonuniform 0();
    }
    side2
    {
        type            symmetryPlane;
        value           uniform 0;
    }
    procBoundary27to19
    {
        type            processor;
        value           nonuniform List<scalar> 
50
(
-2.62531e-08
4.45884e-08
-6.80641e-08
-1.37744e-07
-4.82422e-07
-6.40488e-07
-6.70828e-07
-6.83476e-07
-6.90355e-07
-6.94649e-07
-2.60505e-08
4.34758e-08
-6.83222e-08
-1.39613e-07
-4.81551e-07
-6.37216e-07
-6.68528e-07
-6.8172e-07
-6.88931e-07
-6.93448e-07
-2.58546e-08
4.2377e-08
-6.85899e-08
-1.41452e-07
-4.80681e-07
-6.34037e-07
-6.66264e-07
-6.79982e-07
-6.87518e-07
-6.92252e-07
-2.56656e-08
4.12936e-08
-6.88665e-08
-1.43259e-07
-4.79814e-07
-6.30952e-07
-6.64038e-07
-6.78265e-07
-6.86117e-07
-6.91065e-07
-2.54831e-08
4.02233e-08
-6.91523e-08
-1.45037e-07
-4.78948e-07
-6.27952e-07
-6.61848e-07
-6.76565e-07
-6.84727e-07
-6.89884e-07
)
;
    }
    procBoundary27to26
    {
        type            processor;
        value           nonuniform List<scalar> 
20
(
-1.92288e-06
-1.92401e-06
-1.92517e-06
-1.92636e-06
-1.9244e-06
-1.92546e-06
-1.92656e-06
-1.9277e-06
-1.9259e-06
-1.92689e-06
-1.92794e-06
-1.92903e-06
-1.92737e-06
-1.9283e-06
-1.92929e-06
-1.93033e-06
-1.92882e-06
-1.92968e-06
-1.93061e-06
-1.93161e-06
)
;
    }
    procBoundary27to28
    {
        type            processor;
        value           nonuniform List<scalar> 
20
(
4.51888e-06
4.51518e-06
4.51153e-06
4.50794e-06
4.51532e-06
4.51164e-06
4.50803e-06
4.50447e-06
4.51178e-06
4.50813e-06
4.50455e-06
4.50103e-06
4.50827e-06
4.50466e-06
4.5011e-06
4.49761e-06
4.50479e-06
4.50121e-06
4.49768e-06
4.49422e-06
)
;
    }
}


// ************************************************************************* //
