/*--------------------------------*- C++ -*----------------------------------*\
| =========                 |                                                 |
| \\      /  F ield         | OpenFOAM: The Open Source CFD Toolbox           |
|  \\    /   O peration     | Version:  2.4.0                                 |
|   \\  /    A nd           | Web:      www.OpenFOAM.org                      |
|    \\/     M anipulation  |                                                 |
\*---------------------------------------------------------------------------*/
FoamFile
{
    version     2.0;
    format      ascii;
    class       volScalarField;
    location    "0.17";
    object      nut;
}
// * * * * * * * * * * * * * * * * * * * * * * * * * * * * * * * * * * * * * //

dimensions      [0 2 -1 0 0 0 0];

internalField   nonuniform List<scalar> 
200
(
1.17325e+12
1.43223e+12
1.91361e+12
2.4389e+12
2.59743e+12
2.1669e+12
3.94735e+12
3.8308e+12
4.79132e+12
5.31219e+12
1.36549e+12
1.60707e+12
1.8706e+12
2.19653e+12
2.1105e+12
2.84237e+12
2.87443e+12
4.24596e+12
4.60544e+12
6.0806e+12
3.02817e+12
2.25462e+12
2.56529e+12
3.39118e+12
5.86623e+12
3.92614e+12
3.84174e+12
4.8392e+12
6.38976e+12
1.01879e+13
5.40999e+12
2.989e+12
2.95655e+12
3.44032e+12
1.02563e+13
7.20854e+12
4.5562e+12
5.31204e+12
5.84389e+12
7.5e+12
4.03078e+11
8.42268e+11
1.09756e+12
1.40083e+12
1.6699e+12
2.03642e+12
2.48374e+12
2.97981e+12
3.21015e+12
3.71426e+12
8.26285e+11
9.71247e+11
2.62902e+12
1.23162e+12
1.22682e+12
2.42352e+12
2.28571e+12
3.7381e+12
2.82428e+12
3.97901e+12
1.12659e+12
2.14157e+12
1.7386e+12
3.53566e+12
1.91437e+12
1.46807e+12
3.74294e+12
2.67618e+12
4.0918e+12
3.89574e+12
2.05856e+12
2.35086e+12
1.4178e+12
2.41778e+12
2.12037e+12
4.42605e+12
2.3508e+12
3.9817e+12
3.05314e+12
4.48002e+12
4.82856e+11
8.61337e+11
6.62935e+11
7.03007e+11
9.70509e+11
1.39613e+12
1.60818e+12
3.17324e+12
2.96302e+12
3.70316e+12
1.01931e+12
1.15604e+12
1.14016e+12
7.04711e+11
1.64169e+12
1.3781e+12
3.52155e+12
2.39889e+12
3.69527e+12
3.76374e+12
9.64495e+11
1.57929e+12
1.32578e+12
1.67272e+12
1.54346e+12
3.67696e+12
2.27149e+12
3.4478e+12
3.55671e+12
5.40248e+12
3.02661e+12
1.82567e+12
1.8946e+12
2.00659e+12
5.20503e+12
3.38078e+12
5.76268e+12
4.14509e+12
5.5737e+12
5.89547e+12
8.64073e+11
3.92193e+11
7.63782e+11
8.70947e+11
1.21745e+12
1.88866e+12
2.55903e+12
2.59442e+12
3.09403e+12
3.75371e+12
4.5845e+11
6.65536e+11
8.56365e+11
1.34671e+12
1.90911e+12
2.80406e+12
2.49343e+12
2.79711e+12
3.93518e+12
3.95633e+12
1.22618e+12
1.41005e+12
1.48691e+12
2.16999e+12
4.14001e+12
3.06065e+12
3.74248e+12
3.95799e+12
4.78091e+12
6.02711e+12
2.42563e+12
2.59948e+12
2.68971e+12
4.62642e+12
3.88317e+12
5.0502e+12
5.53183e+12
7.01893e+12
8.18295e+12
4.83302e+12
4.35054e+11
5.76034e+11
7.0584e+11
9.08379e+11
1.73942e+12
1.56292e+12
1.79187e+12
1.80652e+12
2.43368e+12
2.24455e+12
3.04794e+11
7.62001e+11
1.01518e+12
2.15779e+12
2.42621e+12
2.32648e+12
2.15309e+12
2.77768e+12
2.91687e+12
4.21651e+12
8.45078e+11
1.36183e+12
1.98253e+12
3.25374e+12
2.87291e+12
3.44557e+12
5.10086e+12
7.04623e+12
7.08013e+12
4.6736e+12
2.40228e+12
2.09082e+12
3.33205e+12
5.18796e+12
5.37363e+12
6.55661e+12
8.05015e+12
9.31555e+12
3.7047e+12
6.99912e+12
)
;

boundaryField
{
    inlet
    {
        type            calculated;
        value           nonuniform 0();
    }
    outlet
    {
        type            calculated;
        value           nonuniform 0();
    }
    bottom
    {
        type            calculated;
        value           nonuniform List<scalar> 
40
(
1.22947e-12
1.75131e-12
2.59739e-12
5.09772e-12
1.69293e-12
1.64851e-12
2.26626e-12
4.45113e-12
1.91329e-12
2.18895e-12
2.27868e-12
2.66253e-12
2.59749e-12
2.33376e-12
3.3441e-12
4.72248e-12
3.12232e-12
2.49691e-12
4.83642e-12
1.24224e-11
2.66503e-12
3.47725e-12
4.26728e-12
6.94464e-12
5.01719e-12
3.40847e-12
4.43919e-12
5.54229e-12
3.6578e-12
6.25147e-12
5.09409e-12
7.44261e-12
4.58523e-12
5.36835e-12
7.76175e-12
7.23895e-12
3.487e-12
7.11044e-12
1.05706e-11
9.2885e-12
)
;
    }
    top
    {
        type            symmetryPlane;
    }
    side1
    {
        type            symmetryPlane;
    }
    side2
    {
        type            symmetryPlane;
    }
    procBoundary20to12
    {
        type            processor;
        value           nonuniform List<scalar> 
50
(
1.04562e+12
1.36358e+12
1.83876e+12
2.47612e+12
2.55522e+12
2.38818e+12
2.32242e+12
3.22968e+12
1.75257e+12
3.94601e+12
6.68587e+11
9.06648e+11
1.64004e+12
1.75423e+12
1.83692e+12
1.83993e+12
1.96934e+12
2.12156e+12
2.81259e+12
1.87807e+12
4.16016e+11
6.72971e+11
9.04736e+11
1.0386e+12
9.68117e+11
1.37541e+12
1.66414e+12
2.02843e+12
2.33174e+12
2.63616e+12
3.77795e+11
6.6119e+11
6.96101e+11
7.54445e+11
1.18977e+12
1.11943e+12
1.78603e+12
2.59324e+12
2.80697e+12
2.01301e+12
2.47634e+11
5.77051e+11
7.68057e+11
1.00101e+12
1.05465e+12
1.41606e+12
1.4461e+12
1.78266e+12
1.55318e+12
2.17871e+12
)
;
    }
    procBoundary20to19
    {
        type            processor;
        value           nonuniform List<scalar> 
20
(
1.18858e+12
1.34518e+12
2.75533e+12
3.67045e+12
3.68011e+11
2.80969e+11
1.60573e+12
3.32477e+12
3.60047e+11
6.11955e+11
9.93887e+11
2.32757e+12
1.29782e+12
2.88529e+11
5.01005e+11
2.1412e+12
3.10297e+11
2.91191e+11
9.17771e+11
1.44581e+12
)
;
    }
    procBoundary20to21
    {
        type            processor;
        value           nonuniform List<scalar> 
20
(
4.90435e+12
2.33268e+13
5.0209e+12
1.38624e+13
4.67384e+12
3.71966e+12
6.23388e+12
3.66334e+12
3.66712e+12
4.68225e+12
4.77866e+12
6.22908e+12
1.62529e+12
3.99017e+12
5.29293e+12
1.00869e+13
3.42671e+12
3.95936e+12
6.06103e+12
1.21763e+13
)
;
    }
    procBoundary20to28
    {
        type            processor;
        value           nonuniform List<scalar> 
50
(
3.52115e+12
5.22868e+12
2.68631e+12
8.20683e+12
6.08459e+12
9.64195e+12
4.5999e+12
3.21145e+12
1.12432e+13
1.28952e+13
9.60811e+11
1.08904e+12
2.37433e+12
2.98761e+12
1.94938e+12
2.36136e+12
5.73982e+12
3.81944e+12
6.94496e+12
6.58907e+12
2.07511e+12
2.44151e+12
3.22294e+12
4.49211e+12
3.50721e+12
5.89922e+12
5.31902e+12
6.88458e+12
8.69452e+12
7.23432e+12
3.55653e+12
3.2146e+12
4.00146e+12
3.81487e+12
4.81396e+12
6.71047e+12
8.36204e+12
8.79428e+12
2.18488e+12
1.13192e+13
3.47151e+12
4.60321e+12
6.74461e+12
7.16136e+12
7.89097e+12
1.17051e+13
9.98132e+12
1.41515e+12
9.62214e+12
1.29569e+13
)
;
    }
}


// ************************************************************************* //
