/*--------------------------------*- C++ -*----------------------------------*\
| =========                 |                                                 |
| \\      /  F ield         | OpenFOAM: The Open Source CFD Toolbox           |
|  \\    /   O peration     | Version:  2.4.0                                 |
|   \\  /    A nd           | Web:      www.OpenFOAM.org                      |
|    \\/     M anipulation  |                                                 |
\*---------------------------------------------------------------------------*/
FoamFile
{
    version     2.0;
    format      ascii;
    class       volVectorField;
    location    "0.08";
    object      Ub;
}
// * * * * * * * * * * * * * * * * * * * * * * * * * * * * * * * * * * * * * //

dimensions      [0 1 -1 0 0 0 0];

internalField   nonuniform List<vector> 
200
(
(-1.17002e+06 -302953 -247409)
(-640706 -3.2322e+06 2.89611e+06)
(-1.06506e+06 1.92707e+06 -576037)
(-1.1605e+06 -1.64127e+06 1.5882e+06)
(-1.59502e+06 1.62743e+06 -733421)
(-1.57371e+06 -988525 763646)
(-2.35208e+06 2.19446e+06 -958588)
(-1.97559e+06 45509.6 -147711)
(-3.18443e+06 -174232 -1.25767e+06)
(-1.47879e+06 3.52605e+06 -455696)
(-186535 680898 79212)
(-822182 -36388.1 -322232)
(-794054 -1.10321e+06 1.31482e+06)
(-1.09977e+06 1.00141e+06 -438438)
(-1.15612e+06 -888673 1.14488e+06)
(-1.44039e+06 2.11041e+06 -581843)
(-1.30588e+06 -332661 748915)
(-1.65857e+06 2.74689e+06 -459753)
(-1.23248e+06 651344 146275)
(-2.47357e+06 269656 -397483)
(-241879 -159906 13386.7)
(-171128 156990 81291.2)
(-582008 107697 -266274)
(-445528 -357988 519587)
(-818337 902502 -152900)
(-576382 -284949 620978)
(-762877 2.11768e+06 -242222)
(-550923 -87546.2 788912)
(-726646 2.68893e+06 -75419)
(-358057 697042 360845)
(62599.7 203372 123479)
(86156.1 160932 -74297.6)
(-11235 255567 72731.2)
(-48815.6 326718 -124973)
(-149141 27158.3 335893)
(-231461 681632 -44568.6)
(-193410 -171898 573164)
(-53640.4 1.61445e+06 -28608.8)
(80133.3 -138859 798571)
(94715.9 2.11558e+06 83334.4)
(-1.39406e+06 987277 -33082.6)
(-1.90062e+06 109438 -205727)
(-812409 -3.94218e+06 3.3554e+06)
(-1.09505e+06 2.51575e+06 -617542)
(-1.26284e+06 -1.65114e+06 1.71036e+06)
(-2.03173e+06 2.5514e+06 -989566)
(-2.07481e+06 -41939.9 28340.8)
(-4.19599e+06 -2.40388e+06 -2.72885e+06)
(-770774 6.27637e+06 -1.05831e+06)
(-4.63048e+06 -6.80437e+06 -3.10273e+06)
(-575258 -41219.4 -36405)
(-347366 962812 -25501.9)
(-1.19083e+06 372642 -216469)
(-860117 -1.59194e+06 1.87897e+06)
(-1.16164e+06 1.82051e+06 -478887)
(-1.07406e+06 -612930 1.24342e+06)
(-847719 3.1984e+06 -576352)
(-1.12289e+06 521753 500137)
(-2.96776e+06 -2.15847e+06 -1.58287e+06)
(589380 4.85502e+06 914784)
(-357119 503183 61495.3)
(-287045 47879.7 -116571)
(-69411.2 432522 32385.5)
(-680783 445317 -228878)
(-329170 -354563 805287)
(-493711 1.44048e+06 -169048)
(-299978 -206526 1.06186e+06)
(368155 2.58345e+06 -122336)
(-237384 373633 934294)
(-564744 -135899 34918.1)
(198238 326732 64694.1)
(43307.2 202191 290956)
(108678 236884 -80795.3)
(132215 276339 196512)
(46552.8 370673 -35565.7)
(211480 108726 460311)
(159591 645718 70142.2)
(533443 -89441.2 831192)
(659021 1.0095e+06 180856)
(744311 -245824 992152)
(-1.37412e+06 -252001 205629)
(-1.74969e+06 1.10047e+06 338935)
(-2.33435e+06 340299 228981)
(-1.28843e+06 -4.40652e+06 3.87204e+06)
(-1.543e+06 3.61978e+06 -744888)
(-1.91433e+06 -1.30617e+06 1.8662e+06)
(-3.64021e+06 3.6738e+06 -650371)
(-4.01085e+06 2.43742e+06 213639)
(-9.00045e+06 -1.37903e+07 -6.51719e+06)
(-708422 9.89431e+06 -1.03395e+06)
(-904211 812417 346245)
(-840506 133008 92762.9)
(-570517 1.24993e+06 182041)
(-1.51573e+06 759392 56982.5)
(-1.15932e+06 -1.48055e+06 2.16755e+06)
(-1.18852e+06 3.10609e+06 -611079)
(-1.10139e+06 -399.035 1.4735e+06)
(-335067 4.46953e+06 -554293)
(-1.37403e+06 2.81591e+06 615426)
(-5.30179e+06 -1.02838e+07 -4.51273e+06)
(-312071 271985 156527)
(-512724 699332 269602)
(-434271 269063 4975.29)
(-124157 814479 219851)
(-795250 865659 -23430)
(-270480 -168151 1.28075e+06)
(141187 2.27753e+06 -304962)
(334473 121507 1.37989e+06)
(1.56868e+06 3.03927e+06 -200940)
(416433 1.41899e+06 1.25723e+06)
(-77506.2 89593.7 662449)
(53733.6 278756 182165)
(-62758.8 455811 362047)
(46948.5 339145 15359.6)
(282592 507567 298257)
(62382.1 575216 32632.9)
(578751 179294 755682)
(532286 839838 118011)
(1.02813e+06 -338254 1.06364e+06)
(1.33165e+06 612475 163401)
(-1.60447e+06 733803 453664)
(-1.50806e+06 -127936 -70172.3)
(-1.94292e+06 1.06045e+06 490280)
(-2.15158e+06 462895 228216)
(-1.74824e+06 -2.01919e+06 2.81675e+06)
(-2.37481e+06 3.12646e+06 -241228)
(-2.99222e+06 439515 1.8423e+06)
(-4.75831e+06 3.82032e+06 830614)
(-6.12561e+06 4.06185e+06 1.72892e+06)
(-1.22549e+07 -2.0975e+07 -5.43451e+06)
(-1.03964e+06 203654 -246308)
(-1.28104e+06 956359 350912)
(-1.1192e+06 354723 -212260)
(-1.0493e+06 1.40601e+06 243334)
(-1.47023e+06 1.0577e+06 -85160.2)
(-1.3109e+06 403838 1.51293e+06)
(-1.18023e+06 3.12735e+06 -428000)
(-1.23744e+06 1.65876e+06 1.39421e+06)
(-245822 4.98142e+06 77759)
(-2.90689e+06 4.83277e+06 1.20336e+06)
(-1.07776e+06 458754 764581)
(-722976 436205 -112190)
(-872464 984695 306230)
(-665894 591621 -245425)
(-472317 1.28934e+06 274145)
(-634490 1.2236e+06 -216491)
(-189404 975653 1.14182e+06)
(237608 2.73608e+06 -405719)
(703050 1.46359e+06 1.21284e+06)
(2.29196e+06 3.1021e+06 -248098)
(-644411 345112 108176)
(-696791 386489 763943)
(-382470 497789 27840.1)
(-388364 845030 358449)
(-154380 620679 -162272)
(113700 1.07041e+06 369076)
(61829.3 1.00759e+06 -173925)
(653371 751238 1.05188e+06)
(813399 1.52589e+06 -266201)
(1.36375e+06 224042 1.03177e+06)
(-626412 199515 -870254)
(-1.3194e+06 547976 557025)
(-1.25914e+06 244378 -540136)
(-1.73683e+06 992147 828883)
(-1.94801e+06 521489 -148830)
(-1.77436e+06 295487 1.74667e+06)
(-2.42235e+06 1.72713e+06 353460)
(-2.41306e+06 1.25797e+06 1.75405e+06)
(-3.48552e+06 3.73062e+06 1.76156e+06)
(-4.6548e+06 3.53151e+06 2.32799e+06)
(-1.1856e+06 338098 1.07004e+06)
(-623063 561990 -816935)
(-1.13896e+06 899392 496921)
(-1.02109e+06 770678 -697197)
(-1.14074e+06 1.45949e+06 757948)
(-1.41554e+06 1.10973e+06 -334396)
(-1.03259e+06 1.36726e+06 1.52258e+06)
(-1.21952e+06 2.43519e+06 90433.2)
(-489098 2.15784e+06 1.40852e+06)
(582406 4.55436e+06 567475)
(-410895 675332 -823736)
(-954405 490213 1.00147e+06)
(-413861 848799 -716421)
(-746738 1.10924e+06 485595)
(-583452 1.10663e+06 -784261)
(-510143 1.60737e+06 825336)
(-651149 1.37992e+06 -476038)
(33094.3 1.57114e+06 1.42252e+06)
(95478.2 2.32515e+06 -107936)
(1.27253e+06 1.87837e+06 1.10652e+06)
(-1.32248e+06 -304191 1.92984e+06)
(-378940 721359 -604041)
(-678103 553917 923528)
(-168529 972809 -596412)
(-326203 1.11054e+06 501804)
(-142397 1.1792e+06 -814567)
(55434.2 1.49015e+06 884571)
(-39046.3 1.23598e+06 -549943)
(653931 1.20745e+06 1.33556e+06)
(591713 1.62583e+06 -205051)
)
;

boundaryField
{
    inlet
    {
        type            fixedValue;
        value           nonuniform 0();
    }
    outlet
    {
        type            zeroGradient;
    }
    bottom
    {
        type            fixedValue;
        value           uniform (0 0 0);
    }
    top
    {
        type            symmetryPlane;
    }
    side1
    {
        type            symmetryPlane;
    }
    side2
    {
        type            symmetryPlane;
    }
    procBoundary3to2
    {
        type            processor;
        value           nonuniform List<vector> 
20
(
(-863019 873027 -14598.1)
(-378207 -231397 45396.7)
(-287066 318510 28567.8)
(255527 410439 -97171.8)
(-1.07581e+06 -339696 17837.6)
(-661643 605538 110817)
(-117655 205311 51280.8)
(28619.3 2317.64 457956)
(-1.36791e+06 752168 439685)
(-681957 25863.2 238882)
(-533467 154267 708744)
(28700.7 36667 297699)
(-1.21579e+06 -188321 -360894)
(-1.40501e+06 500692 832143)
(-792391 402730 -8922.4)
(-1.10323e+06 -150840 1.3987e+06)
(-1.1342e+06 35669.1 1.2234e+06)
(-432888 520625 -1.08778e+06)
(-1.51886e+06 -435814 2.30148e+06)
(-710281 535849 -1.1464e+06)
)
;
    }
    procBoundary3to4
    {
        type            processor;
        value           nonuniform List<vector> 
20
(
(-4.08304e+06 -2.14852e+06 -687869)
(-269726 4.805e+06 -31443.9)
(-1.30677e+06 447031 225180)
(356010 404967 492044)
(-292909 6.70473e+06 -513788)
(-2.79321e+06 -3.83549e+06 -999829)
(719970 1.86781e+06 1.37888e+06)
(890714 1.02208e+06 367853)
(-6.64821e+06 -1.10177e+07 -4.06621e+06)
(-333432 3.66266e+06 1.7501e+06)
(-436312 -1.64722e+06 -519215)
(1.12761e+06 -431749 1.1836e+06)
(-1.28276e+06 1.24463e+07 153996)
(-8.25678e+06 -1.67187e+07 -4.73071e+06)
(222855 2.32229e+06 908947)
(1.93212e+06 844378 -238639)
(-8.1455e+06 -1.57163e+07 -4.82859e+06)
(-2.3406e+06 4.00193e+06 1.89914e+06)
(2.25534e+06 2.73679e+06 12562.1)
(1.35086e+06 622152 1.06437e+06)
)
;
    }
    procBoundary3to11
    {
        type            processor;
        value           nonuniform List<vector> 
50
(
(324492 258815 -114199)
(270980 172687 207393)
(308268 257123 -102125)
(323770 183441 230753)
(290127 273879 -64178.8)
(362504 244688 267214)
(242833 385861 557.711)
(440797 113515 371784)
(333704 525637 61331.5)
(621570 -131687 546008)
(309978 52113.2 424639)
(333078 182727 69088.1)
(370754 142984 354115)
(393488 190016 50350.3)
(484752 177082 345839)
(488926 217983 101701)
(641273 170137 414293)
(616603 209067 234025)
(874527 -20965.3 501803)
(873414 111138 385446)
(181949 -36250 204480)
(226963 74780.9 543192)
(282163 98661.2 199738)
(348582 178269 480168)
(424470 147185 161915)
(592158 180903 435076)
(624570 158961 185188)
(889326 68869.7 479073)
(917370 125919 260189)
(1.23372e+06 -119887 613958)
(-805274 -235034 1.12751e+06)
(-473994 146604 50654)
(-347268 255340 642394)
(-111499 366376 108149)
(29599.9 621148 442247)
(230465 524197 -65366.4)
(519796 699276 441904)
(577602 557491 -128655)
(933327 474990 680713)
(989129 559761 -184753)
(-649406 430870 -819369)
(-1.04138e+06 -206553 1.42345e+06)
(-331932 654872 -433917)
(-423672 542432 786752)
(24583.8 953905 -491152)
(279.253 993018 534053)
(161299 1.09108e+06 -801896)
(400047 1.21332e+06 921648)
(268378 963047 -643333)
(804713 877721 1.20003e+06)
)
;
    }
}


// ************************************************************************* //
