/*--------------------------------*- C++ -*----------------------------------*\
| =========                 |                                                 |
| \\      /  F ield         | OpenFOAM: The Open Source CFD Toolbox           |
|  \\    /   O peration     | Version:  2.4.0                                 |
|   \\  /    A nd           | Web:      www.OpenFOAM.org                      |
|    \\/     M anipulation  |                                                 |
\*---------------------------------------------------------------------------*/
FoamFile
{
    version     2.0;
    format      ascii;
    class       volScalarField;
    location    "0.05";
    object      alpha;
}
// * * * * * * * * * * * * * * * * * * * * * * * * * * * * * * * * * * * * * //

dimensions      [0 0 0 0 0 0 0];

internalField   nonuniform List<scalar> 
200
(
1.15949e-18
4.59221e-17
9.91273e-16
4.59602e-17
1.16309e-18
2.12611e-20
3.1393e-22
3.97327e-24
4.47012e-26
4.6236e-28
3.16172e-21
1.16042e-19
2.30115e-18
1.16369e-19
3.19009e-21
6.2798e-23
9.93454e-25
1.34117e-26
1.60318e-28
1.75667e-30
7.71765e-24
2.64436e-22
4.85647e-21
2.66002e-22
7.85243e-24
1.65613e-25
2.79458e-27
4.00845e-29
5.07331e-31
5.87089e-33
1.73457e-26
5.57388e-25
9.53515e-24
5.62388e-25
1.77886e-26
4.00224e-28
7.1763e-30
1.09002e-31
1.45641e-33
1.77523e-35
2.34429e-16
1.01159e-14
2.40007e-13
1.0116e-14
2.34635e-16
3.95849e-18
5.42642e-20
6.40891e-22
6.75841e-24
6.57454e-26
5.92217e-19
2.34736e-17
5.06394e-16
2.34742e-17
5.9393e-19
1.08548e-20
1.60244e-22
2.02773e-24
2.28084e-26
2.35868e-28
1.34916e-21
4.95187e-20
9.79445e-19
4.95206e-20
1.35726e-21
2.67129e-23
4.2251e-25
5.7028e-27
6.8155e-29
7.46653e-31
2.84298e-24
9.71814e-23
1.77449e-21
9.71865e-23
2.86877e-24
6.05002e-26
1.02082e-27
1.46413e-29
1.85296e-31
2.14412e-33
1.15748e-18
4.58469e-17
9.89044e-16
4.58477e-17
1.16001e-18
2.12006e-20
3.12973e-22
3.96036e-24
4.45471e-26
4.60673e-28
3.16404e-21
1.16059e-19
2.29555e-18
1.16063e-19
3.18105e-21
6.26075e-23
9.90241e-25
1.33657e-26
1.59735e-28
1.74993e-30
7.7582e-24
2.65237e-22
4.84375e-21
2.65251e-22
7.82867e-24
1.65079e-25
2.785e-27
3.99392e-29
5.0539e-31
5.84724e-33
1.7822e-26
5.60657e-25
9.50843e-24
5.60693e-25
1.77314e-26
3.98856e-28
7.15032e-30
1.08586e-31
1.45055e-33
1.76772e-35
3.09437e-21
1.1334e-19
2.24175e-18
1.13343e-19
3.1065e-21
6.11402e-23
9.67034e-25
1.30525e-26
1.55992e-28
1.70892e-30
9.0999e-24
3.10826e-22
5.67627e-21
3.10841e-22
9.17422e-24
1.93452e-25
3.26367e-27
4.68037e-29
5.92253e-31
6.85222e-33
2.38962e-26
7.65007e-25
1.29758e-23
7.65058e-25
2.41911e-26
5.44089e-28
9.75265e-30
1.48086e-31
1.97795e-33
2.41012e-35
5.98268e-29
1.73284e-27
2.74359e-26
1.73297e-27
5.84521e-29
1.39696e-30
2.65159e-32
4.25037e-34
5.97666e-36
7.65157e-38
5.94667e-24
2.02656e-22
3.70045e-21
2.02663e-22
5.98206e-24
1.26153e-25
2.12852e-27
3.05278e-29
3.86339e-31
4.47032e-33
1.8722e-26
5.9859e-25
1.0152e-23
5.98627e-25
1.89305e-26
4.25816e-28
7.63342e-30
1.15919e-31
1.54847e-33
1.88699e-35
5.24288e-29
1.57867e-27
2.49959e-26
1.5788e-27
5.32507e-29
1.27261e-30
2.41549e-32
3.87181e-34
5.4442e-36
6.96969e-38
1.43137e-31
3.81526e-30
5.66411e-29
3.81558e-30
1.36743e-31
3.46049e-33
6.93385e-35
1.17006e-36
1.7277e-38
2.31863e-40
)
;

boundaryField
{
    inlet
    {
        type            zeroGradient;
    }
    outlet
    {
        type            zeroGradient;
    }
    bottom
    {
        type            fixedValue;
        value           uniform 0;
    }
    top
    {
        type            symmetryPlane;
    }
    side1
    {
        type            symmetryPlane;
    }
    side2
    {
        type            symmetryPlane;
    }
    procBoundary31to23
    {
        type            processor;
        value           nonuniform List<scalar> 
50
(
3.67518e-16
1.5842e-14
3.7578e-13
1.5842e-14
3.67519e-16
6.20164e-18
8.50314e-20
1.00447e-21
1.05947e-23
1.03086e-25
8.08965e-14
3.83636e-12
1.01116e-10
3.83635e-12
8.08966e-14
1.2511e-15
1.58314e-17
1.73624e-19
1.70888e-21
1.55768e-23
3.6661e-16
1.58062e-14
3.75007e-13
1.58061e-14
3.66612e-16
6.18505e-18
8.47866e-20
1.00138e-21
1.05598e-23
1.02725e-25
9.06243e-19
3.58185e-17
7.72687e-16
3.58184e-17
9.06253e-19
1.65629e-20
2.4451e-22
3.09403e-24
3.48023e-26
3.599e-28
1.62027e-21
5.91118e-20
1.16902e-18
5.91116e-20
1.6203e-21
3.18931e-23
5.04494e-25
6.81008e-27
8.13966e-29
8.9181e-31
)
;
    }
    procBoundary31to30
    {
        type            processor;
        value           nonuniform List<scalar> 
20
(
2.05022e-20
5.91761e-23
1.53908e-25
3.73835e-28
3.87339e-18
1.04844e-20
2.55488e-23
5.77889e-26
2.05493e-20
5.98464e-23
1.57169e-25
5.18321e-26
5.87018e-23
1.8304e-25
5.16604e-28
3.62043e-28
1.2e-25
3.98924e-28
1.20751e-30
1.3456e-30
)
;
    }
}


// ************************************************************************* //
