/*--------------------------------*- C++ -*----------------------------------*\
| =========                 |                                                 |
| \\      /  F ield         | OpenFOAM: The Open Source CFD Toolbox           |
|  \\    /   O peration     | Version:  2.4.0                                 |
|   \\  /    A nd           | Web:      www.OpenFOAM.org                      |
|    \\/     M anipulation  |                                                 |
\*---------------------------------------------------------------------------*/
FoamFile
{
    version     2.0;
    format      ascii;
    class       volVectorField;
    location    "0.05";
    object      Uc;
}
// * * * * * * * * * * * * * * * * * * * * * * * * * * * * * * * * * * * * * //

dimensions      [0 1 -1 0 0 0 0];

internalField   nonuniform List<vector> 
200
(
(-2.19817e-17 -1.31655e-18 -1.26494e-17)
(-8.6862e-16 -5.20242e-17 -5.00983e-16)
(-1.87344e-14 -1.12206e-15 -1.08141e-14)
(-8.6862e-16 -5.20242e-17 -5.01397e-16)
(-2.19818e-17 -1.31655e-18 -1.26886e-17)
(-4.01825e-19 -2.40665e-20 -2.31946e-19)
(-5.93317e-21 -3.55355e-22 -3.4248e-21)
(-7.50937e-23 -4.49758e-24 -4.33462e-23)
(-8.44844e-25 -5.06002e-26 -4.87667e-25)
(-8.73855e-27 -5.23378e-28 -5.04412e-27)
(-6.0287e-20 -3.61074e-21 -3.44933e-20)
(-2.19935e-18 -1.31725e-19 -1.26596e-18)
(-4.34911e-17 -2.60481e-18 -2.51042e-17)
(-2.19935e-18 -1.31726e-19 -1.26953e-18)
(-6.02922e-20 -3.61108e-21 -3.48022e-20)
(-1.18688e-21 -7.10856e-23 -6.85095e-22)
(-1.87763e-23 -1.12457e-24 -1.08381e-23)
(-2.53483e-25 -1.51819e-26 -1.46316e-25)
(-3.03003e-27 -1.81478e-28 -1.749e-27)
(-3.32014e-29 -1.98853e-30 -1.91645e-29)
(-1.48364e-22 -8.8858e-24 -8.4198e-23)
(-5.02745e-21 -3.01107e-22 -2.88491e-21)
(-9.17876e-20 -5.49743e-21 -5.29815e-20)
(-5.02745e-21 -3.01109e-22 -2.90195e-21)
(-1.48412e-22 -8.88881e-24 -8.56663e-23)
(-3.13012e-24 -1.87472e-25 -1.80677e-24)
(-5.28182e-26 -3.16344e-27 -3.04877e-26)
(-7.5761e-28 -4.53755e-29 -4.37307e-28)
(-9.58876e-30 -5.74299e-31 -5.5348e-30)
(-1.10963e-31 -6.64588e-33 -6.40495e-32)
(-3.3596e-25 -2.0036e-26 -1.89238e-25)
(-1.06293e-23 -6.34101e-25 -6.08096e-24)
(-1.80219e-22 -1.0754e-23 -1.04024e-22)
(-1.06293e-23 -6.34108e-25 -6.13541e-24)
(-3.36211e-25 -2.00519e-26 -1.94067e-25)
(-7.56439e-27 -4.51027e-28 -4.36629e-27)
(-1.35635e-28 -8.08513e-30 -7.82909e-29)
(-2.0602e-30 -1.22775e-31 -1.18918e-30)
(-2.7527e-32 -1.64e-33 -1.5889e-32)
(-3.35529e-34 -1.99848e-35 -1.93672e-34)
(-4.43436e-15 -2.65587e-16 -2.55748e-15)
(-1.91184e-13 -1.14506e-14 -1.10358e-13)
(-4.5359e-12 -2.71669e-13 -2.6183e-12)
(-1.91184e-13 -1.14506e-14 -1.10359e-13)
(-4.43437e-15 -2.65588e-16 -2.55969e-15)
(-7.48116e-17 -4.48069e-18 -4.31842e-17)
(-1.02554e-18 -6.14226e-20 -5.91983e-19)
(-1.21122e-20 -7.25436e-22 -6.99165e-21)
(-1.27727e-22 -7.64995e-24 -7.37292e-23)
(-1.24252e-24 -7.44183e-26 -7.17233e-25)
(-1.12247e-17 -6.72277e-19 -6.46082e-18)
(-4.4364e-16 -2.65709e-17 -2.56083e-16)
(-9.57036e-15 -5.73197e-16 -5.52439e-15)
(-4.4364e-16 -2.65709e-17 -2.56086e-16)
(-1.12247e-17 -6.7228e-19 -6.47934e-18)
(-2.05145e-19 -1.22867e-20 -1.18418e-19)
(-3.02846e-21 -1.81383e-22 -1.74815e-21)
(-3.83221e-23 -2.29523e-24 -2.21211e-23)
(-4.31056e-25 -2.58173e-26 -2.48823e-25)
(-4.45767e-27 -2.66983e-28 -2.57315e-27)
(-2.56508e-20 -1.5363e-21 -1.47188e-20)
(-9.35893e-19 -5.60534e-20 -5.40222e-19)
(-1.85106e-17 -1.10865e-18 -1.0685e-17)
(-9.35892e-19 -5.60533e-20 -5.40234e-19)
(-2.5651e-20 -1.53631e-21 -1.48068e-20)
(-5.04847e-22 -3.02368e-23 -2.91418e-22)
(-7.98501e-24 -4.78246e-25 -4.60927e-24)
(-1.07777e-25 -6.45509e-27 -6.22134e-26)
(-1.28806e-27 -7.71458e-29 -7.43521e-28)
(-1.4111e-29 -8.45148e-31 -8.14543e-30)
(-5.42163e-23 -3.23434e-24 -3.10161e-23)
(-1.83673e-21 -1.09602e-22 -1.0602e-21)
(-3.35361e-20 -2.0017e-21 -1.93584e-20)
(-1.83673e-21 -1.09602e-22 -1.06023e-21)
(-5.42168e-23 -3.23439e-24 -3.12961e-23)
(-1.14339e-24 -6.81929e-26 -6.60013e-25)
(-1.92924e-26 -1.15031e-27 -1.11364e-26)
(-2.76706e-28 -1.64943e-29 -1.59726e-28)
(-3.5019e-30 -2.08691e-31 -2.02144e-30)
(-4.05217e-32 -2.41419e-33 -2.33908e-32)
(-2.1923e-17 -1.31303e-18 -1.26275e-17)
(-8.66478e-16 -5.18959e-17 -5.0016e-16)
(-1.8692e-14 -1.11952e-15 -1.07897e-14)
(-8.66477e-16 -5.18959e-17 -5.00165e-16)
(-2.1923e-17 -1.31304e-18 -1.26548e-17)
(-4.00669e-19 -2.39973e-20 -2.31282e-19)
(-5.91488e-21 -3.5426e-22 -3.41431e-21)
(-7.48469e-23 -4.4828e-24 -4.32046e-23)
(-8.41894e-25 -5.04235e-26 -4.85975e-25)
(-8.70624e-27 -5.21442e-28 -5.02559e-27)
(-6.01184e-20 -3.60065e-21 -3.45185e-20)
(-2.19348e-18 -1.31374e-19 -1.26613e-18)
(-4.33837e-17 -2.59838e-18 -2.50428e-17)
(-2.19347e-18 -1.31374e-19 -1.26616e-18)
(-6.01187e-20 -3.60069e-21 -3.47029e-20)
(-1.18322e-21 -7.08665e-23 -6.83002e-22)
(-1.87146e-23 -1.12087e-24 -1.08028e-23)
(-2.52598e-25 -1.51289e-26 -1.4581e-25)
(-3.01883e-27 -1.80807e-28 -1.74259e-27)
(-3.30719e-29 -1.98077e-30 -1.90904e-29)
(-1.47953e-22 -8.86126e-24 -8.46396e-23)
(-5.01299e-21 -3.00243e-22 -2.89361e-21)
(-9.15422e-20 -5.48274e-21 -5.28418e-20)
(-5.01298e-21 -3.00242e-22 -2.8937e-21)
(-1.47954e-22 -8.86141e-24 -8.54051e-23)
(-3.11983e-24 -1.86856e-25 -1.80089e-24)
(-5.26338e-26 -3.15239e-27 -3.03823e-26)
(-7.5481e-28 -4.52078e-29 -4.35707e-28)
(-9.55135e-30 -5.72059e-31 -5.51343e-30)
(-1.10507e-31 -6.61858e-33 -6.3789e-32)
(-3.20654e-25 -1.94783e-26 -1.88054e-25)
(-1.05965e-23 -6.32151e-25 -6.11648e-24)
(-1.797e-22 -1.07231e-23 -1.0373e-22)
(-1.05965e-23 -6.32153e-25 -6.11675e-24)
(-3.35106e-25 -1.9986e-26 -1.93437e-25)
(-7.53797e-27 -4.49452e-28 -4.35122e-27)
(-1.35134e-28 -8.05524e-30 -7.80048e-29)
(-2.05216e-30 -1.22296e-31 -1.18459e-30)
(-2.7414e-32 -1.63327e-33 -1.58245e-32)
(-3.34082e-34 -1.98986e-35 -1.92846e-34)
(-5.87094e-20 -3.51627e-21 -3.37581e-20)
(-2.14207e-18 -1.28295e-19 -1.23647e-18)
(-4.2367e-17 -2.53748e-18 -2.44559e-17)
(-2.14207e-18 -1.28295e-19 -1.23649e-18)
(-5.87097e-20 -3.5163e-21 -3.38896e-20)
(-1.15549e-21 -6.92057e-23 -6.66995e-22)
(-1.8276e-23 -1.0946e-24 -1.05496e-23)
(-2.46678e-25 -1.47743e-26 -1.42393e-25)
(-2.94808e-27 -1.76569e-28 -1.70175e-27)
(-3.22968e-29 -1.93435e-30 -1.8643e-29)
(-1.73382e-22 -1.03843e-23 -9.92769e-23)
(-5.87459e-21 -3.51847e-22 -3.39095e-21)
(-1.07276e-19 -6.42508e-21 -6.1924e-20)
(-5.87459e-21 -3.51846e-22 -3.39105e-21)
(-1.73384e-22 -1.03845e-23 -1.00084e-22)
(-3.65604e-24 -2.18971e-25 -2.11042e-24)
(-6.16801e-26 -3.69421e-27 -3.56043e-26)
(-8.84541e-28 -5.29778e-29 -5.10593e-28)
(-1.1193e-29 -6.70381e-31 -6.46104e-30)
(-1.295e-31 -7.75614e-33 -7.47526e-32)
(-4.57179e-25 -2.73816e-26 -2.60701e-25)
(-1.44589e-23 -8.65984e-25 -8.34587e-24)
(-2.4523e-22 -1.46876e-23 -1.41557e-22)
(-1.44588e-23 -8.65982e-25 -8.34622e-24)
(-4.57187e-25 -2.73823e-26 -2.63907e-25)
(-1.02827e-26 -6.15864e-28 -5.93562e-27)
(-1.84315e-28 -1.10392e-29 -1.06394e-28)
(-2.79867e-30 -1.6762e-31 -1.6155e-30)
(-3.73813e-32 -2.23888e-33 -2.1578e-32)
(-4.55489e-34 -2.72806e-35 -2.62927e-34)
(-9.97419e-28 -6.21079e-29 -6.0534e-28)
(-3.27507e-26 -1.9533e-27 -1.89042e-26)
(-5.18511e-25 -3.09325e-26 -2.99305e-25)
(-3.27513e-26 -1.95331e-27 -1.89054e-26)
(-1.10469e-27 -6.5867e-29 -6.3767e-28)
(-2.64011e-29 -1.57375e-30 -1.52398e-29)
(-5.01123e-31 -2.98638e-32 -2.89269e-31)
(-8.03276e-33 -4.78575e-34 -4.63684e-33)
(-1.12953e-34 -6.72772e-36 -6.52009e-35)
(-1.44607e-36 -8.61082e-38 -8.3473e-37)
(-1.13054e-22 -6.7711e-24 -6.46753e-23)
(-3.83014e-21 -2.29398e-22 -2.20449e-21)
(-6.99349e-20 -4.18861e-21 -4.02612e-20)
(-3.83013e-21 -2.29398e-22 -2.20454e-21)
(-1.13055e-22 -6.77119e-24 -6.50585e-23)
(-2.38417e-24 -1.42795e-25 -1.37171e-24)
(-4.02269e-26 -2.40931e-27 -2.31394e-26)
(-5.76945e-28 -3.4555e-29 -3.31803e-28)
(-7.30141e-30 -4.37303e-31 -4.19821e-30)
(-8.44844e-32 -5.06002e-33 -4.85672e-32)
(-3.57763e-25 -2.14272e-26 -2.03579e-25)
(-1.13135e-23 -6.77597e-25 -6.51017e-24)
(-1.91863e-22 -1.14912e-23 -1.10432e-22)
(-1.13134e-23 -6.77596e-25 -6.51043e-24)
(-3.57767e-25 -2.14277e-26 -2.05838e-25)
(-8.04748e-27 -4.81988e-28 -4.62909e-27)
(-1.44264e-28 -8.64039e-30 -8.29667e-29)
(-2.19075e-30 -1.3121e-31 -1.25965e-30)
(-2.92645e-32 -1.75273e-33 -1.68232e-32)
(-3.56622e-34 -2.13592e-35 -2.04968e-34)
(-1.00636e-27 -6.02732e-29 -5.69987e-28)
(-2.98378e-26 -1.78708e-27 -1.71659e-26)
(-4.72397e-25 -2.82933e-26 -2.71845e-25)
(-2.98378e-26 -1.78707e-27 -1.71669e-26)
(-1.00638e-27 -6.02753e-29 -5.78895e-28)
(-2.40511e-29 -1.44049e-30 -1.38319e-29)
(-4.56504e-31 -2.73414e-32 -2.62483e-31)
(-7.31733e-33 -4.38256e-34 -4.20649e-33)
(-1.0289e-34 -6.16237e-36 -5.91358e-35)
(-1.3172e-36 -7.8891e-38 -7.56902e-37)
(-2.16293e-30 -1.39314e-31 -1.37062e-30)
(-7.21082e-29 -4.29952e-30 -4.14763e-29)
(-1.07046e-27 -6.3843e-29 -6.15879e-28)
(-7.21107e-29 -4.2996e-30 -4.14797e-29)
(-2.58431e-30 -1.54049e-31 -1.48625e-30)
(-6.53998e-32 -3.89741e-33 -3.7604e-32)
(-1.31043e-33 -7.80725e-35 -7.53322e-34)
(-2.21129e-35 -1.3171e-36 -1.27094e-35)
(-3.26518e-37 -1.9443e-38 -1.87627e-37)
(-4.38197e-39 -2.60862e-40 -2.51749e-39)
)
;

boundaryField
{
    inlet
    {
        type            calculated;
        value           nonuniform 0();
    }
    outlet
    {
        type            calculated;
        value           uniform (0 0 0);
    }
    bottom
    {
        type            calculated;
        value           uniform (0 0 0);
    }
    top
    {
        type            symmetryPlane;
    }
    side1
    {
        type            symmetryPlane;
    }
    side2
    {
        type            symmetryPlane;
    }
    procBoundary31to23
    {
        type            processor;
        value           nonuniform List<vector> 
50
(
(-6.94579e-15 -4.16006e-16 -4.00936e-15)
(-2.994e-13 -1.7932e-14 -1.72824e-13)
(-7.10193e-12 -4.25355e-13 -4.09948e-12)
(-2.994e-13 -1.79319e-14 -1.72824e-13)
(-6.94579e-15 -4.16004e-16 -4.00936e-15)
(-1.17205e-16 -7.01978e-18 -6.76553e-17)
(-1.60702e-18 -9.6249e-20 -9.27629e-19)
(-1.89836e-20 -1.13699e-21 -1.09581e-20)
(-2.00229e-22 -1.19923e-23 -1.1558e-22)
(-1.94822e-24 -1.16685e-25 -1.12459e-24)
(-1.52888e-12 -9.15692e-14 -8.82522e-13)
(-7.25039e-11 -4.34247e-12 -4.18518e-11)
(-1.91101e-09 -1.14456e-10 -1.1031e-09)
(-7.25039e-11 -4.34247e-12 -4.18518e-11)
(-1.52888e-12 -9.15692e-14 -8.82523e-13)
(-2.36447e-14 -1.41615e-15 -1.36485e-14)
(-2.99201e-16 -1.792e-17 -1.72709e-16)
(-3.28136e-18 -1.9653e-19 -1.89411e-18)
(-3.22963e-20 -1.93432e-21 -1.86426e-20)
(-2.94389e-22 -1.76318e-23 -1.69932e-22)
(-6.92867e-15 -4.14978e-16 -3.99945e-15)
(-2.98723e-13 -1.78914e-14 -1.72434e-13)
(-7.08732e-12 -4.24481e-13 -4.09105e-12)
(-2.98723e-13 -1.78914e-14 -1.72433e-13)
(-6.92867e-15 -4.14978e-16 -3.99947e-15)
(-1.16892e-16 -7.00103e-18 -6.74743e-17)
(-1.6024e-18 -9.59722e-20 -9.24958e-19)
(-1.89252e-20 -1.13348e-21 -1.09243e-20)
(-1.99572e-22 -1.19529e-23 -1.152e-22)
(-1.94142e-24 -1.16277e-25 -1.12065e-24)
(-1.71274e-17 -1.02581e-18 -9.88648e-18)
(-6.76938e-16 -4.05438e-17 -3.90753e-16)
(-1.46032e-14 -8.74626e-16 -8.42945e-15)
(-6.76938e-16 -4.05438e-17 -3.90752e-16)
(-1.71274e-17 -1.02581e-18 -9.88655e-18)
(-3.13024e-19 -1.8748e-20 -1.80689e-19)
(-4.62103e-21 -2.76767e-22 -2.66742e-21)
(-5.84745e-23 -3.50221e-24 -3.37535e-23)
(-6.57735e-25 -3.93937e-26 -3.79667e-25)
(-6.80181e-27 -4.0738e-28 -3.92624e-27)
(-3.06223e-20 -1.83406e-21 -1.76251e-20)
(-1.11716e-18 -6.69101e-20 -6.43141e-19)
(-2.20935e-17 -1.32325e-18 -1.27217e-17)
(-1.11716e-18 -6.69101e-20 -6.43139e-19)
(-3.06223e-20 -1.83406e-21 -1.76254e-20)
(-6.02753e-22 -3.61006e-23 -3.46856e-22)
(-9.53452e-24 -5.71051e-25 -5.48555e-24)
(-1.28705e-25 -7.70851e-27 -7.40332e-26)
(-1.53833e-27 -9.21349e-29 -8.84689e-28)
(-1.68544e-29 -1.00946e-30 -9.69095e-30)
)
;
    }
    procBoundary31to30
    {
        type            processor;
        value           nonuniform List<vector> 
20
(
(-4.01228e-19 -2.403e-20 -2.23681e-19)
(-1.18276e-21 -7.08351e-23 -6.45622e-22)
(-3.11837e-24 -1.81819e-25 -1.66671e-24)
(-7.57306e-27 -3.6012e-28 -3.81203e-27)
(-7.47802e-17 -4.47871e-18 -4.22586e-17)
(-2.04936e-19 -1.22738e-20 -1.14385e-19)
(-5.03885e-22 -3.01779e-23 -2.7874e-22)
(-1.12319e-24 -6.73996e-26 -6.23008e-25)
(-4.00272e-19 -2.39728e-20 -2.24194e-19)
(-1.18092e-21 -7.0726e-23 -6.52931e-22)
(-3.06739e-24 -1.84741e-25 -1.69578e-24)
(2.40771e-24 8.45195e-26 5.01087e-25)
(-1.15351e-21 -6.90843e-23 -6.40446e-22)
(-3.6451e-24 -2.18304e-25 -1.997e-24)
(-9.92021e-27 -6.01808e-28 -5.49561e-27)
(1.69058e-26 5.92845e-28 3.52738e-27)
(-2.37812e-24 -1.42426e-25 -1.30491e-24)
(-8.01424e-27 -4.79968e-28 -4.33718e-27)
(-2.26666e-29 -1.38773e-30 -1.25759e-29)
(6.2943e-29 2.2034e-30 1.30756e-29)
)
;
    }
}


// ************************************************************************* //
