/*--------------------------------*- C++ -*----------------------------------*\
| =========                 |                                                 |
| \\      /  F ield         | OpenFOAM: The Open Source CFD Toolbox           |
|  \\    /   O peration     | Version:  2.4.0                                 |
|   \\  /    A nd           | Web:      www.OpenFOAM.org                      |
|    \\/     M anipulation  |                                                 |
\*---------------------------------------------------------------------------*/
FoamFile
{
    version     2.0;
    format      ascii;
    class       volVectorField;
    location    "0.01";
    object      gradp;
}
// * * * * * * * * * * * * * * * * * * * * * * * * * * * * * * * * * * * * * //

dimensions      [1 -2 -2 0 0 0 0];

internalField   nonuniform List<vector> 
40
(
(1.66113e+19 -8.10407e+18 -6.1357e+17)
(1.27645e+19 -5.9244e+18 -1.13317e+18)
(8.6497e+18 -5.08468e+18 -1.00385e+18)
(7.41033e+18 -4.72194e+18 -1.13594e+18)
(6.89699e+18 -4.24312e+18 -1.06551e+18)
(2.11697e+19 -9.1139e+18 -1.81726e+18)
(1.45159e+19 -7.9414e+18 -2.14845e+18)
(9.46639e+18 -5.6554e+18 -1.56343e+18)
(7.61169e+18 -4.0277e+18 -9.39868e+17)
(7.07554e+18 -3.39621e+18 -5.40724e+17)
(1.86172e+19 -7.18407e+18 -4.88633e+17)
(1.96815e+19 -8.09901e+18 -1.05457e+18)
(1.64771e+19 -6.52703e+18 -1.2426e+18)
(1.19287e+19 -4.37589e+18 -1.07007e+18)
(9.03697e+18 -2.95645e+18 -1.00834e+18)
(1.48965e+19 -1.11161e+18 -1.24108e+18)
(1.583e+19 -2.61519e+18 -6.67096e+17)
(1.69126e+19 -3.03735e+18 -5.33706e+17)
(1.47528e+19 -2.39743e+18 -9.40985e+17)
(1.20461e+19 -1.62528e+18 -1.04748e+18)
(1.47128e+19 -1.14587e+19 -5.34463e+18)
(1.15156e+19 -8.82564e+18 -5.44167e+18)
(8.64083e+18 -6.20634e+18 -5.37111e+18)
(7.21303e+18 -4.22436e+18 -5.09197e+18)
(8.07292e+18 -3.29848e+18 -4.66706e+18)
(1.96302e+19 -8.914e+18 -7.16701e+18)
(1.53282e+19 -7.81565e+18 -5.74161e+18)
(1.33339e+19 -6.0374e+18 -5.19687e+18)
(1.08843e+19 -3.92232e+18 -4.60278e+18)
(8.87397e+18 -3.30474e+18 -3.51491e+18)
(2.10763e+19 -6.26219e+18 -6.9599e+18)
(1.72688e+19 -5.72884e+18 -5.15894e+18)
(1.64275e+19 -4.87947e+18 -3.93986e+18)
(1.26784e+19 -4.37768e+18 -2.95239e+18)
(8.80286e+18 -3.76727e+18 -2.41025e+18)
(1.97453e+19 -2.31553e+18 -8.3075e+18)
(1.80936e+19 -1.99523e+18 -6.63813e+18)
(1.60362e+19 -1.90311e+18 -4.50116e+18)
(1.31088e+19 -2.19088e+18 -2.65091e+18)
(1.23095e+19 -1.68791e+18 -1.56347e+18)
)
;

boundaryField
{
    inlet
    {
        type            zeroGradient;
    }
    outlet
    {
        type            zeroGradient;
    }
    bottom
    {
        type            zeroGradient;
    }
    top
    {
        type            symmetryPlane;
    }
    side1
    {
        type            symmetryPlane;
    }
    side2
    {
        type            symmetryPlane;
    }
    procBoundary56to40
    {
        type            processor;
        value           nonuniform List<vector> 10((1.0598e+19 -1.0275e+19 2.79382e+17) (8.47716e+18 -7.63517e+18 -3.35173e+17) (7.06147e+18 -6.46252e+18 -8.62397e+17) (5.92857e+18 -5.7838e+18 -1.25085e+18) (4.51325e+18 -4.89304e+18 -1.13113e+18) (7.60454e+18 -1.06609e+19 -4.41063e+18) (4.82347e+18 -8.21516e+18 -4.85782e+18) (4.1313e+18 -6.69144e+18 -4.5561e+18) (5.06864e+18 -6.11297e+18 -3.97828e+18) (6.3459e+18 -5.16545e+18 -2.87016e+18));
    }
    procBoundary56to55
    {
        type            processor;
        value           nonuniform List<vector> 8((1.45604e+19 -1.12102e+19 -5.39875e+17) (2.19558e+19 -8.94438e+18 -1.66739e+18) (1.55602e+19 -4.96243e+18 -1.82304e+18) (1.6592e+19 -7.5482e+17 -2.18236e+18) (1.69625e+19 -1.48385e+19 -7.61146e+18) (2.64735e+19 -1.09974e+19 -1.06354e+19) (2.82578e+19 -5.78639e+18 -1.0487e+19) (2.59171e+19 -1.32974e+18 -1.11259e+19));
    }
    procBoundary56to57
    {
        type            processor;
        value           nonuniform List<vector> 8((5.52723e+18 -3.44079e+18 -7.68458e+17) (6.98545e+18 -2.95771e+18 -3.77859e+17) (8.27192e+18 -1.89063e+18 -1.14323e+18) (1.08877e+19 -8.92885e+17 -8.58651e+17) (8.4109e+18 -2.96033e+18 -2.86146e+18) (7.42814e+18 -3.55735e+18 -2.18845e+18) (7.51359e+18 -2.6599e+18 -2.20757e+18) (1.15274e+19 -4.37552e+17 -1.65943e+18));
    }
    procBoundary56to120
    {
        type            processor;
        value           nonuniform List<vector> 
20
(
(2.35546e+19 -1.25143e+19 -1.10527e+19)
(1.26798e+19 -7.33845e+18 -9.21709e+18)
(9.76874e+18 -6.10991e+18 -8.67508e+18)
(9.66328e+18 -5.72114e+18 -7.92425e+18)
(1.40346e+19 -5.27473e+18 -6.51522e+18)
(3.68298e+19 -1.16983e+19 -1.29429e+19)
(2.08204e+19 -7.48903e+18 -9.99731e+18)
(1.31106e+19 -3.36541e+18 -8.15151e+18)
(1.29939e+19 -6.04367e+17 -6.81921e+18)
(1.48014e+19 2.14676e+17 -5.76813e+18)
(3.56671e+19 -9.00885e+18 -1.40004e+19)
(2.93456e+19 -9.53344e+18 -1.12695e+19)
(2.35381e+19 -5.41389e+18 -8.0702e+18)
(1.68235e+19 -1.25289e+18 -5.42492e+18)
(1.14204e+19 1.65862e+17 -4.52367e+18)
(2.92573e+19 -3.26776e+18 -1.47179e+19)
(2.80103e+19 -4.98189e+18 -1.18886e+19)
(2.96717e+19 -3.93542e+18 -7.49937e+18)
(2.41535e+19 -1.91506e+18 -5.06337e+18)
(1.52188e+19 -2.70423e+17 -4.07856e+18)
)
;
    }
}


// ************************************************************************* //
