/*--------------------------------*- C++ -*----------------------------------*\
| =========                 |                                                 |
| \\      /  F ield         | OpenFOAM: The Open Source CFD Toolbox           |
|  \\    /   O peration     | Version:  2.4.0                                 |
|   \\  /    A nd           | Web:      www.OpenFOAM.org                      |
|    \\/     M anipulation  |                                                 |
\*---------------------------------------------------------------------------*/
FoamFile
{
    version     2.0;
    format      ascii;
    class       volVectorField;
    location    "0.01";
    object      Ur;
}
// * * * * * * * * * * * * * * * * * * * * * * * * * * * * * * * * * * * * * //

dimensions      [0 1 -1 0 0 0 0];

internalField   nonuniform List<vector> 
40
(
(6.83731e+09 -4.3877e+09 -7.28785e+08)
(5.79164e+09 -3.79904e+09 -1.32019e+09)
(5.20314e+09 -4.35592e+09 -1.02965e+09)
(4.98347e+09 -4.63423e+09 -1.07478e+09)
(4.7823e+09 -4.25243e+09 -8.34048e+08)
(3.88332e+09 -2.37668e+09 -6.18024e+08)
(4.50545e+09 -2.68824e+09 -8.83782e+08)
(4.99867e+09 -3.32155e+09 -1.01703e+09)
(5.02163e+09 -3.183e+09 -8.93473e+08)
(4.70897e+09 -2.80769e+09 -6.63842e+08)
(4.6115e+09 -1.6046e+09 -3.99659e+08)
(3.94256e+09 -1.99652e+09 -5.088e+08)
(3.38003e+09 -1.94388e+09 -4.87775e+08)
(2.86163e+09 -1.73973e+09 -5.37977e+08)
(2.62662e+09 -1.27394e+09 -6.94367e+08)
(3.39279e+09 -4.00739e+08 -4.15867e+08)
(3.18976e+09 -4.64981e+08 -2.24922e+08)
(2.82253e+09 -5.46016e+08 -2.15907e+08)
(2.4191e+09 -6.35267e+08 -3.46563e+08)
(2.08524e+09 -5.90735e+08 -3.73226e+08)
(3.33233e+09 -3.3867e+09 -2.72387e+09)
(3.03146e+09 -3.02153e+09 -3.85196e+09)
(3.17449e+09 -3.42097e+09 -4.28021e+09)
(3.50576e+09 -2.5895e+09 -4.20632e+09)
(3.65549e+09 -1.92507e+09 -2.66844e+09)
(3.39472e+09 -2.21587e+09 -1.71632e+09)
(3.69568e+09 -2.1665e+09 -2.34366e+09)
(3.80192e+09 -1.91717e+09 -2.50888e+09)
(4.04827e+09 -1.81779e+09 -2.09649e+09)
(4.56106e+09 -1.97192e+09 -1.90239e+09)
(5.82612e+09 -1.72186e+09 -1.95833e+09)
(6.07076e+09 -1.78244e+09 -1.93192e+09)
(5.98553e+09 -1.40044e+09 -1.41513e+09)
(5.94041e+09 -1.69795e+09 -1.31397e+09)
(5.73017e+09 -2.01584e+09 -1.51402e+09)
(3.88894e+09 -6.51333e+08 -2.01734e+09)
(3.86069e+09 -6.2314e+08 -1.62897e+09)
(3.67821e+09 -5.41426e+08 -1.01824e+09)
(3.26899e+09 -8.15547e+08 -7.53886e+08)
(2.38959e+09 -7.32616e+08 -4.29633e+08)
)
;

boundaryField
{
    inlet
    {
        type            calculated;
        value           nonuniform 0();
    }
    outlet
    {
        type            calculated;
        value           nonuniform 0();
    }
    bottom
    {
        type            calculated;
        value           uniform (0 0 0);
    }
    top
    {
        type            symmetryPlane;
    }
    side1
    {
        type            symmetryPlane;
    }
    side2
    {
        type            symmetryPlane;
    }
    procBoundary56to40
    {
        type            processor;
        value           nonuniform List<vector> 10((6.9449e+09 -8.75485e+09 -6.45848e+08) (5.77563e+09 -6.73463e+09 -8.6225e+08) (5.36908e+09 -6.18785e+09 -1.23344e+09) (5.23331e+09 -6.6174e+09 -1.38796e+09) (4.82946e+09 -6.58129e+09 -1.40516e+09) (2.09068e+09 -5.52318e+09 -2.68912e+09) (2.1014e+09 -4.20634e+09 -3.83499e+09) (3.22616e+09 -5.58077e+09 -5.29562e+09) (3.46195e+09 -4.15921e+09 -3.9459e+09) (3.04733e+09 -3.12176e+09 -2.66958e+09));
    }
    procBoundary56to55
    {
        type            processor;
        value           nonuniform List<vector> 8((9.0214e+09 -7.30129e+09 -1.63622e+08) (3.95481e+09 -3.55144e+09 -4.24097e+08) (5.16756e+09 -1.74688e+09 -5.3376e+08) (3.472e+09 -4.41056e+08 -6.19162e+08) (2.85926e+09 -3.12336e+09 -2.4795e+09) (3.27021e+09 -1.8372e+09 -1.67919e+09) (5.61647e+09 -1.05201e+09 -1.98954e+09) (4.00958e+09 -3.52651e+08 -1.78653e+09));
    }
    procBoundary56to57
    {
        type            processor;
        value           nonuniform List<vector> 8((4.77107e+09 -3.29994e+09 -7.16958e+08) (4.15141e+09 -2.13298e+09 -5.28819e+08) (2.73339e+09 -7.34493e+08 -7.07456e+08) (1.83998e+09 -2.87233e+08 -2.44628e+08) (3.74041e+09 -1.70314e+09 -1.72461e+09) (5.58156e+09 -2.63349e+09 -1.61706e+09) (5.15796e+09 -2.05761e+09 -1.72447e+09) (1.9192e+09 -2.23824e+08 -4.88093e+08));
    }
    procBoundary56to120
    {
        type            processor;
        value           nonuniform List<vector> 
20
(
(8.68045e+09 -3.98386e+09 -4.83464e+09)
(9.18651e+09 -4.65592e+09 -7.33511e+09)
(7.98861e+09 -4.09094e+09 -8.31633e+09)
(6.81404e+09 -4.14906e+09 -6.1954e+09)
(4.86711e+09 -1.60165e+09 -2.47733e+09)
(5.44713e+09 -2.04514e+09 -2.71257e+09)
(4.91647e+09 -2.17656e+09 -2.81426e+09)
(4.40329e+09 -1.43601e+09 -3.06174e+09)
(3.31169e+09 -4.19136e+08 -2.27052e+09)
(2.63679e+09 -5.33345e+07 -1.97405e+09)
(4.69266e+09 -1.21317e+09 -2.97195e+09)
(4.25244e+09 -1.36084e+09 -2.42166e+09)
(3.9632e+09 -9.30651e+08 -1.72779e+09)
(4.20912e+09 -1.0132e+08 -1.7402e+09)
(4.29869e+09 3.40086e+07 -2.16246e+09)
(4.41408e+09 -4.92177e+08 -2.65241e+09)
(3.47877e+09 -5.8696e+08 -1.50269e+09)
(2.79782e+09 -4.30541e+08 -9.94016e+08)
(2.39896e+09 -2.72463e+08 -8.68215e+08)
(2.21276e+09 -1.33958e+08 -6.88094e+08)
)
;
    }
}


// ************************************************************************* //
