/*--------------------------------*- C++ -*----------------------------------*\
| =========                 |                                                 |
| \\      /  F ield         | OpenFOAM: The Open Source CFD Toolbox           |
|  \\    /   O peration     | Version:  2.4.0                                 |
|   \\  /    A nd           | Web:      www.OpenFOAM.org                      |
|    \\/     M anipulation  |                                                 |
\*---------------------------------------------------------------------------*/
FoamFile
{
    version     2.0;
    format      ascii;
    class       volVectorField;
    location    "0.17";
    object      Ur;
}
// * * * * * * * * * * * * * * * * * * * * * * * * * * * * * * * * * * * * * //

dimensions      [0 1 -1 0 0 0 0];

internalField   nonuniform List<vector> 
200
(
(4.7041e+17 9.58925e+16 -3.05404e+17)
(4.58372e+17 -2.09144e+17 -1.47057e+15)
(4.71184e+17 -8.51916e+16 -8.3211e+16)
(4.52245e+17 -2.60896e+17 5.19389e+16)
(4.58634e+17 -3.82784e+16 -4.89873e+16)
(5.13633e+17 -2.90877e+17 1.04442e+17)
(4.73609e+17 -3.79943e+16 -1.2722e+17)
(5.40073e+17 -3.44295e+17 6.77516e+16)
(5.47975e+17 -1.4256e+16 -1.89496e+17)
(5.6003e+17 -3.0446e+17 -5.89458e+16)
(7.10814e+17 -9.27319e+16 -9.3455e+16)
(6.97836e+17 -1.00744e+16 -2.66131e+17)
(6.99438e+17 -1.94971e+17 3.25764e+15)
(7.11967e+17 -1.08029e+17 -8.8942e+16)
(6.67659e+17 -2.57396e+17 6.92753e+16)
(6.27535e+17 -6.12801e+16 1.72595e+16)
(6.59486e+17 -2.78846e+17 1.03117e+17)
(6.22444e+17 -9.2631e+16 -1.32374e+17)
(6.61981e+17 -3.59402e+17 7.47843e+16)
(6.21695e+17 -3.63237e+16 -1.93618e+17)
(6.46768e+17 2.72254e+17 -4.44106e+17)
(7.85228e+17 -8.08388e+16 -1.43561e+17)
(8.09331e+17 3.59566e+15 -3.05749e+17)
(8.33187e+17 -1.60011e+17 -4.63493e+16)
(8.59147e+17 -6.35239e+16 -2.00326e+17)
(8.5991e+17 -2.16109e+17 -9.41134e+15)
(8.37658e+17 -5.48749e+16 -4.33564e+16)
(8.42171e+17 -2.53467e+17 3.63392e+16)
(7.98434e+17 -8.07009e+16 -1.5034e+17)
(7.63455e+17 -3.26368e+17 2.41276e+16)
(6.7017e+17 -8.9173e+16 -1.72765e+17)
(7.74929e+17 1.0492e+17 -4.45422e+17)
(8.8096e+17 -1.46144e+17 -1.76064e+17)
(9.11511e+17 -1.26187e+16 -3.42207e+17)
(9.27913e+17 -1.65511e+17 -1.13332e+17)
(9.31651e+17 -3.03563e+16 -2.79573e+17)
(9.28155e+17 -1.78813e+17 -1.00791e+17)
(9.04987e+17 -2.04593e+16 -1.60856e+17)
(8.69479e+17 -2.10144e+17 -7.34656e+16)
(8.07454e+17 -3.62485e+16 -2.10852e+17)
(6.85326e+17 -9.9841e+16 1.20763e+17)
(6.24882e+17 1.26109e+17 -1.85648e+17)
(5.90119e+17 -1.28063e+17 1.55311e+17)
(5.61882e+17 -1.27415e+15 3.10686e+16)
(6.57636e+17 -2.46214e+17 2.12797e+17)
(4.06393e+17 -8.51742e+16 -3.18883e+17)
(7.21261e+17 -3.47698e+17 3.0772e+17)
(5.3466e+17 7.77757e+16 -1.33004e+17)
(7.17306e+17 -2.96551e+17 1.75874e+17)
(5.55408e+17 4.39588e+16 -1.61468e+17)
(7.3973e+17 1.33537e+17 -2.66614e+17)
(7.31309e+17 -1.46039e+17 4.04512e+16)
(6.95761e+17 8.57854e+14 -1.43939e+17)
(6.87946e+17 -1.21398e+17 1.12891e+17)
(6.44467e+17 3.28493e+16 5.77336e+16)
(6.90054e+17 -1.642e+17 1.70259e+17)
(4.80676e+17 -1.41343e+17 -3.19159e+17)
(6.77466e+17 -3.3761e+17 2.46372e+17)
(5.32626e+17 2.31917e+15 -1.72115e+17)
(6.49529e+17 -3.05634e+17 2.05707e+17)
(9.58976e+17 -8.48362e+16 -1.04314e+17)
(8.35053e+17 1.07549e+17 -3.56536e+17)
(7.97735e+17 -1.13846e+17 -3.04576e+16)
(7.56167e+17 1.45888e+16 -2.18848e+17)
(7.41757e+17 -1.06392e+17 3.28056e+16)
(7.33328e+17 2.92979e+16 -9.54251e+16)
(7.22328e+17 -1.4279e+17 9.11962e+16)
(5.94452e+17 -9.46269e+16 -2.07015e+17)
(6.51576e+17 -2.97898e+17 1.96949e+17)
(5.66147e+17 -1.21014e+16 -1.67352e+17)
(8.58512e+17 1.97287e+17 -4.36824e+17)
(9.04069e+17 -1.00436e+17 -1.72532e+17)
(8.45919e+17 7.47757e+16 -3.68322e+17)
(8.24459e+17 -1.36055e+17 -1.00774e+17)
(7.84875e+17 1.73794e+16 -2.87452e+17)
(7.60621e+17 -1.25441e+17 -6.16978e+16)
(7.31728e+17 1.88731e+16 -2.1809e+17)
(7.00175e+17 -1.38254e+17 -3.44157e+16)
(5.88012e+17 -4.00852e+16 -1.81498e+17)
(5.85938e+17 -2.24797e+17 7.32874e+16)
(-7.81774e+16 1.11305e+17 3.57516e+17)
(2.26829e+17 2.65804e+16 4.22544e+17)
(2.58182e+17 1.44657e+17 -1.33886e+17)
(3.58744e+17 -8.63417e+16 2.56117e+17)
(3.2539e+17 5.4453e+16 -1.22459e+17)
(4.04905e+17 1.77402e+17 -9.8977e+16)
(3.38329e+17 -5.82962e+16 -2.72507e+17)
(6.26007e+17 -2.56529e+17 2.35573e+17)
(4.35659e+17 -7.17477e+15 -2.23219e+17)
(5.58922e+17 -2.42732e+17 2.15529e+17)
(6.00057e+17 -1.30452e+17 2.67403e+17)
(4.68112e+17 9.0543e+16 -1.68277e+17)
(4.82809e+17 -1.34833e+17 1.55055e+17)
(4.8096e+17 8.32249e+16 -1.00643e+17)
(4.75958e+17 -4.99144e+16 1.3237e+17)
(5.79827e+17 -2.87311e+16 -7.54492e+16)
(5.74643e+17 1.95139e+16 2.12558e+17)
(4.00952e+17 -1.00641e+17 -1.11322e+17)
(5.66095e+17 -2.05643e+17 2.10119e+17)
(4.2432e+17 -1.04893e+16 -2.0392e+17)
(6.38577e+17 1.73347e+17 -2.16333e+17)
(6.30528e+17 -9.48477e+16 4.57373e+16)
(5.73993e+17 8.67524e+16 -2.3797e+17)
(5.64709e+17 -1.12342e+17 5.6536e+16)
(5.59535e+17 3.9023e+16 -1.78437e+17)
(5.52604e+17 -6.05133e+16 5.71629e+16)
(5.79628e+17 6.51307e+16 -1.21431e+17)
(5.77963e+17 -4.35693e+16 1.06e+17)
(4.84018e+17 -7.07623e+16 -1.56266e+17)
(5.54703e+17 -1.95086e+17 1.68656e+17)
(6.96216e+17 -6.16374e+16 3.41381e+16)
(6.48244e+17 1.47815e+17 -2.94378e+17)
(6.5391e+17 -1.18251e+17 -7.17974e+16)
(6.15481e+17 7.54431e+16 -3.04502e+17)
(6.00353e+17 -1.31112e+17 -5.82548e+16)
(5.73291e+17 3.54848e+16 -2.63025e+17)
(5.63185e+17 -1.03206e+17 -5.09208e+16)
(5.54935e+17 4.01148e+16 -2.10182e+17)
(5.24507e+17 -1.11394e+17 -3.35359e+16)
(4.85028e+17 -1.96009e+16 -1.80184e+17)
(-5.90794e+16 6.94948e+16 5.84814e+17)
(-1.64911e+17 1.36521e+17 -1.40476e+17)
(5.71687e+16 -2.52475e+16 3.28989e+17)
(-2.16932e+16 2.76694e+17 -2.74475e+17)
(8.41035e+16 -1.83022e+17 2.25828e+17)
(2.05651e+16 1.33815e+17 -1.56049e+17)
(1.29798e+17 7.4654e+16 9.34807e+15)
(9.32083e+16 8.12145e+15 -2.18193e+17)
(2.15079e+17 -2.60144e+16 9.6689e+16)
(1.44252e+17 -1.09686e+16 -1.58223e+17)
(1.02652e+17 1.93036e+17 -5.22061e+16)
(1.32172e+17 -5.08822e+16 3.4939e+17)
(9.07197e+16 2.20817e+17 -1.32527e+17)
(1.35719e+17 -5.30772e+16 2.49147e+17)
(1.30035e+17 1.16094e+17 -8.00493e+16)
(1.25568e+17 -1.25014e+17 2.26786e+17)
(1.14918e+17 -4.9494e+15 -9.9621e+16)
(1.36262e+17 4.6949e+16 -1.40833e+16)
(1.59855e+17 -5.78352e+16 -1.18596e+17)
(2.66826e+17 -6.37188e+16 1.26064e+17)
(3.34176e+17 2.77584e+16 2.34063e+17)
(3.20265e+17 2.17842e+17 -1.59329e+17)
(3.05587e+17 -4.26853e+16 1.55333e+17)
(3.06523e+17 1.52862e+17 -1.33987e+17)
(3.04847e+17 -6.4594e+16 1.43346e+17)
(2.92851e+17 1.03955e+17 -1.29593e+17)
(2.77014e+17 -4.62333e+16 1.22449e+17)
(2.91257e+17 4.15696e+16 -1.18172e+17)
(2.47261e+17 -7.32904e+16 1.16535e+17)
(2.41359e+17 -2.96355e+16 -8.32876e+16)
(2.94491e+17 1.78971e+17 -2.26895e+17)
(3.58997e+17 -7.1319e+16 3.48265e+16)
(3.76511e+17 1.52084e+17 -2.19368e+17)
(3.7558e+17 -1.12908e+17 5.21071e+15)
(3.62912e+17 9.8972e+16 -2.27328e+17)
(3.56389e+17 -1.16699e+17 5.67897e+15)
(3.37834e+17 6.98824e+16 -2.07097e+17)
(3.23465e+17 -7.92921e+16 -3.62495e+15)
(3.23076e+17 6.76027e+16 -1.74919e+17)
(3.44848e+17 -8.64648e+16 1.2996e+16)
(-2.85279e+17 -9.86297e+16 -4.06872e+17)
(-1.29741e+17 -1.5896e+17 3.40686e+17)
(-2.7794e+17 2.38502e+17 -5.721e+17)
(-1.74407e+17 -3.46174e+17 1.4751e+17)
(-2.96433e+17 1.0792e+17 -4.86436e+17)
(-2.70878e+17 -2.45476e+17 1.73584e+17)
(-3.23373e+17 1.76754e+17 -3.93307e+17)
(-3.23759e+17 -1.4595e+17 1.85543e+17)
(-2.98068e+17 9.99157e+16 -2.48939e+17)
(-3.159e+17 -5.75891e+16 1.71772e+17)
(-8.38564e+16 -4.86453e+16 4.11345e+17)
(-1.7785e+17 2.0293e+17 -4.20052e+17)
(-1.31587e+17 -1.98236e+17 2.2838e+17)
(-1.8436e+17 1.16792e+17 -3.89812e+17)
(-2.13918e+17 -1.277e+17 2.19146e+17)
(-2.22044e+17 1.66494e+17 -2.35929e+17)
(-2.64736e+17 -9.21181e+16 1.93097e+17)
(-2.3105e+17 1.14557e+17 -2.20898e+17)
(-3.12013e+17 -9.94287e+16 1.81413e+17)
(-2.44918e+17 7.24145e+16 -1.75294e+17)
(3.47308e+16 2.55984e+17 -3.52614e+17)
(-3.23979e+16 -3.73699e+15 1.95094e+17)
(-1.71334e+15 2.27654e+17 -2.07077e+17)
(-7.70842e+16 -4.44876e+16 1.14487e+17)
(-6.12221e+16 1.98884e+17 -1.74111e+17)
(-9.7612e+16 -4.69666e+16 8.88796e+16)
(-9.11536e+16 1.73516e+17 -1.89751e+17)
(-1.14242e+17 -6.72963e+16 7.58455e+16)
(-1.25681e+17 1.2217e+17 -1.99913e+17)
(-1.59655e+17 -8.61664e+16 7.32106e+16)
(-8.68777e+16 -2.26294e+16 1.96581e+17)
(3.18561e+15 2.00963e+17 -2.65807e+17)
(-2.15934e+16 -5.56323e+16 5.94489e+16)
(3.25212e+16 1.80481e+17 -2.07533e+17)
(2.37117e+16 -8.53066e+16 1.74946e+16)
(3.20364e+16 1.34856e+17 -2.13369e+17)
(4.40119e+16 -9.77451e+16 5.80157e+15)
(4.06831e+16 9.57562e+16 -2.08294e+17)
(1.0598e+16 -8.62402e+16 -1.1564e+16)
(-1.18501e+16 8.68588e+16 -1.83948e+17)
)
;

boundaryField
{
    inlet
    {
        type            calculated;
        value           nonuniform 0();
    }
    outlet
    {
        type            calculated;
        value           nonuniform List<vector> 
20
(
(5.6003e+17 -3.0446e+17 -5.89458e+16)
(6.21695e+17 -3.63237e+16 -1.93618e+17)
(7.63455e+17 -3.26368e+17 2.41276e+16)
(8.07454e+17 -3.62485e+16 -2.10852e+17)
(5.55408e+17 4.39588e+16 -1.61468e+17)
(6.49529e+17 -3.05634e+17 2.05707e+17)
(5.66147e+17 -1.21014e+16 -1.67352e+17)
(5.85938e+17 -2.24797e+17 7.32874e+16)
(5.58922e+17 -2.42732e+17 2.15529e+17)
(4.2432e+17 -1.04893e+16 -2.0392e+17)
(5.54703e+17 -1.95086e+17 1.68656e+17)
(4.85028e+17 -1.96009e+16 -1.80184e+17)
(1.44252e+17 -1.09686e+16 -1.58223e+17)
(2.66826e+17 -6.37188e+16 1.26064e+17)
(2.41359e+17 -2.96355e+16 -8.32876e+16)
(3.44848e+17 -8.64648e+16 1.2996e+16)
(-3.159e+17 -5.75891e+16 1.71772e+17)
(-2.44918e+17 7.24145e+16 -1.75294e+17)
(-1.59655e+17 -8.61664e+16 7.32106e+16)
(-1.18501e+16 8.68588e+16 -1.83948e+17)
)
;
    }
    bottom
    {
        type            calculated;
        value           uniform (0 0 0);
    }
    top
    {
        type            symmetryPlane;
    }
    side1
    {
        type            symmetryPlane;
    }
    side2
    {
        type            symmetryPlane;
    }
    procBoundary31to23
    {
        type            processor;
        value           nonuniform List<vector> 
50
(
(2.06904e+16 -3.12882e+17 6.83202e+16)
(-1.46649e+16 -1.73804e+17 8.64823e+15)
(3.54699e+16 -2.71987e+17 -4.78637e+16)
(9.26868e+16 2.94157e+16 -1.78169e+17)
(2.05521e+17 -1.92861e+17 4.91219e+16)
(2.07336e+17 5.08852e+16 -1.78997e+17)
(3.40974e+17 -2.97272e+17 6.4656e+16)
(3.73322e+17 3.99404e+16 -2.05424e+17)
(4.80045e+17 -2.57068e+17 -2.93202e+16)
(4.25906e+17 -1.7474e+17 -1.88269e+17)
(1.62997e+17 7.02015e+17 -4.65939e+17)
(3.19674e+17 -2.18469e+17 4.8299e+16)
(2.8415e+17 2.58356e+17 -3.33206e+17)
(3.61081e+17 -1.20048e+17 6.36652e+16)
(3.64804e+17 9.44115e+16 -1.07588e+17)
(5.99238e+17 -3.75813e+17 3.47735e+17)
(4.6287e+17 9.20487e+16 -8.66267e+16)
(6.66532e+17 -2.82831e+17 1.83256e+17)
(5.5296e+17 6.06483e+16 -1.4877e+17)
(5.67998e+17 -2.68664e+17 7.45435e+16)
(-2.80028e+17 1.12712e+17 3.73311e+17)
(-4.11033e+17 5.85463e+17 -5.0508e+17)
(-9.98105e+16 -7.84851e+16 1.6814e+17)
(-1.63384e+17 4.70755e+17 -5.45018e+17)
(4.92308e+16 -2.02369e+17 8.39213e+16)
(8.12048e+16 2.11311e+17 -2.4122e+17)
(2.39189e+17 5.66969e+16 1.02086e+17)
(3.18986e+17 3.61089e+16 -2.24613e+17)
(5.07022e+17 -1.84197e+17 1.65659e+17)
(4.57108e+17 -3.33388e+16 -1.48666e+17)
(-5.2004e+17 2.84577e+17 -4.6964e+17)
(-2.06314e+17 -3.11333e+16 2.17663e+17)
(-4.16188e+17 5.71589e+17 -7.99324e+17)
(-1.94645e+17 -2.87167e+17 4.35727e+16)
(-3.41718e+17 3.91695e+17 -5.52334e+17)
(-1.20857e+17 -1.52895e+17 1.12959e+17)
(-1.97616e+17 2.83358e+17 -3.34207e+17)
(-5.03178e+16 -1.60113e+15 1.06175e+17)
(-7.96072e+16 1.55645e+17 -2.65397e+17)
(4.33233e+15 -3.8691e+15 4.51832e+16)
(-2.00582e+17 -1.66951e+17 1.8158e+17)
(-3.30512e+17 3.3998e+17 -8.1829e+17)
(-2.73816e+17 -3.18635e+17 4.00731e+16)
(-4.55428e+17 3.1535e+17 -6.9722e+17)
(-3.39133e+17 -2.35507e+17 7.2325e+16)
(-4.09812e+17 2.71652e+17 -5.60995e+17)
(-3.69604e+17 -1.31344e+17 1.00387e+17)
(-4.172e+17 1.93642e+17 -4.13227e+17)
(-4.11319e+17 -5.7131e+16 1.06872e+17)
(-4.30958e+17 1.21673e+17 -2.56772e+17)
)
;
    }
    procBoundary31to30
    {
        type            processor;
        value           nonuniform List<vector> 
20
(
(5.30061e+17 -1.19398e+17 -8.74976e+16)
(5.66864e+17 3.40413e+17 -3.96428e+17)
(7.01931e+17 -3.83577e+16 8.19022e+16)
(3.16232e+17 3.98233e+17 -2.7033e+17)
(7.40215e+17 3.69776e+17 -1.15117e+17)
(8.18341e+17 -3.16958e+16 3.15163e+17)
(9.31733e+17 2.18197e+17 -3.8489e+17)
(1.00502e+18 -7.6171e+16 6.46286e+15)
(1.81836e+17 5.2347e+17 1.08847e+18)
(3.90946e+17 1.76104e+17 -2.82193e+16)
(7.0261e+17 1.88269e+16 3.90381e+17)
(5.93937e+17 1.34982e+17 -1.33337e+17)
(-3.14156e+17 -1.22372e+17 -2.23903e+16)
(1.67875e+17 2.02406e+17 8.0169e+17)
(2.7158e+17 2.14576e+17 -1.85236e+17)
(2.69392e+17 -1.75081e+15 2.45742e+17)
(-2.40757e+17 -2.04773e+17 4.22369e+17)
(-3.24312e+16 2.11376e+17 -6.2587e+17)
(-3.56041e+15 6.29694e+16 3.86098e+17)
(-1.06845e+17 2.41165e+17 -3.81395e+17)
)
;
    }
}


// ************************************************************************* //
