/*--------------------------------*- C++ -*----------------------------------*\
| =========                 |                                                 |
| \\      /  F ield         | OpenFOAM: The Open Source CFD Toolbox           |
|  \\    /   O peration     | Version:  2.4.0                                 |
|   \\  /    A nd           | Web:      www.OpenFOAM.org                      |
|    \\/     M anipulation  |                                                 |
\*---------------------------------------------------------------------------*/
FoamFile
{
    version     2.0;
    format      ascii;
    class       volVectorField;
    location    "0.03";
    object      Uc;
}
// * * * * * * * * * * * * * * * * * * * * * * * * * * * * * * * * * * * * * //

dimensions      [0 1 -1 0 0 0 0];

internalField   nonuniform List<vector> 
200
(
(3.53346e-12 -6.49627e-13 8.58971e-13)
(2.48127e-10 -4.56182e-11 6.03188e-11)
(1.28642e-08 -2.3651e-09 3.12725e-09)
(3.73443e-07 -6.86578e-08 9.07826e-08)
(1.28642e-08 -2.3651e-09 3.12725e-09)
(2.48126e-10 -4.5618e-11 6.03187e-11)
(3.5329e-12 -6.49625e-13 8.5915e-13)
(1.71804e-14 -7.64563e-15 1.75969e-14)
(-5.74314e-13 -8.27582e-16 1.78661e-13)
(-2.42298e-14 -3.23325e-17 7.52983e-15)
(1.8613e-14 -3.42196e-15 4.52478e-15)
(1.1762e-12 -2.16243e-13 2.85931e-13)
(5.41976e-11 -9.96422e-12 1.31753e-11)
(1.37654e-09 -2.53078e-10 3.34632e-10)
(5.41977e-11 -9.96426e-12 1.31753e-11)
(1.1762e-12 -2.16245e-13 2.85932e-13)
(1.86119e-14 -3.42203e-15 4.52529e-15)
(1.83745e-16 -4.41973e-17 7.58223e-17)
(-1.21047e-15 -2.07429e-18 3.77547e-16)
(-5.623e-17 -7.82983e-20 1.74842e-17)
(7.17233e-17 -1.31861e-17 1.74359e-17)
(4.12677e-15 -7.58697e-16 1.00321e-15)
(1.71263e-13 -3.14867e-14 4.16337e-14)
(3.86611e-12 -7.10788e-13 9.39838e-13)
(1.71257e-13 -3.14857e-14 4.16321e-14)
(4.13017e-15 -7.5933e-16 1.00403e-15)
(7.19011e-17 -1.32195e-17 1.74808e-17)
(8.92811e-19 -1.86124e-19 2.82789e-19)
(-2.33516e-18 -5.30711e-21 7.32245e-19)
(-1.18594e-19 -1.79007e-22 3.69173e-20)
(2.26571e-19 -4.14266e-20 5.50796e-20)
(1.19724e-17 -2.18999e-18 2.91048e-18)
(4.5205e-16 -8.27245e-17 1.09892e-16)
(9.18138e-15 -1.68091e-15 2.23196e-15)
(4.52014e-16 -8.27186e-17 1.09883e-16)
(1.19953e-17 -2.1942e-18 2.91602e-18)
(2.27886e-19 -4.16689e-20 5.54023e-20)
(3.24111e-21 -6.35272e-22 9.16994e-22)
(-4.20938e-21 -1.37841e-23 1.33278e-21)
(-2.32578e-22 -3.97957e-25 7.2545e-23)
(8.45037e-10 -1.55361e-10 2.05426e-10)
(6.57235e-08 -1.20833e-08 1.59772e-08)
(3.81512e-06 -7.01412e-07 9.27441e-07)
(0.000125616 -2.30947e-05 3.05369e-05)
(3.81512e-06 -7.01412e-07 9.27441e-07)
(6.57235e-08 -1.20833e-08 1.59772e-08)
(8.45044e-10 -1.55362e-10 2.05427e-10)
(9.02399e-12 -1.65908e-12 2.19376e-12)
(8.22366e-14 -1.55569e-14 2.13006e-14)
(6.10144e-16 -1.32469e-16 2.0902e-16)
(4.00468e-12 -7.36256e-13 9.73527e-13)
(2.76812e-10 -5.08919e-11 6.72922e-11)
(1.40568e-08 -2.58435e-09 3.41716e-09)
(3.96625e-07 -7.29198e-08 9.6418e-08)
(1.40568e-08 -2.58435e-09 3.41715e-09)
(2.76813e-10 -5.08923e-11 6.72923e-11)
(4.00474e-12 -7.36274e-13 9.73539e-13)
(4.75243e-14 -8.73742e-15 1.15532e-14)
(4.84664e-16 -9.01218e-17 1.20859e-16)
(4.27204e-18 -8.36798e-19 1.1922e-18)
(1.40468e-14 -2.58248e-15 3.41476e-15)
(8.74452e-13 -1.60767e-13 2.12577e-13)
(3.94617e-11 -7.25506e-12 9.593e-12)
(9.74069e-10 -1.79084e-10 2.36793e-10)
(3.94616e-11 -7.25505e-12 9.59298e-12)
(8.74422e-13 -1.60763e-13 2.12569e-13)
(1.40586e-14 -2.58469e-15 3.4176e-15)
(1.83544e-16 -3.37447e-17 4.46192e-17)
(2.05376e-18 -3.79729e-19 5.05676e-19)
(2.01355e-20 -3.81937e-21 5.24617e-21)
(4.07409e-17 -7.45233e-18 9.90408e-18)
(2.30738e-15 -4.22249e-16 5.60919e-16)
(9.36703e-14 -1.7149e-14 2.27709e-14)
(2.05445e-12 -3.76284e-13 4.99429e-13)
(9.36701e-14 -1.7149e-14 2.27709e-14)
(2.3072e-15 -4.2222e-16 5.60873e-16)
(4.08194e-17 -7.46683e-18 9.92305e-18)
(5.81574e-19 -1.06339e-19 1.41379e-19)
(7.06911e-21 -1.2962e-21 1.73107e-21)
(7.54867e-23 -1.40376e-23 1.90933e-23)
(3.52429e-12 -6.49201e-13 8.57291e-13)
(2.47542e-10 -4.55914e-11 6.02114e-11)
(1.28369e-08 -2.36385e-09 3.12223e-09)
(3.72733e-07 -6.86254e-08 9.06524e-08)
(1.28369e-08 -2.36385e-09 3.12223e-09)
(2.47542e-10 -4.55916e-11 6.02115e-11)
(3.52436e-12 -6.49217e-13 8.57304e-13)
(4.12985e-14 -7.60887e-15 1.00466e-14)
(4.16253e-16 -7.76971e-17 1.04232e-16)
(3.60964e-18 -7.1552e-19 1.02819e-18)
(1.85466e-14 -3.41706e-15 4.5118e-15)
(1.17316e-12 -2.1611e-13 2.85376e-13)
(5.4068e-11 -9.95835e-12 1.31515e-11)
(1.37355e-09 -2.52941e-10 3.34083e-10)
(5.4068e-11 -9.95838e-12 1.31515e-11)
(1.17313e-12 -2.16107e-13 2.85368e-13)
(1.85606e-14 -3.41968e-15 4.51516e-15)
(2.39269e-16 -4.40913e-17 5.82096e-17)
(2.65138e-18 -4.9118e-19 6.52573e-19)
(2.58311e-20 -4.89946e-21 6.69628e-21)
(7.15047e-17 -1.31765e-17 1.7396e-17)
(4.11736e-15 -7.5861e-16 1.00163e-15)
(1.70802e-13 -3.14649e-14 4.15486e-14)
(3.85666e-12 -7.10357e-13 9.38103e-13)
(1.70802e-13 -3.14651e-14 4.15486e-14)
(4.11831e-15 -7.58796e-16 1.00185e-15)
(7.16822e-17 -1.32096e-17 1.74389e-17)
(1.00819e-18 -1.85819e-19 2.45288e-19)
(1.21349e-20 -2.2427e-21 2.96968e-21)
(1.28828e-22 -2.40914e-23 3.23592e-23)
(2.26138e-19 -4.14516e-20 5.50194e-20)
(1.19519e-17 -2.1914e-18 2.90771e-18)
(4.50692e-16 -8.26584e-17 1.0964e-16)
(9.15642e-15 -1.67977e-15 2.22738e-15)
(4.50693e-16 -8.26591e-17 1.09641e-16)
(1.19577e-17 -2.19252e-18 2.90912e-18)
(2.2713e-19 -4.16348e-20 5.52599e-20)
(3.46182e-21 -6.34416e-22 8.42296e-22)
(4.49354e-23 -8.24484e-24 1.09701e-23)
(5.13816e-25 -9.48772e-26 1.27324e-25)
(-4.55718e-13 -4.68367e-13 1.2704e-13)
(-3.20512e-11 -3.28806e-11 8.91249e-12)
(-1.6643e-09 -1.70423e-09 4.61626e-10)
(-4.83886e-08 -4.94594e-08 1.33879e-08)
(-1.6643e-09 -1.70423e-09 4.61626e-10)
(-3.20511e-11 -3.28804e-11 8.91248e-12)
(-4.55713e-13 -4.68365e-13 1.27042e-13)
(-5.33288e-15 -5.49108e-15 1.49047e-15)
(-5.43772e-17 -5.60852e-17 1.52368e-17)
(-5.00201e-19 -5.16458e-19 1.40529e-19)
(-2.39642e-15 -2.46792e-15 6.69911e-16)
(-1.51662e-13 -1.55913e-13 4.22947e-14)
(-6.99903e-12 -7.18231e-12 1.94704e-12)
(-1.78034e-10 -1.82372e-10 4.94059e-11)
(-6.99904e-12 -7.18234e-12 1.94705e-12)
(-1.51662e-13 -1.55914e-13 4.22951e-14)
(-2.39632e-15 -2.46799e-15 6.69953e-16)
(-3.08504e-17 -3.18313e-17 8.64675e-18)
(-3.4317e-19 -3.54708e-19 9.64275e-20)
(-3.41852e-21 -3.53876e-21 9.63045e-22)
(-9.21804e-18 -9.51275e-18 2.58425e-18)
(-5.3116e-16 -5.47201e-16 1.48559e-16)
(-2.20766e-14 -2.27033e-14 6.15956e-15)
(-4.99092e-13 -5.12375e-13 1.3892e-13)
(-2.20758e-14 -2.27026e-14 6.15933e-15)
(-5.31597e-16 -5.47658e-16 1.48681e-16)
(-9.24075e-18 -9.53703e-18 2.59089e-18)
(-1.29797e-19 -1.34201e-19 3.64827e-20)
(-1.56424e-21 -1.62022e-21 4.40773e-22)
(-1.67798e-23 -1.74089e-23 4.74021e-24)
(-2.90672e-20 -2.98956e-20 8.17263e-21)
(-1.53819e-18 -1.58001e-18 4.31477e-19)
(-5.81645e-17 -5.96673e-17 1.62765e-17)
(-1.18305e-15 -1.21209e-15 3.30291e-16)
(-5.81601e-17 -5.96633e-17 1.62752e-17)
(-1.54114e-18 -1.58305e-18 4.32293e-19)
(-2.92354e-20 -3.00709e-20 8.22051e-21)
(-4.45013e-22 -4.58358e-22 1.25438e-22)
(-5.77731e-24 -5.95868e-24 1.63253e-24)
(-6.64152e-26 -6.85884e-26 1.88144e-26)
(-1.11378e-10 -1.12123e-10 2.99251e-11)
(-8.65901e-09 -8.71694e-09 2.32839e-09)
(-5.02437e-07 -5.05798e-07 1.35213e-07)
(-1.65366e-05 -1.66473e-05 4.45379e-06)
(-5.02437e-07 -5.05798e-07 1.35213e-07)
(-8.65901e-09 -8.71694e-09 2.32839e-09)
(-1.11378e-10 -1.12124e-10 2.99253e-11)
(-1.18988e-12 -1.19784e-12 3.19438e-13)
(-1.11596e-14 -1.12342e-14 2.99349e-15)
(-9.49797e-17 -9.5615e-17 2.5457e-17)
(-5.28069e-13 -5.31597e-13 1.41751e-13)
(-3.64869e-11 -3.67308e-11 9.80203e-12)
(-1.85212e-09 -1.86451e-09 4.97952e-10)
(-5.22391e-08 -5.25887e-08 1.40555e-08)
(-1.85211e-09 -1.86451e-09 4.97951e-10)
(-3.6487e-11 -3.67311e-11 9.80204e-12)
(-5.28077e-13 -5.3161e-13 1.41753e-13)
(-6.26923e-15 -6.31117e-15 1.68152e-15)
(-6.46846e-17 -6.51172e-17 1.73355e-17)
(-6.00638e-19 -6.04655e-19 1.60842e-19)
(-1.85311e-15 -1.86548e-15 4.96978e-16)
(-1.15316e-13 -1.16087e-13 3.09501e-14)
(-5.20195e-12 -5.23675e-12 1.39722e-12)
(-1.28357e-10 -1.29216e-10 3.45017e-11)
(-5.20194e-12 -5.23675e-12 1.39722e-12)
(-1.15313e-13 -1.16084e-13 3.09489e-14)
(-1.85467e-15 -1.86708e-15 4.9739e-16)
(-2.42234e-17 -2.43854e-17 6.49117e-18)
(-2.72683e-19 -2.74507e-19 7.3013e-20)
(-2.74329e-21 -2.76164e-21 7.33951e-22)
(-5.37716e-18 -5.38572e-18 1.44075e-18)
(-3.04424e-16 -3.0504e-16 8.16283e-17)
(-1.23538e-14 -1.23842e-14 3.31498e-15)
(-2.70858e-13 -2.71638e-13 7.27326e-14)
(-1.23538e-14 -1.23842e-14 3.31498e-15)
(-3.04401e-16 -3.0502e-16 8.16213e-17)
(-5.38755e-18 -5.39623e-18 1.4435e-18)
(-7.67889e-20 -7.68801e-20 2.05583e-20)
(-9.36746e-22 -9.37463e-22 2.50593e-22)
(-1.0152e-23 -1.01555e-23 2.71366e-24)
)
;

boundaryField
{
    inlet
    {
        type            calculated;
        value           nonuniform 0();
    }
    outlet
    {
        type            calculated;
        value           nonuniform 0();
    }
    bottom
    {
        type            calculated;
        value           uniform (0 0 0);
    }
    top
    {
        type            symmetryPlane;
    }
    side1
    {
        type            symmetryPlane;
    }
    side2
    {
        type            symmetryPlane;
    }
    procBoundary26to18
    {
        type            processor;
        value           nonuniform List<vector> 
50
(
(3.72668e-10 -6.85154e-11 9.05943e-11)
(2.94441e-08 -5.41333e-09 7.15776e-09)
(1.74487e-06 -3.20797e-07 4.24172e-07)
(5.91018e-05 -1.08659e-05 1.43674e-05)
(1.74487e-06 -3.20797e-07 4.24172e-07)
(2.94441e-08 -5.41333e-09 7.15776e-09)
(3.72475e-10 -6.85157e-11 9.06546e-11)
(-5.25602e-12 -7.34661e-13 3.80969e-12)
(-2.42003e-10 -3.22488e-13 7.52053e-11)
(-9.18647e-12 -1.20423e-14 2.8542e-12)
(1.00304e-07 -1.8441e-08 2.43835e-08)
(8.9172e-06 -1.63944e-06 2.16774e-06)
(0.000604032 -0.000111052 0.000146838)
(0.0238719 -0.00438887 0.00580317)
(0.000604032 -0.000111052 0.000146838)
(8.9172e-06 -1.63944e-06 2.16774e-06)
(1.00304e-07 -1.8441e-08 2.43835e-08)
(9.51947e-10 -1.75023e-10 2.31436e-10)
(7.13529e-12 -1.47776e-12 2.23084e-12)
(2.43313e-14 -1.14686e-14 2.68367e-14)
(3.71801e-10 -6.84759e-11 9.04353e-11)
(2.93825e-08 -5.41052e-09 7.14645e-09)
(1.74162e-06 -3.20649e-07 4.23576e-07)
(5.90055e-05 -1.08615e-05 1.43498e-05)
(1.74162e-06 -3.20649e-07 4.23576e-07)
(2.93825e-08 -5.41052e-09 7.14645e-09)
(3.71801e-10 -6.8476e-11 9.04353e-11)
(3.92062e-12 -7.22217e-13 9.53736e-13)
(3.45382e-14 -6.70568e-15 9.42418e-15)
(2.21384e-16 -5.66726e-17 1.01255e-16)
(-4.81483e-11 -4.93826e-11 1.33842e-11)
(-3.81018e-09 -3.90055e-09 1.05643e-09)
(-2.26152e-07 -2.31083e-07 6.25433e-08)
(-7.67226e-06 -7.82493e-06 2.11636e-06)
(-2.26152e-07 -2.31083e-07 6.25433e-08)
(-3.81019e-09 -3.90055e-09 1.05644e-09)
(-4.81483e-11 -4.93826e-11 1.33842e-11)
(-5.07045e-13 -5.21017e-13 1.41311e-13)
(-4.70172e-15 -4.83748e-15 1.3138e-15)
(-3.97289e-17 -4.08318e-17 1.11336e-17)
(-1.32142e-08 -1.33026e-08 3.55369e-09)
(-1.17428e-06 -1.18214e-06 3.1606e-07)
(-7.95106e-05 -8.00427e-05 2.14181e-05)
(-0.00314104 -0.00316206 0.000846812)
(-7.95106e-05 -8.00427e-05 2.14181e-05)
(-1.17428e-06 -1.18214e-06 3.1606e-07)
(-1.32142e-08 -1.33026e-08 3.55369e-09)
(-1.25467e-10 -1.26307e-10 3.37142e-11)
(-1.05894e-12 -1.06603e-12 2.84313e-13)
(-8.19275e-15 -8.24758e-15 2.19784e-15)
)
;
    }
    procBoundary26to25
    {
        type            processor;
        value           nonuniform List<vector> 
20
(
(4.14116e-14 -7.61312e-15 1.00673e-14)
(2.37601e-16 -4.36805e-17 5.77616e-17)
(9.93286e-19 -1.82604e-19 2.41473e-19)
(3.37832e-21 -6.1741e-22 8.21293e-22)
(9.02343e-12 -1.65888e-12 2.19362e-12)
(4.7252e-14 -8.68689e-15 1.14871e-14)
(1.81591e-16 -3.33839e-17 4.41454e-17)
(5.72154e-19 -1.04611e-19 1.39093e-19)
(4.09977e-14 -7.55308e-15 9.97369e-15)
(2.36063e-16 -4.34981e-17 5.74312e-17)
(9.89215e-19 -1.82309e-19 2.40678e-19)
(3.37566e-21 -6.18568e-22 8.21355e-22)
(-5.33424e-15 -5.49012e-15 1.48997e-15)
(-3.05499e-17 -3.15096e-17 8.55841e-18)
(-1.27485e-19 -1.31766e-19 3.58183e-20)
(-4.32803e-22 -4.45662e-22 1.21963e-22)
(-1.18979e-12 -1.19769e-12 3.19423e-13)
(-6.23323e-15 -6.27463e-15 1.67192e-15)
(-2.39654e-17 -2.41244e-17 6.42234e-18)
(-7.55439e-20 -7.56298e-20 2.02262e-20)
)
;
    }
    procBoundary26to27
    {
        type            processor;
        value           nonuniform List<vector> 
20
(
(-5.62224e-16 -7.39483e-19 1.74696e-16)
(-1.42355e-18 -1.90171e-21 4.42418e-19)
(-3.2537e-21 -4.48052e-24 1.0116e-21)
(-6.87721e-24 -9.92944e-27 2.13967e-24)
(2.90451e-18 -1.04744e-18 2.242e-18)
(3.12788e-20 -7.15884e-21 1.18165e-20)
(1.72472e-22 -3.51753e-23 5.2297e-23)
(7.15561e-25 -1.38471e-25 1.97441e-25)
(2.55095e-20 -6.07912e-21 1.03181e-20)
(2.2097e-22 -4.48048e-23 6.59095e-23)
(1.22182e-24 -2.36019e-25 3.29331e-25)
(5.27281e-27 -9.91234e-28 1.36051e-27)
(-4.18413e-21 -4.31922e-21 1.17971e-21)
(-3.08578e-23 -3.19794e-23 8.72153e-24)
(-1.62795e-25 -1.69156e-25 4.61291e-26)
(-6.88976e-28 -7.12403e-28 1.95744e-28)
(-7.49576e-19 -7.54544e-19 2.00748e-19)
(-5.13581e-21 -5.17e-21 1.3742e-21)
(-2.52634e-23 -2.54319e-23 6.75369e-24)
(-1.00199e-25 -1.00189e-25 2.67621e-26)
)
;
    }
}


// ************************************************************************* //
