/*--------------------------------*- C++ -*----------------------------------*\
| =========                 |                                                 |
| \\      /  F ield         | OpenFOAM: The Open Source CFD Toolbox           |
|  \\    /   O peration     | Version:  2.4.0                                 |
|   \\  /    A nd           | Web:      www.OpenFOAM.org                      |
|    \\/     M anipulation  |                                                 |
\*---------------------------------------------------------------------------*/
FoamFile
{
    version     2.0;
    format      ascii;
    class       volVectorField;
    location    "0.15";
    object      A_Source;
}
// * * * * * * * * * * * * * * * * * * * * * * * * * * * * * * * * * * * * * //

dimensions      [1 -2 -2 0 0 0 0];

internalField   nonuniform List<vector> 
200
(
(-2.195e-61 -8.47656e-61 1.53987e-60)
(-1.3668e-63 -5.27677e-63 9.58859e-63)
(-8.88253e-66 -3.4283e-65 6.2314e-65)
(-5.83594e-68 -2.25188e-67 4.09411e-67)
(-3.81014e-70 -1.46988e-69 2.67295e-69)
(-2.45369e-72 -9.46395e-72 1.72135e-71)
(-1.55532e-74 -5.99776e-74 1.09111e-73)
(-9.70664e-77 -3.74247e-76 6.80955e-76)
(-5.97213e-79 -2.30217e-78 4.18966e-78)
(-3.62802e-81 -1.39829e-80 2.54518e-80)
(-1.03338e-63 -3.99257e-63 7.24949e-63)
(-6.00922e-66 -2.3213e-65 4.21568e-65)
(-3.59382e-68 -1.38794e-67 2.52119e-67)
(-2.20465e-70 -8.51231e-70 1.54664e-69)
(-1.37641e-72 -5.31307e-72 9.656e-72)
(-8.66798e-75 -3.3451e-74 6.08089e-74)
(-5.46562e-77 -2.10879e-76 3.83432e-76)
(-3.4331e-79 -1.3243e-78 2.40844e-78)
(-2.1415e-81 -8.25907e-81 1.50234e-80)
(-1.32446e-83 -5.10703e-83 9.29156e-83)
(-4.22639e-66 -1.63345e-65 2.96496e-65)
(-2.50168e-68 -9.66744e-68 1.75502e-67)
(-1.48376e-70 -5.73289e-70 1.04091e-69)
(-8.87371e-73 -3.42796e-72 6.22521e-72)
(-5.36629e-75 -2.07259e-74 3.76464e-74)
(-3.28039e-77 -1.26668e-76 2.30131e-76)
(-2.02206e-79 -7.80609e-79 1.41855e-78)
(-1.25255e-81 -4.83431e-81 8.78706e-81)
(-7.77009e-84 -2.99826e-83 5.45099e-83)
(-4.81281e-86 -1.85673e-85 3.37635e-85)
(-1.56148e-68 -5.99529e-68 1.09543e-67)
(-9.55619e-71 -3.6679e-70 6.704e-70)
(-5.79227e-73 -2.22252e-72 4.06348e-72)
(-3.49529e-75 -1.34076e-74 2.45206e-74)
(-2.10902e-77 -8.08779e-77 1.47955e-76)
(-1.27634e-79 -4.89342e-79 8.95395e-79)
(-7.75928e-82 -2.97425e-81 5.44341e-81)
(-4.73949e-84 -1.81638e-83 3.32492e-83)
(-2.90618e-86 -1.11358e-85 2.03878e-85)
(-1.78619e-88 -6.84308e-88 1.25308e-87)
(-4.19014e-63 -1.6179e-62 2.93953e-62)
(-2.66439e-65 -1.02848e-64 1.86916e-64)
(-1.7681e-67 -6.82314e-67 1.24038e-66)
(-1.18579e-69 -4.57485e-69 8.31873e-69)
(-7.89879e-72 -3.04672e-71 5.54127e-71)
(-5.18742e-74 -2.00049e-73 3.63915e-73)
(-3.35168e-76 -1.2923e-75 2.35132e-75)
(-2.13128e-78 -8.21603e-78 1.49517e-77)
(-1.33555e-80 -5.14755e-80 9.36934e-80)
(-8.26043e-83 -3.18319e-82 5.79498e-82)
(-2.01739e-65 -7.7934e-65 1.41527e-64)
(-1.1967e-67 -4.62212e-67 8.39527e-67)
(-7.29947e-70 -2.81869e-69 5.12083e-69)
(-4.5664e-72 -1.76287e-71 3.20349e-71)
(-2.90659e-74 -1.12181e-73 2.03908e-73)
(-1.86566e-76 -7.19886e-76 1.30883e-75)
(-1.19865e-78 -4.62405e-78 8.40893e-78)
(-7.66872e-81 -2.95774e-80 5.37987e-80)
(-4.87064e-83 -1.87817e-82 3.41692e-82)
(-3.06612e-85 -1.1821e-84 2.15099e-84)
(-8.42636e-68 -3.25629e-67 5.91139e-67)
(-5.08605e-70 -1.9652e-69 3.56804e-69)
(-3.07501e-72 -1.18797e-71 2.15723e-71)
(-1.87416e-74 -7.23907e-74 1.31479e-73)
(-1.15475e-76 -4.45934e-76 8.10096e-76)
(-7.1903e-79 -2.77608e-78 5.04425e-78)
(-4.51353e-81 -1.7422e-80 3.1664e-80)
(-2.84643e-83 -1.09845e-82 1.99687e-82)
(-1.79719e-85 -6.9339e-85 1.26079e-84)
(-1.13266e-87 -4.36909e-87 7.94602e-87)
(-3.17709e-70 -1.21953e-69 2.22884e-69)
(-1.9821e-72 -7.60585e-72 1.39051e-71)
(-1.22427e-74 -4.69635e-74 8.58864e-74)
(-7.52578e-77 -2.88607e-76 5.2796e-76)
(-4.62446e-79 -1.77297e-78 3.24422e-78)
(-2.84932e-81 -1.09214e-80 1.9989e-80)
(-1.76312e-83 -6.7566e-83 1.23689e-82)
(-1.0959e-85 -4.19889e-85 7.6881e-85)
(-6.83644e-88 -2.6189e-87 4.796e-87)
(-4.27364e-90 -1.63687e-89 2.99811e-89)
(-4.11146e-65 -1.58729e-64 2.88433e-64)
(-2.66888e-67 -1.03006e-66 1.87231e-66)
(-1.80795e-69 -6.97588e-69 1.26834e-68)
(-1.23735e-71 -4.77302e-71 8.68042e-71)
(-8.40719e-74 -3.24232e-73 5.89794e-73)
(-5.62919e-76 -2.17051e-75 3.94907e-75)
(-3.70654e-78 -1.4289e-77 2.60026e-77)
(-2.40093e-80 -9.25408e-80 1.68434e-79)
(-1.53204e-82 -5.90394e-82 1.07478e-81)
(-9.64564e-85 -3.71639e-84 6.76675e-84)
(-2.02371e-67 -7.81678e-67 1.4197e-66)
(-1.22421e-69 -4.72776e-69 8.58828e-69)
(-7.61402e-72 -2.93976e-71 5.3415e-71)
(-4.85606e-74 -1.87444e-73 3.40669e-73)
(-3.15059e-76 -1.21581e-75 2.21024e-75)
(-2.06072e-78 -7.95038e-78 1.44567e-77)
(-1.34871e-80 -5.20221e-80 9.4617e-80)
(-8.78711e-83 -3.3886e-82 6.16446e-82)
(-5.68143e-85 -2.1905e-84 3.98572e-84)
(-3.63969e-87 -1.40303e-86 2.55337e-86)
(-8.62988e-70 -3.33452e-69 6.05416e-69)
(-5.31017e-72 -2.05155e-71 3.72527e-71)
(-3.27192e-74 -1.26388e-73 2.29536e-73)
(-2.03178e-76 -7.8469e-76 1.42536e-75)
(-1.27518e-78 -4.92379e-78 8.94582e-78)
(-8.08624e-81 -3.12158e-80 5.67278e-80)
(-5.16806e-83 -1.99459e-82 3.62558e-82)
(-3.31752e-85 -1.28008e-84 2.32736e-84)
(-2.13152e-87 -8.22273e-87 1.49534e-86)
(-1.36665e-89 -5.27096e-89 9.58754e-89)
(-3.31967e-72 -1.27394e-71 2.32886e-71)
(-2.11071e-74 -8.09732e-74 1.48074e-73)
(-1.3282e-76 -5.09375e-76 9.3178e-76)
(-8.31546e-79 -3.18809e-78 5.83359e-78)
(-5.20257e-81 -1.99409e-80 3.64978e-80)
(-3.26293e-83 -1.25035e-82 2.28906e-82)
(-2.05471e-85 -7.87201e-85 1.44145e-84)
(-1.29939e-87 -4.97729e-87 9.11566e-87)
(-8.24512e-90 -3.15774e-89 5.78424e-89)
(-5.24154e-92 -2.00708e-91 3.67712e-91)
(-2.75067e-67 -1.06178e-66 1.92969e-66)
(-1.82207e-69 -7.03128e-69 1.27824e-68)
(-1.25952e-71 -4.85903e-71 8.83595e-71)
(-8.79329e-74 -3.39146e-73 6.1688e-73)
(-6.09206e-76 -2.3491e-75 4.27379e-75)
(-4.15734e-78 -1.60275e-77 2.91652e-77)
(-2.78875e-80 -1.07492e-79 1.95641e-79)
(-1.83959e-82 -7.08935e-82 1.29054e-81)
(-1.19496e-84 -4.60424e-84 8.38307e-84)
(-7.65618e-87 -2.9494e-86 5.37107e-86)
(-1.38355e-69 -5.3434e-69 9.70608e-69)
(-8.53219e-72 -3.29458e-71 5.98562e-71)
(-5.40898e-74 -2.08812e-73 3.79459e-73)
(-3.51579e-76 -1.35691e-75 2.46645e-75)
(-2.32425e-78 -8.96805e-78 1.63054e-77)
(-1.54865e-80 -5.97391e-80 1.08643e-79)
(-1.03219e-82 -3.98076e-82 7.24119e-82)
(-6.84627e-85 -2.63976e-84 4.80289e-84)
(-4.50495e-87 -1.73665e-86 3.16038e-86)
(-2.93618e-89 -1.13167e-88 2.05983e-88)
(-6.02127e-72 -2.32629e-71 4.22413e-71)
(-3.77576e-74 -1.45856e-73 2.64883e-73)
(-2.37018e-76 -9.15442e-76 1.66276e-75)
(-1.49909e-78 -5.78891e-78 1.05167e-77)
(-9.5808e-81 -3.69892e-80 6.72126e-80)
(-6.18532e-83 -2.38745e-82 4.33922e-82)
(-4.02374e-85 -1.55274e-84 2.82279e-84)
(-2.62842e-87 -1.01405e-86 1.84393e-86)
(-1.71805e-89 -6.6268e-89 1.20527e-88)
(-1.12035e-91 -4.3204e-91 7.85962e-91)
(-2.36222e-74 -9.06287e-74 1.65718e-73)
(-1.5302e-76 -5.8688e-76 1.07349e-75)
(-9.80682e-79 -3.76003e-78 6.87982e-78)
(-6.25119e-81 -2.39605e-80 4.38543e-80)
(-3.98096e-83 -1.52547e-82 2.79278e-82)
(-2.54075e-85 -9.73361e-85 1.78242e-84)
(-1.62775e-87 -6.23463e-87 1.14192e-86)
(-1.04703e-89 -4.00962e-89 7.34529e-89)
(-6.75622e-92 -2.58686e-91 4.73972e-91)
(-4.36667e-94 -1.67166e-93 3.06337e-93)
(-1.41555e-69 -5.46336e-69 9.84784e-69)
(-9.56552e-72 -3.69074e-71 6.65353e-71)
(-6.74524e-74 -2.60182e-73 4.69103e-73)
(-4.80243e-76 -1.85195e-75 3.33932e-75)
(-3.39162e-78 -1.30761e-77 2.35793e-77)
(-2.35832e-80 -9.09042e-80 1.63929e-79)
(-1.61125e-82 -6.20953e-82 1.1198e-81)
(-1.08211e-84 -4.16955e-84 7.51935e-84)
(-7.15405e-87 -2.75605e-86 4.97035e-86)
(-4.66353e-89 -1.79625e-88 3.2395e-88)
(-7.27341e-72 -2.80868e-71 5.05914e-71)
(-4.57125e-74 -1.76489e-73 3.1791e-73)
(-2.95303e-76 -1.13985e-75 2.05337e-75)
(-1.95568e-78 -7.54684e-78 1.35965e-77)
(-1.31704e-80 -5.08105e-80 9.15496e-80)
(-8.93724e-83 -3.44705e-82 6.21137e-82)
(-6.06483e-85 -2.33862e-84 4.21435e-84)
(-4.09433e-87 -1.57845e-86 2.84461e-86)
(-2.74127e-89 -1.0566e-88 1.90423e-88)
(-1.81737e-91 -7.00349e-91 1.26223e-90)
(-3.22948e-74 -1.24754e-73 2.24594e-73)
(-2.06321e-76 -7.96911e-76 1.43463e-75)
(-1.31914e-78 -5.09431e-78 9.17096e-78)
(-8.49579e-81 -3.28032e-80 5.90554e-80)
(-5.52779e-83 -2.13388e-82 3.84182e-82)
(-3.63244e-85 -1.40189e-84 2.52413e-84)
(-2.40467e-87 -9.27828e-87 1.6707e-86)
(-1.59812e-89 -6.16478e-89 1.11015e-88)
(-1.06251e-91 -4.09769e-91 7.37957e-91)
(-7.0455e-94 -2.71659e-93 4.8926e-93)
(-1.29176e-76 -4.9547e-76 8.98205e-76)
(-8.52295e-79 -3.26799e-78 5.92533e-78)
(-5.56172e-81 -2.13186e-80 3.866e-80)
(-3.60873e-83 -1.38285e-82 2.50805e-82)
(-2.3387e-85 -8.95935e-85 1.62512e-84)
(-1.51858e-87 -5.8162e-87 1.05507e-86)
(-9.89599e-90 -3.7894e-89 6.87434e-89)
(-6.47337e-92 -2.47835e-91 4.49605e-91)
(-4.24697e-94 -1.62569e-93 2.94923e-93)
(-2.79018e-96 -1.06788e-95 1.93727e-95)
)
;

boundaryField
{
    inlet
    {
        type            zeroGradient;
    }
    outlet
    {
        type            zeroGradient;
    }
    bottom
    {
        type            zeroGradient;
    }
    top
    {
        type            symmetryPlane;
    }
    side1
    {
        type            symmetryPlane;
    }
    side2
    {
        type            symmetryPlane;
    }
    procBoundary27to19
    {
        type            processor;
        value           nonuniform List<vector> 
50
(
(-2.69474e-58 -1.03992e-57 1.89046e-57)
(-1.57985e-60 -6.0957e-60 1.10832e-59)
(-9.16817e-63 -3.53685e-62 6.43179e-62)
(-5.27904e-65 -2.03616e-64 3.70343e-64)
(-3.02321e-67 -1.16585e-66 2.12089e-66)
(-1.72564e-69 -6.6533e-69 1.2106e-68)
(-9.83433e-72 -3.79084e-71 6.89912e-71)
(-5.60247e-74 -2.15907e-73 3.93032e-73)
(-3.19269e-76 -1.23008e-75 2.23978e-75)
(-1.82038e-78 -7.01167e-78 1.27706e-77)
(-5.09415e-60 -1.96556e-59 3.57372e-59)
(-3.04926e-62 -1.17634e-61 2.13916e-61)
(-1.80593e-64 -6.96568e-64 1.26692e-63)
(-1.06081e-66 -4.09094e-66 7.44194e-66)
(-6.19514e-69 -2.38867e-68 4.3461e-68)
(-3.6048e-71 -1.38962e-70 2.52889e-70)
(-2.09354e-73 -8.06865e-73 1.46869e-72)
(-1.21503e-75 -4.68168e-75 8.52386e-75)
(-7.0519e-78 -2.7165e-77 4.94715e-77)
(-4.09381e-80 -1.57657e-79 2.87195e-79)
(-4.95047e-62 -1.90981e-61 3.47292e-61)
(-3.02455e-64 -1.16661e-63 2.12182e-63)
(-1.82759e-66 -7.04806e-66 1.28212e-65)
(-1.09486e-68 -4.22156e-68 7.68081e-68)
(-6.51869e-71 -2.513e-70 4.57309e-70)
(-3.86574e-73 -1.48997e-72 2.71195e-72)
(-2.28738e-75 -8.81425e-75 1.60468e-74)
(-1.35214e-77 -5.20909e-77 9.4857e-77)
(-7.99083e-80 -3.07766e-79 5.60584e-79)
(-4.7222e-82 -1.81826e-81 3.31279e-81)
(-3.28065e-64 -1.26541e-63 2.30149e-63)
(-2.04501e-66 -7.88661e-66 1.43464e-65)
(-1.26026e-68 -4.8594e-68 8.84118e-68)
(-7.69715e-71 -2.96738e-70 5.39982e-70)
(-4.67057e-73 -1.80025e-72 3.27657e-72)
(-2.8219e-75 -1.08746e-74 1.97966e-74)
(-1.70065e-77 -6.55222e-77 1.19306e-76)
(-1.02362e-79 -3.94282e-79 7.18105e-79)
(-6.15792e-82 -2.37131e-81 4.32e-81)
(-3.70335e-84 -1.42571e-83 2.59803e-83)
(-1.67251e-66 -6.45014e-66 1.16363e-65)
(-1.06338e-68 -4.10027e-68 7.39716e-68)
(-6.6815e-71 -2.57587e-70 4.6471e-70)
(-4.15918e-73 -1.60317e-72 2.89231e-72)
(-2.5714e-75 -9.90968e-75 1.78787e-74)
(-1.58244e-77 -6.09715e-77 1.10008e-76)
(-9.71094e-80 -3.74078e-79 6.74975e-79)
(-5.95015e-82 -2.29151e-81 4.13507e-81)
(-3.64292e-84 -1.40259e-83 2.53125e-83)
(-2.22908e-86 -8.57997e-86 1.5486e-85)
)
;
    }
    procBoundary27to26
    {
        type            processor;
        value           nonuniform List<vector> 
20
(
(-1.55024e-58 -5.98631e-58 1.08754e-57)
(-5.01542e-61 -1.93745e-60 3.51849e-60)
(-1.56386e-63 -6.04316e-63 1.0971e-62)
(-4.79732e-66 -1.84317e-65 3.36549e-65)
(-2.92871e-60 -1.13077e-59 2.05459e-59)
(-9.66859e-63 -3.73444e-62 6.78285e-62)
(-3.07529e-65 -1.18822e-64 2.15743e-64)
(-9.62147e-68 -3.69577e-67 6.7498e-67)
(-2.84433e-62 -1.09802e-61 1.9954e-61)
(-9.57888e-65 -3.69928e-64 6.71992e-64)
(-3.10704e-67 -1.20033e-66 2.1797e-66)
(-9.91149e-70 -3.80626e-69 6.95325e-69)
(-1.88378e-64 -7.27104e-64 1.32153e-63)
(-6.46916e-67 -2.49799e-66 4.53834e-66)
(-2.1391e-69 -8.26283e-69 1.50065e-68)
(-6.95513e-72 -2.6703e-71 4.87927e-71)
(-9.59796e-67 -3.70409e-66 6.67773e-66)
(-3.36008e-69 -1.29727e-68 2.33739e-68)
(-1.13229e-71 -4.37319e-71 7.87536e-71)
(-3.7514e-74 -1.43994e-73 2.60878e-73)
)
;
    }
    procBoundary27to28
    {
        type            processor;
        value           nonuniform List<vector> 
20
(
(-3.57014e-84 -1.37617e-83 2.50457e-83)
(-1.94351e-86 -7.49571e-86 1.36344e-85)
(-9.1994e-89 -3.54961e-88 6.4537e-88)
(-3.98527e-91 -1.52592e-90 2.7958e-90)
(-8.18148e-86 -3.1532e-85 5.73959e-85)
(-4.53628e-88 -1.7493e-87 3.18236e-87)
(-2.18506e-90 -8.42998e-90 1.53289e-89)
(-9.62884e-93 -3.68585e-92 6.75496e-92)
(-9.61487e-88 -3.70507e-87 6.74517e-87)
(-5.42871e-90 -2.09314e-89 3.80843e-89)
(-2.66058e-92 -1.02632e-91 1.86649e-91)
(-1.19243e-94 -4.56334e-94 8.36531e-94)
(-7.67999e-90 -2.95901e-89 5.38778e-89)
(-4.41444e-92 -1.70183e-91 3.09688e-91)
(-2.20069e-94 -8.48803e-94 1.54386e-93)
(-1.00289e-96 -3.83698e-96 7.03561e-96)
(-4.70722e-92 -1.81335e-91 3.26966e-91)
(-2.75392e-94 -1.06152e-93 1.91255e-93)
(-1.39623e-96 -5.3845e-96 9.69493e-96)
(-6.46861e-99 -2.47419e-98 4.49084e-98)
)
;
    }
}


// ************************************************************************* //
