/*--------------------------------*- C++ -*----------------------------------*\
| =========                 |                                                 |
| \\      /  F ield         | OpenFOAM: The Open Source CFD Toolbox           |
|  \\    /   O peration     | Version:  2.4.0                                 |
|   \\  /    A nd           | Web:      www.OpenFOAM.org                      |
|    \\/     M anipulation  |                                                 |
\*---------------------------------------------------------------------------*/
FoamFile
{
    version     2.0;
    format      ascii;
    class       volScalarField;
    location    "0.15";
    object      p;
}
// * * * * * * * * * * * * * * * * * * * * * * * * * * * * * * * * * * * * * //

dimensions      [1 -1 -2 0 0 0 0];

internalField   nonuniform List<scalar> 
200
(
-6.03614e+29
-5.93757e+29
-5.91376e+29
-5.83458e+29
-5.77883e+29
-5.69938e+29
-5.62556e+29
-5.53937e+29
-5.44199e+29
-5.34757e+29
-5.87527e+29
-5.86988e+29
-5.76888e+29
-5.70633e+29
-5.61615e+29
-5.52998e+29
-5.43486e+29
-5.33369e+29
-5.23454e+29
-5.12179e+29
-5.95856e+29
-5.79476e+29
-5.71596e+29
-5.60829e+29
-5.51222e+29
-5.40996e+29
-5.30649e+29
-5.20291e+29
-5.09344e+29
-4.98848e+29
-5.90438e+29
-5.75327e+29
-5.6762e+29
-5.55125e+29
-5.44548e+29
-5.33882e+29
-5.23658e+29
-5.13173e+29
-5.02758e+29
-4.91773e+29
-6.05638e+29
-6.01469e+29
-5.91351e+29
-5.84697e+29
-5.7643e+29
-5.68298e+29
-5.59533e+29
-5.501e+29
-5.40664e+29
-5.30427e+29
-6.08762e+29
-5.89215e+29
-5.81564e+29
-5.70746e+29
-5.61806e+29
-5.52126e+29
-5.42139e+29
-5.3187e+29
-5.21047e+29
-5.10437e+29
-6.02574e+29
-5.91734e+29
-5.7264e+29
-5.6236e+29
-5.51746e+29
-5.41522e+29
-5.30713e+29
-5.19942e+29
-5.08878e+29
-4.97468e+29
-5.73117e+29
-5.67484e+29
-5.55992e+29
-5.48855e+29
-5.41354e+29
-5.32617e+29
-5.23133e+29
-5.12915e+29
-5.02226e+29
-4.91204e+29
-6.08173e+29
-5.96895e+29
-5.87621e+29
-5.77811e+29
-5.69124e+29
-5.59057e+29
-5.49704e+29
-5.39171e+29
-5.28927e+29
-5.17955e+29
-6.02275e+29
-5.95037e+29
-5.77448e+29
-5.67682e+29
-5.55932e+29
-5.45683e+29
-5.3383e+29
-5.22789e+29
-5.10637e+29
-4.98808e+29
-6.20888e+29
-5.89822e+29
-5.7314e+29
-5.58956e+29
-5.48053e+29
-5.35355e+29
-5.24318e+29
-5.11694e+29
-4.99969e+29
-4.87257e+29
-5.57638e+29
-5.47414e+29
-5.43614e+29
-5.4227e+29
-5.35515e+29
-5.27009e+29
-5.16516e+29
-5.05882e+29
-4.93797e+29
-4.81618e+29
-6.08503e+29
-5.97128e+29
-5.84956e+29
-5.75055e+29
-5.6197e+29
-5.51329e+29
-5.39299e+29
-5.2758e+29
-5.14789e+29
-5.0235e+29
-6.15721e+29
-5.98154e+29
-5.81705e+29
-5.64486e+29
-5.52395e+29
-5.37577e+29
-5.24692e+29
-5.10491e+29
-4.96955e+29
-4.82569e+29
-6.1124e+29
-6.00844e+29
-5.74037e+29
-5.60528e+29
-5.42829e+29
-5.29748e+29
-5.14505e+29
-5.00877e+29
-4.85939e+29
-4.72342e+29
-5.60677e+29
-5.49626e+29
-5.55963e+29
-5.43377e+29
-5.33065e+29
-5.21095e+29
-5.08925e+29
-4.95065e+29
-4.81504e+29
-4.67107e+29
-6.01427e+29
-5.87602e+29
-5.76752e+29
-5.64139e+29
-5.5505e+29
-5.43663e+29
-5.31122e+29
-5.16335e+29
-4.97949e+29
-4.74976e+29
-5.97034e+29
-5.77165e+29
-5.62318e+29
-5.54979e+29
-5.42162e+29
-5.31406e+29
-5.16786e+29
-5.0173e+29
-4.84426e+29
-4.66545e+29
-5.97849e+29
-5.79671e+29
-5.64316e+29
-5.48037e+29
-5.37926e+29
-5.21961e+29
-5.07784e+29
-4.91402e+29
-4.75651e+29
-4.58776e+29
-5.82687e+29
-5.69978e+29
-5.53759e+29
-5.43465e+29
-5.29509e+29
-5.15864e+29
-5.0057e+29
-4.85602e+29
-4.69681e+29
-4.5407e+29
)
;

boundaryField
{
    inlet
    {
        type            zeroGradient;
    }
    outlet
    {
        type            fixedValue;
        value           nonuniform 0();
    }
    bottom
    {
        type            zeroGradient;
    }
    top
    {
        type            symmetryPlane;
    }
    side1
    {
        type            symmetryPlane;
    }
    side2
    {
        type            symmetryPlane;
    }
    procBoundary27to19
    {
        type            processor;
        value           nonuniform List<scalar> 
50
(
-6.14516e+29
-6.11197e+29
-6.05117e+29
-6.02766e+29
-5.97245e+29
-5.9551e+29
-5.90062e+29
-5.85069e+29
-5.76981e+29
-5.67088e+29
-6.19427e+29
-6.11115e+29
-6.06753e+29
-6.01027e+29
-5.96428e+29
-5.90463e+29
-5.84415e+29
-5.76955e+29
-5.68516e+29
-5.59885e+29
-6.17014e+29
-6.08816e+29
-5.9975e+29
-5.92547e+29
-5.84584e+29
-5.7765e+29
-5.69905e+29
-5.6256e+29
-5.54318e+29
-5.45682e+29
-6.16995e+29
-6.06427e+29
-5.99278e+29
-5.87973e+29
-5.79601e+29
-5.69595e+29
-5.59973e+29
-5.49433e+29
-5.37257e+29
-5.25721e+29
-6.14832e+29
-6.05334e+29
-5.93081e+29
-5.82448e+29
-5.72482e+29
-5.61367e+29
-5.50127e+29
-5.35078e+29
-5.11117e+29
-5.03259e+29
)
;
    }
    procBoundary27to26
    {
        type            processor;
        value           nonuniform List<scalar> 
20
(
-6.03424e+29
-6.06138e+29
-6.05179e+29
-6.10917e+29
-6.24648e+29
-6.14073e+29
-6.33872e+29
-5.9474e+29
-6.18807e+29
-6.19366e+29
-6.00407e+29
-5.71863e+29
-6.14992e+29
-6.2625e+29
-6.2954e+29
-5.754e+29
-6.12423e+29
-6.10212e+29
-6.11162e+29
-6.1541e+29
)
;
    }
    procBoundary27to28
    {
        type            processor;
        value           nonuniform List<scalar> 
20
(
-5.23426e+29
-5.01899e+29
-4.87212e+29
-4.80846e+29
-5.20795e+29
-4.99014e+29
-4.86258e+29
-4.79361e+29
-5.07135e+29
-4.86691e+29
-4.74769e+29
-4.68745e+29
-4.86968e+29
-4.68705e+29
-4.57813e+29
-4.52447e+29
-4.55752e+29
-4.4565e+29
-4.42549e+29
-4.37575e+29
)
;
    }
}


// ************************************************************************* //
