/*--------------------------------*- C++ -*----------------------------------*\
| =========                 |                                                 |
| \\      /  F ield         | OpenFOAM: The Open Source CFD Toolbox           |
|  \\    /   O peration     | Version:  2.4.0                                 |
|   \\  /    A nd           | Web:      www.OpenFOAM.org                      |
|    \\/     M anipulation  |                                                 |
\*---------------------------------------------------------------------------*/
FoamFile
{
    version     2.0;
    format      ascii;
    class       surfaceScalarField;
    location    "0.15";
    object      phib;
}
// * * * * * * * * * * * * * * * * * * * * * * * * * * * * * * * * * * * * * //

dimensions      [0 3 -1 0 0 0 0];

internalField   nonuniform List<scalar> 
490
(
-5.60856e+08
-1.5832e+08
-6.18476e+07
-5.49424e+08
-1.22266e+08
-3.99675e+07
-5.40959e+08
-1.29704e+08
-4.81988e+07
-5.37348e+08
-1.48087e+08
-3.84076e+07
-5.40842e+08
-1.47756e+08
-6.08164e+07
-5.35334e+08
-1.56696e+08
-5.08398e+07
-5.33897e+08
-1.47278e+08
-6.83642e+07
-5.21811e+08
-1.50665e+08
-5.9086e+07
-5.14029e+08
-1.40771e+08
-7.21712e+07
-1.47197e+08
-6.72246e+07
-6.24033e+08
-1.31074e+08
-5.92794e+07
-5.83281e+08
-9.99064e+07
-6.31108e+07
-5.80929e+08
-9.70461e+07
-3.50099e+07
-5.76029e+08
-1.00339e+08
-5.26482e+07
-5.7237e+08
-1.0893e+08
-4.24841e+07
-5.63144e+08
-1.05492e+08
-6.04304e+07
-5.54965e+08
-1.06564e+08
-4.8893e+07
-5.41773e+08
-1.01137e+08
-6.27198e+07
-5.30155e+08
-1.01664e+08
-5.07243e+07
-9.46316e+07
-6.34951e+07
-6.60977e+08
-6.87094e+07
-9.08919e+07
-6.28248e+08
-8.23202e+07
-5.03151e+07
-6.06734e+08
-4.54401e+07
-7.31199e+07
-5.98822e+08
-6.1237e+07
-4.70147e+07
-5.83383e+08
-6.12005e+07
-6.31684e+07
-5.73599e+08
-6.39987e+07
-5.12768e+07
-5.54141e+08
-5.9191e+07
-6.6831e+07
-5.46406e+08
-5.85783e+07
-5.02942e+07
-5.3058e+08
-5.38976e+07
-6.35923e+07
-5.45004e+07
-4.53827e+07
-7.20207e+08
-1.25332e+08
-5.99192e+08
-2.03335e+08
-6.11995e+08
-3.26373e+07
-5.83222e+08
-9.00098e+07
-5.74044e+08
-7.03783e+07
-5.55808e+08
-8.22345e+07
-5.51252e+08
-6.37476e+07
-5.35038e+08
-7.47922e+07
-5.37272e+08
-5.16637e+07
-6.09184e+07
-6.66405e+08
-8.24215e+07
-1.01701e+08
-6.13464e+08
-8.81526e+07
-5.50141e+07
-5.99469e+08
-5.87412e+07
-7.49926e+07
-5.87889e+08
-6.30548e+07
-8.69711e+07
-5.69245e+08
-8.0357e+07
-9.11341e+07
-5.59865e+08
-6.46085e+07
-1.04646e+08
-5.40574e+08
-8.02797e+07
-1.017e+08
-5.20657e+08
-7.08532e+07
-1.14774e+08
-4.96516e+08
-8.62754e+07
-1.10678e+08
-8.10759e+07
-1.29736e+08
-6.57519e+08
-9.80914e+07
-4.09994e+07
-6.52513e+08
-7.83449e+07
-7.79245e+07
-6.34623e+08
-4.72419e+07
-6.43992e+07
-6.20739e+08
-5.77091e+07
-7.18773e+07
-6.05223e+08
-5.14666e+07
-8.68913e+07
-5.86126e+08
-5.99374e+07
-8.41984e+07
-5.68316e+08
-4.85294e+07
-9.84525e+07
-5.48861e+08
-6.39928e+07
-8.90351e+07
-5.30596e+08
-5.1307e+07
-1.03958e+08
-6.82385e+07
-9.59632e+07
-5.74197e+08
-1.69507e+08
-1.11252e+08
-6.48635e+08
8.1134e+07
-1.35356e+08
-6.46312e+08
-3.95287e+07
-8.31557e+07
-6.26146e+08
-4.46633e+07
-8.02269e+07
-6.06623e+08
-5.01723e+07
-8.39861e+07
-5.86382e+08
-3.5117e+07
-9.63373e+07
-5.71349e+08
-4.36131e+07
-8.67808e+07
-5.56456e+08
-3.04165e+07
-9.8764e+07
-5.49319e+08
-4.0951e+07
-8.1085e+07
-2.82093e+07
-9.56068e+07
-4.97307e+08
-5.21003e+08
-4.8538e+08
-1.34129e+08
-4.72444e+08
-8.51019e+07
-5.10158e+08
-9.69588e+07
-5.23627e+08
-1.07082e+08
-5.37263e+08
-1.03715e+08
-5.35913e+08
-1.08711e+08
-5.52075e+08
-8.90467e+07
-5.46714e+08
-9.79761e+07
-8.51506e+07
-6.42479e+08
-1.76518e+07
-3.766e+07
-6.06006e+08
5.33401e+07
-7.52222e+07
-5.78609e+08
3.24402e+07
-7.50635e+07
-5.44707e+08
3.41558e+07
-8.96482e+07
-5.33232e+08
4.43133e+07
-9.86073e+07
-5.13417e+08
2.72946e+07
-1.04931e+08
-5.00991e+08
3.23155e+07
-1.10145e+08
-4.87598e+08
1.5716e+07
-1.16631e+08
-4.70312e+08
1.40814e+07
-1.25468e+08
1.43382e+06
-1.38456e+08
-6.16858e+08
-6.05345e+06
-5.85191e+07
-7.04072e+08
7.97275e+07
-1.70981e+07
-6.63481e+08
-6.83842e+06
-6.57117e+07
-6.32449e+08
4.30829e+06
-7.30614e+07
-5.95142e+08
5.34923e+06
-8.52338e+07
-5.80527e+08
2.1177e+07
-9.26963e+07
-5.55222e+08
3.53047e+06
-9.49728e+07
-5.41996e+08
1.63175e+07
-1.02863e+08
-5.22451e+08
-5.98448e+06
-1.03436e+08
6.43073e+06
-1.17695e+08
-7.12921e+08
4.67255e+08
5.59175e+06
-6.75298e+08
1.063e+07
-1.03881e+08
-7.03138e+08
-2.31895e+07
-3.89653e+07
-6.5651e+08
-4.828e+07
-7.42661e+07
-6.28837e+08
-1.89251e+07
-8.73851e+07
-5.97181e+08
-1.70505e+07
-8.97655e+07
-5.84708e+08
615518
-9.6339e+07
-5.65659e+08
-1.35857e+07
-8.79103e+07
-5.56906e+08
3.77277e+06
-9.95945e+07
-6.67894e+06
-9.42946e+07
-2.34365e+08
-3.37826e+08
-3.90201e+08
3.23382e+07
-4.2581e+08
-7.26832e+07
-4.92508e+08
-7.85405e+07
-5.22877e+08
-9.56377e+07
-5.39986e+08
-1.03657e+08
-5.54128e+08
-9.3953e+07
-5.58836e+08
-9.79245e+07
-5.63116e+08
-8.99229e+07
-1.04482e+08
-5.63151e+08
1.28426e+08
-4.44813e+07
-5.23377e+08
8.15532e+07
-5.40417e+07
-4.68723e+08
1.25428e+08
-6.63747e+07
-4.57443e+08
1.2863e+08
-7.66477e+07
-4.32064e+08
1.26469e+08
-7.03928e+07
-4.45747e+08
1.31833e+08
-8.32205e+07
-4.60809e+08
1.1431e+08
-7.90196e+07
-4.82924e+08
1.06598e+08
-8.427e+07
-4.97911e+08
9.62448e+07
-1.04231e+08
9.01077e+07
-1.30237e+08
-7.42754e+08
6.49744e+07
2.98899e+07
-6.93566e+08
5.08958e+07
-3.56286e+07
-6.38259e+08
1.99137e+07
-1.55044e+07
-5.76719e+08
6.30828e+07
-6.90545e+07
-5.44861e+08
7.62414e+07
-6.68638e+07
-5.18318e+08
8.24559e+07
-6.98617e+07
-5.19529e+08
8.87413e+07
-6.8194e+07
-5.13282e+08
7.07509e+07
-7.32629e+07
-5.17315e+08
7.55303e+07
-7.86889e+07
6.21137e+07
-9.09544e+07
-6.06842e+08
-1.90864e+07
2.26278e+06
-7.70608e+08
1.4336e+07
9.6445e+07
-7.0349e+08
-5.23971e+07
-3.37716e+07
-6.76053e+08
-7.73241e+06
-3.0888e+07
-6.23388e+08
2.51639e+06
-6.63258e+07
-5.99455e+08
3.26062e+07
-6.3848e+07
-5.67174e+08
2.73329e+07
-6.72123e+07
-5.62842e+08
4.34639e+07
-6.49549e+07
-5.47334e+08
2.65727e+07
-6.61448e+07
4.26497e+07
-7.72932e+07
-4.5863e+08
5.72239e+07
-3.81204e+08
-3.07518e+07
-5.42101e+08
3.58172e+07
-5.63961e+08
-6.44135e+07
-5.95301e+08
-6.17805e+07
-5.97489e+08
-6.88633e+07
-5.96098e+08
-6.80112e+07
-5.91703e+08
-5.88558e+07
-5.84615e+08
-7.04382e+07
-6.771e+07
-4.50387e+08
1.25759e+08
-3.96427e+08
1.06766e+08
-4.08224e+08
1.43803e+08
-3.85058e+08
1.43624e+08
-4.46877e+08
1.9568e+08
-5.09529e+08
1.49692e+08
-5.99103e+08
1.51724e+08
-6.95341e+08
1.54075e+08
-7.27016e+08
1.69282e+08
2.06502e+08
-5.50317e+08
1.30317e+08
-4.99733e+08
2.05528e+07
-4.24768e+08
5.33337e+07
-4.38686e+08
8.84873e+07
-4.40386e+08
1.30517e+08
-5.04051e+08
1.43495e+08
-5.44219e+08
1.23699e+08
-5.91891e+08
1.28483e+08
-6.27231e+08
1.25934e+08
1.49457e+08
-7.34647e+08
2.06913e+08
-6.13221e+08
-4.42837e+06
-5.79337e+08
-1.43211e+07
-5.431e+08
2.13621e+07
-5.52564e+08
7.36546e+07
-5.50115e+08
7.7199e+07
-5.74685e+08
8.10558e+07
-5.69769e+08
5.86123e+07
-5.86607e+08
7.66265e+07
6.81395e+07
-5.95646e+08
-6.30826e+08
-6.0933e+08
-6.52381e+08
-6.40507e+08
-6.32171e+08
-6.19127e+08
-6.1937e+08
-6.13182e+08
)
;

boundaryField
{
    inlet
    {
        type            fixedValue;
        value           nonuniform 0();
    }
    outlet
    {
        type            calculated;
        value           nonuniform 0();
    }
    bottom
    {
        type            fixedValue;
        value           uniform 0;
    }
    top
    {
        type            symmetryPlane;
        value           nonuniform List<scalar> 
40
(
-1.88434e-23
-1.54549e-23
-1.6329e-23
-1.76377e-23
-1.93751e-23
-1.6861e-23
-2.61753e-23
-1.46963e-23
-2.36981e-23
-1.83118e-23
-2.33369e-23
-1.91009e-23
-2.56444e-23
-2.42515e-23
-2.07833e-23
-2.96433e-23
-2.9807e-23
-2.72173e-23
-2.38521e-23
-2.90372e-23
-2.61724e-23
-2.58148e-23
-2.54304e-23
-2.92254e-23
-2.66444e-23
-2.4427e-23
-2.42803e-23
-2.76968e-23
-2.36754e-23
-2.38787e-23
-2.41298e-23
-2.83351e-23
-2.30245e-23
-2.33188e-23
-2.5097e-23
-2.78916e-23
-2.0679e-23
-2.46064e-23
-2.63092e-23
-3.01265e-23
)
;
    }
    side1
    {
        type            symmetryPlane;
        value           nonuniform 0();
    }
    side2
    {
        type            symmetryPlane;
        value           uniform 0;
    }
    procBoundary27to19
    {
        type            processor;
        value           nonuniform List<scalar> 
50
(
1.3093e+08
1.50801e+08
1.69438e+08
1.82883e+08
2.12066e+08
2.02027e+08
2.14206e+08
1.97665e+08
2.05159e+08
1.91348e+08
9.32022e+07
5.02586e+07
7.154e+07
1.00038e+08
9.20307e+07
1.09036e+08
9.43246e+07
1.06623e+08
1.00642e+08
1.11976e+08
-8.54896e+07
-6.96052e+07
-5.97664e+07
-6.53807e+07
-4.83151e+07
-4.68242e+07
-3.62974e+07
-2.72521e+07
-1.65771e+07
-4.36126e+06
-1.56397e+08
-1.42508e+08
-1.88772e+08
-1.5291e+08
-1.80062e+08
-1.39861e+08
-1.30372e+08
-1.16844e+08
-1.02495e+08
-9.07673e+07
-1.68827e+08
-2.14768e+08
-1.98381e+08
-2.43437e+08
-2.04254e+08
-1.70261e+08
-1.4117e+08
-1.42106e+08
-2.41839e+08
-4.07874e+08
)
;
    }
    procBoundary27to26
    {
        type            processor;
        value           nonuniform List<scalar> 
20
(
6.50094e+08
6.56066e+08
6.89505e+08
7.76829e+08
6.95478e+08
6.54908e+08
6.65972e+08
7.23472e+08
6.81579e+08
6.22779e+08
1.22768e+08
5.18442e+08
5.97943e+08
7.17797e+08
6.94231e+08
4.4494e+07
4.48973e+08
5.7565e+08
6.60313e+08
8.59783e+08
)
;
    }
    procBoundary27to28
    {
        type            processor;
        value           nonuniform List<scalar> 
20
(
-4.90956e+08
-5.19225e+08
-5.25329e+08
-5.30854e+08
-4.64905e+08
-5.10965e+08
-5.39124e+08
-5.50691e+08
-4.58664e+08
-5.05717e+08
-5.45109e+08
-5.50463e+08
-5.05471e+08
-5.16061e+08
-5.44872e+08
-5.78738e+08
-6.55881e+08
-6.6114e+08
-5.82582e+08
-6.12752e+08
)
;
    }
}


// ************************************************************************* //
