/*--------------------------------*- C++ -*----------------------------------*\
| =========                 |                                                 |
| \\      /  F ield         | OpenFOAM: The Open Source CFD Toolbox           |
|  \\    /   O peration     | Version:  2.4.0                                 |
|   \\  /    A nd           | Web:      www.OpenFOAM.org                      |
|    \\/     M anipulation  |                                                 |
\*---------------------------------------------------------------------------*/
FoamFile
{
    version     2.0;
    format      ascii;
    class       surfaceScalarField;
    location    "0.01";
    object      phib;
}
// * * * * * * * * * * * * * * * * * * * * * * * * * * * * * * * * * * * * * //

dimensions      [0 3 -1 0 0 0 0];

internalField   nonuniform List<scalar> 
133
(
-20200.8
6075.25
4880.1
-18685.9
4914.49
5716.83
-19330.8
5201.49
8325.13
-21848.2
6064.7
6640.44
4033.27
4825.35
-19954.1
2103.19
4665.88
-19307.1
1731.45
7620.08
-18756.7
2072.01
7078.9
-15965.1
2206.57
4385.39
1123.45
2541.58
-15586.9
1418.81
3045.32
-15640.6
2585.76
3585.99
-15037.3
2838.36
3352.31
-13541.5
1848.24
2482.11
537.045
1492.82
-24999.1
3056.13
-20536.1
2380.11
-15971.3
1747.16
-12937.5
1311.06
1267.76
-61834.5
6766.71
2860.96
-68158.1
18999.7
3701.37
-68821.9
20547.5
6691.46
-63514.6
12196.6
5552.24
8148.19
5228.8
-77997.5
5031.8
3574.67
-66002.6
9652.18
4972.64
-48380.8
5429.79
4574.76
-37446
2851.58
2795.6
2390.21
2113.51
-33930.7
2322.22
1961.89
-25046.9
2260.55
2093.75
-18333.7
641.376
1427.54
-14463.5
347.208
1116.25
616.336
1550.41
-14852.2
1238.98
-11402
1190.44
-10461.5
1448.07
-9773.92
970.662
971.637
-97125.6
5355.36
-95800.7
17350.1
-86248.2
26236
-69726.1
15643
8351.25
-89105.7
2585.77
-75624.1
8841.07
-52140.6
7327.3
-35957.2
2255.24
3144.01
-39671.2
999.693
-31926.2
3189.76
-26573.9
3402.58
-25797.9
2595.53
2072.05
-25111.1
-20730.9
-15880.2
-12314
)
;

boundaryField
{
    inlet
    {
        type            fixedValue;
        value           nonuniform 0();
    }
    outlet
    {
        type            calculated;
        value           nonuniform 0();
    }
    bottom
    {
        type            fixedValue;
        value           nonuniform 0();
    }
    top
    {
        type            symmetryPlane;
        value           nonuniform List<scalar> 
20
(
-1.78204e-15
-2.38098e-15
-1.64505e-15
-2.1322e-15
-5.54003e-15
-5.68722e-15
-2.07774e-15
-1.818e-15
-6.91937e-15
-5.82156e-15
-1.44777e-15
-1.23569e-15
-4.20261e-15
-2.02884e-15
-1.32122e-15
-4.94756e-16
-3.56117e-15
-8.96301e-16
-1.41262e-15
-4.45648e-16
)
;
    }
    side1
    {
        type            symmetryPlane;
        value           nonuniform 0();
    }
    side2
    {
        type            symmetryPlane;
        value           uniform 0;
    }
    procBoundary119to55
    {
        type            processor;
        value           nonuniform List<scalar> 
20
(
-7264.91
-4955.44
-5074.24
-3935.66
-2901.94
-7319.51
-5083.99
-4499.91
-3318.82
-1861.18
-4092.59
-4386.58
-4721.98
-3619.61
-1915.69
-3559.69
-4257.37
-3473.55
-2496.61
-1715.74
)
;
    }
    procBoundary119to103
    {
        type            processor;
        value           nonuniform List<scalar> 
15
(
-9787.84
-7190.75
-7807.5
-6252.09
-5353.62
-6815.98
-10660.6
-18250
-16415.8
-12373.5
-5546.73
-14973.7
-29097.1
-26612.7
-19111.3
)
;
    }
    procBoundary119to118
    {
        type            processor;
        value           nonuniform List<scalar> 
12
(
26298.3
26579.7
17318.4
26921
63902.7
80823.2
37723.5
18991.4
100178
95449.7
43219
27349.7
)
;
    }
    procBoundary119to120
    {
        type            processor;
        value           nonuniform List<scalar> 
12
(
-22451.1
-13735.7
-12532.2
-11952.6
-59692.7
-31259.9
-12747.2
-8861.42
-53737
-28636.3
-23175.3
-9270.23
)
;
    }
}


// ************************************************************************* //
