/*--------------------------------*- C++ -*----------------------------------*\
| =========                 |                                                 |
| \\      /  F ield         | OpenFOAM: The Open Source CFD Toolbox           |
|  \\    /   O peration     | Version:  2.4.0                                 |
|   \\  /    A nd           | Web:      www.OpenFOAM.org                      |
|    \\/     M anipulation  |                                                 |
\*---------------------------------------------------------------------------*/
FoamFile
{
    version     2.0;
    format      ascii;
    class       surfaceScalarField;
    location    "0.04";
    object      phia;
}
// * * * * * * * * * * * * * * * * * * * * * * * * * * * * * * * * * * * * * //

dimensions      [0 3 -1 0 0 0 0];

internalField   nonuniform List<scalar> 
490
(
1.05395e-05
8.27001e-06
1.89209e-06
1.39247e-05
3.56813e-06
2.94458e-06
1.50412e-05
2.34115e-06
3.38201e-06
2.0354e-06
8.27855e-06
3.39268e-06
-1.26269e-05
1.41088e-05
8.03316e-06
-1.432e-05
1.48316e-05
8.78558e-06
-1.43205e-05
1.48319e-05
8.78584e-06
-1.36167e-05
1.48318e-05
8.786e-06
-1.83888e-06
1.45362e-05
9.70407e-06
9.60623e-06
2.96828e-05
1.19045e-05
6.48058e-06
2.07198e-06
1.45208e-05
2.7755e-06
3.24012e-06
9.17809e-07
2.48783e-06
3.42371e-06
-1.36359e-05
1.439e-05
8.47559e-06
-1.43204e-05
1.48317e-05
8.78574e-06
-1.43206e-05
1.48319e-05
8.78584e-06
-1.43206e-05
1.48319e-05
8.78584e-06
-1.43205e-05
1.48319e-05
8.78584e-06
-1.36582e-05
1.48318e-05
8.78596e-06
1.43982e-05
9.64942e-06
1.25371e-05
4.76228e-06
2.22525e-06
1.44825e-05
2.57217e-06
3.33331e-06
3.84799e-07
2.68176e-06
3.48128e-06
-1.39701e-05
1.45791e-05
8.62593e-06
-1.43205e-05
1.48293e-05
8.78578e-06
-1.43206e-05
1.48296e-05
8.78584e-06
-1.43206e-05
1.48298e-05
8.78584e-06
-1.43206e-05
1.48296e-05
8.78584e-06
-1.39506e-05
1.48294e-05
8.78591e-06
1.45612e-05
9.26755e-06
1.28257e-05
2.34085e-06
1.42415e-05
3.38122e-06
1.69521e-08
3.55588e-06
-1.408e-05
8.67176e-06
-1.43157e-05
8.77979e-06
-1.43162e-05
8.7804e-06
-1.43162e-05
8.78095e-06
-1.43158e-05
8.7804e-06
-1.40472e-05
8.77992e-06
9.12916e-06
1.49968e-05
2.31068e-06
3.33291e-06
1.50793e-05
2.28637e-06
3.38233e-06
1.50593e-05
2.31207e-06
3.38237e-06
2.7614e-06
8.13495e-06
3.38752e-06
-1.19178e-05
1.3806e-05
7.58542e-06
-1.43198e-05
1.48315e-05
8.78547e-06
-1.43206e-05
1.48319e-05
8.78584e-06
-1.39902e-05
1.48318e-05
8.78588e-06
-2.23405e-06
1.46931e-05
9.07918e-06
9.76324e-06
1.92677e-05
1.50116e-05
2.29692e-06
3.35961e-06
1.498e-05
2.30641e-06
3.38743e-06
1.30317e-06
2.39472e-06
3.40294e-06
-1.33167e-05
1.41815e-05
8.25609e-06
-1.43203e-05
1.48317e-05
8.7857e-06
-1.43206e-05
1.48319e-05
8.78584e-06
-1.43206e-05
1.48319e-05
8.78584e-06
-1.43206e-05
1.48319e-05
8.78584e-06
-1.40103e-05
1.48318e-05
8.78587e-06
1.4629e-05
9.06135e-06
1.49866e-05
2.30183e-06
3.37027e-06
1.48389e-05
2.33349e-06
3.39459e-06
7.05456e-07
2.50779e-06
3.43263e-06
-1.38008e-05
1.44556e-05
8.50588e-06
-1.43204e-05
1.48272e-05
8.78575e-06
-1.43206e-05
1.48278e-05
8.78584e-06
-1.43206e-05
1.48282e-05
8.78584e-06
-1.43206e-05
1.48278e-05
8.78584e-06
-1.4148e-05
1.48273e-05
8.78586e-06
1.47018e-05
8.93905e-06
1.49429e-05
3.37778e-06
1.46516e-05
3.40406e-06
3.89884e-07
3.47236e-06
-1.39607e-05
8.58063e-06
-1.43117e-05
8.77141e-06
-1.43127e-05
8.77293e-06
-1.43127e-05
8.77438e-06
-1.43118e-05
8.77293e-06
-1.41854e-05
8.77151e-06
8.88166e-06
1.49801e-05
2.28928e-06
3.30728e-06
1.50793e-05
2.28141e-06
3.38232e-06
1.50714e-05
2.29166e-06
3.38237e-06
4.5007e-06
7.75611e-06
3.38384e-06
-1.019e-05
1.30684e-05
5.32524e-06
-1.43194e-05
1.48313e-05
6.42917e-06
-1.43206e-05
1.48319e-05
8.77995e-06
-1.43206e-05
1.48319e-05
8.78436e-06
-1.42722e-05
1.48319e-05
8.78524e-06
1.48115e-05
8.8522e-06
1.50133e-05
2.28497e-06
3.34191e-06
1.50393e-05
2.28979e-06
3.38382e-06
2.22614e-06
2.32575e-06
3.38827e-06
-1.24414e-05
1.36011e-05
5.73903e-06
-1.43202e-05
1.48315e-05
6.84296e-06
-1.43206e-05
1.48319e-05
8.78436e-06
-1.43206e-05
1.48319e-05
8.78584e-06
-1.43206e-05
1.48319e-05
8.78584e-06
-1.43206e-05
1.48319e-05
8.78584e-06
1.48319e-05
8.78584e-06
1.50129e-05
2.28703e-06
3.35479e-06
1.498e-05
2.3014e-06
3.38596e-06
1.30322e-06
2.37424e-06
3.39705e-06
-1.33167e-05
1.40986e-05
5.90021e-06
-1.43203e-05
1.48194e-05
7.25802e-06
-1.43206e-05
1.48208e-05
8.75547e-06
-1.43206e-05
1.48221e-05
8.75991e-06
-1.43206e-05
1.48208e-05
8.75638e-06
-1.43206e-05
1.48196e-05
8.75284e-06
1.48184e-05
8.74934e-06
1.49994e-05
3.36217e-06
1.48984e-05
3.38878e-06
9.30353e-07
3.40897e-06
-1.36112e-05
5.71226e-06
-1.42966e-05
2.33636e-06
-1.42994e-05
2.3496e-06
-1.42994e-05
2.38896e-06
-1.42969e-05
2.3496e-06
-1.42943e-05
2.31972e-06
2.29651e-06
1.48823e-05
2.29487e-06
2.24483e-06
1.50793e-05
2.27799e-06
2.61037e-06
1.50794e-05
2.27798e-06
3.37615e-06
1.50789e-05
2.2785e-06
3.37623e-06
1.32002e-05
4.04141e-06
3.37588e-06
-1.46733e-06
9.35372e-06
3.90312e-06
-1.42805e-05
1.48182e-05
8.72529e-06
-1.43093e-05
1.48284e-05
8.73556e-06
-1.4289e-05
1.48305e-05
8.73352e-06
1.48199e-05
8.77029e-06
1.49684e-05
2.28045e-06
2.17981e-06
1.50794e-05
2.27799e-06
2.73352e-06
1.50782e-05
2.27799e-06
3.37589e-06
1.09489e-05
2.27981e-06
3.3761e-06
-3.7419e-06
6.78486e-06
4.56034e-06
-1.43126e-05
1.47904e-05
8.64903e-06
-1.43206e-05
1.47999e-05
8.67013e-06
-1.43206e-05
1.47959e-05
8.65396e-06
-1.43206e-05
1.47919e-05
8.63785e-06
1.47879e-05
8.62192e-06
1.49996e-05
2.27596e-06
2.12251e-06
1.50794e-05
2.27798e-06
2.8202e-06
1.50764e-05
2.27795e-06
3.3752e-06
8.6277e-06
2.19807e-06
3.13661e-06
-6.02789e-06
3.72187e-06
1.06585e-06
-1.42469e-05
7.21059e-06
2.61251e-06
-1.42519e-05
7.21693e-06
2.69947e-06
-1.42437e-05
7.21271e-06
2.61341e-06
-1.42355e-05
7.20941e-06
2.54632e-06
7.20679e-06
2.49257e-06
1.5016e-05
2.07573e-06
1.50792e-05
2.25856e-06
1.46451e-05
9.69694e-07
7.70206e-06
-6.31022e-07
1.15641e-06
-4.10267e-06
1.11166e-06
-4.0497e-06
1.11165e-06
-3.95632e-06
1.12538e-06
-4.0497e-06
1.13448e-06
-4.11936e-06
-4.17285e-06
7.72825e-06
2.59672e-06
1.20371e-05
2.56156e-06
1.50719e-05
2.27854e-06
1.50755e-05
2.27857e-06
1.40716e-05
3.29445e-06
-5.08404e-07
8.82009e-06
-1.41394e-05
1.46219e-05
-1.42019e-05
1.4626e-05
-1.41894e-05
1.46096e-05
1.45822e-05
7.69216e-06
2.24231e-06
1.24678e-05
2.33425e-06
1.50734e-05
2.2781e-06
1.26586e-05
2.19005e-06
-1.86462e-06
1.99239e-06
-1.40084e-05
7.09067e-06
-1.40279e-05
7.12304e-06
-1.3993e-05
7.09886e-06
-1.39584e-05
7.07659e-06
7.05581e-06
7.66228e-06
1.9723e-06
1.27858e-05
1.96988e-06
1.46025e-05
1.42396e-06
7.61207e-06
8.44548e-07
1.045e-06
-3.6602e-07
9.74997e-07
-3.61859e-07
9.74988e-07
-3.49099e-07
1.01627e-06
-3.61861e-07
1.04827e-06
-3.71366e-07
-3.78634e-07
6.72126e-06
7.72873e-06
3.75892e-06
1.20442e-06
1.18073e-06
1.15198e-06
1.15198e-06
1.18073e-06
1.20264e-06
)
;

boundaryField
{
    inlet
    {
        type            calculated;
        value           nonuniform 0();
    }
    outlet
    {
        type            calculated;
        value           nonuniform 0();
    }
    bottom
    {
        type            calculated;
        value           uniform 0;
    }
    top
    {
        type            symmetryPlane;
        value           uniform 0;
    }
    side1
    {
        type            symmetryPlane;
        value           nonuniform 0();
    }
    side2
    {
        type            symmetryPlane;
        value           nonuniform 0();
    }
    procBoundary10to2
    {
        type            processor;
        value           nonuniform List<scalar> 
50
(
-9.79697e-06
-6.91181e-06
-5.02422e-06
-4.00504e-06
-1.24914e-05
-1.48308e-05
-1.48319e-05
-1.48317e-05
-1.39082e-05
-4.70624e-06
-4.41887e-06
-2.40748e-06
-2.13421e-06
-2.16396e-06
-1.20106e-05
-1.48307e-05
-1.48319e-05
-1.48318e-05
-1.43843e-05
-4.69814e-06
-2.828e-06
-2.2466e-06
-2.11353e-06
-2.13965e-06
-1.02594e-05
-1.483e-05
-1.48319e-05
-1.48319e-05
-1.48319e-05
-1.47653e-05
-2.83549e-06
-2.31282e-06
-2.08616e-06
-2.11348e-06
-2.13434e-06
-3.3895e-06
-1.47835e-05
-1.48199e-05
-1.48271e-05
-1.47921e-05
-3.083e-06
-3.03916e-06
-2.78988e-06
-2.7348e-06
-2.67057e-06
-3.10438e-06
-1.45585e-05
-1.47231e-05
-1.47467e-05
-1.47214e-05
)
;
    }
    procBoundary10to9
    {
        type            processor;
        value           nonuniform List<scalar> 
20
(
-1.00432e-05
-1.1294e-05
-1.1895e-05
-1.20184e-05
-1.36414e-05
-1.43731e-05
-1.45611e-05
-1.45224e-05
-1.46706e-05
-1.48489e-05
-1.49068e-05
-1.49301e-05
-1.42887e-05
-1.46288e-05
-1.47556e-05
-1.48232e-05
-5.98927e-06
-5.1724e-06
-4.55248e-06
-4.06629e-06
)
;
    }
    procBoundary10to11
    {
        type            processor;
        value           nonuniform List<scalar> 
20
(
9.26199e-06
-1.88028e-06
-2.20386e-06
-2.33869e-06
9.24024e-06
-2.25409e-06
-2.44939e-06
-2.55787e-06
-2.77782e-06
-1.42722e-05
-1.42939e-05
-1.42727e-05
-3.14933e-06
-1.42939e-05
-1.42134e-05
1.13957e-06
-3.4885e-06
-1.3907e-05
1.073e-06
1.21989e-06
)
;
    }
    procBoundary10to18
    {
        type            processor;
        value           nonuniform List<scalar> 
50
(
3.09397e-06
2.42789e-06
2.49435e-06
8.24171e-06
8.26704e-06
8.18992e-06
8.11024e-06
8.18972e-06
8.26668e-06
8.23313e-06
2.26855e-06
2.24936e-06
2.19085e-06
7.61408e-06
7.71829e-06
7.67325e-06
7.62726e-06
7.67324e-06
7.71864e-06
7.71217e-06
2.23157e-06
2.16017e-06
1.90453e-06
7.06829e-06
7.34298e-06
7.32749e-06
7.31183e-06
7.32749e-06
7.34308e-06
7.3586e-06
2.1682e-06
2.01929e-06
1.57365e-06
8.25756e-07
-3.93342e-07
-3.9986e-07
-3.99648e-07
-3.99862e-07
-3.99148e-07
-3.97787e-07
8.14346e-07
6.09031e-07
5.24124e-08
-4.38711e-07
-4.35792e-07
-4.31595e-07
-4.26001e-07
-4.31595e-07
-4.35792e-07
-4.39057e-07
)
;
    }
}


// ************************************************************************* //
