/*--------------------------------*- C++ -*----------------------------------*\
| =========                 |                                                 |
| \\      /  F ield         | OpenFOAM: The Open Source CFD Toolbox           |
|  \\    /   O peration     | Version:  2.4.0                                 |
|   \\  /    A nd           | Web:      www.OpenFOAM.org                      |
|    \\/     M anipulation  |                                                 |
\*---------------------------------------------------------------------------*/
FoamFile
{
    version     2.0;
    format      ascii;
    class       volScalarField;
    location    "0.04";
    object      alpha;
}
// * * * * * * * * * * * * * * * * * * * * * * * * * * * * * * * * * * * * * //

dimensions      [0 0 0 0 0 0 0];

internalField   nonuniform List<scalar> 
200
(
5.92432e-17
1.96029e-17
1.33242e-15
8.61328e-14
4.08506e-12
1.07858e-10
2.74068e-11
1.21703e-09
3.60648e-08
1.24043e-09
3.85383e-17
3.7714e-15
3.24994e-13
2.31057e-11
1.21693e-09
3.60644e-08
1.21701e-09
2.70544e-11
1.06418e-10
1.27157e-10
6.03382e-15
6.49926e-13
6.16062e-11
4.86648e-09
2.88333e-07
9.76439e-06
2.88334e-07
4.88476e-09
1.02884e-09
2.90788e-08
5.19938e-13
6.1604e-11
6.4881e-09
5.76567e-07
3.90393e-05
0.00154223
3.90394e-05
5.78488e-07
1.20835e-07
3.92134e-06
5.72864e-14
2.98755e-15
4.94512e-14
3.51325e-12
1.85123e-10
5.49002e-09
3.03621e-10
1.25947e-11
1.22779e-10
1.09554e-10
3.02442e-16
3.98504e-17
2.04292e-15
1.32055e-13
6.26158e-12
1.65023e-10
6.96383e-12
2.34981e-11
1.23582e-09
3.71583e-08
3.09301e-17
2.9393e-15
2.53336e-13
1.80147e-11
9.48992e-10
2.813e-08
1.01099e-09
4.92788e-09
2.92235e-07
1.00237e-05
2.35134e-15
2.53321e-13
2.40169e-11
1.89754e-09
1.1245e-07
3.80889e-06
1.18975e-07
5.83034e-07
3.95018e-05
0.00157736
4.63468e-11
2.01135e-12
2.40083e-11
1.89435e-09
1.12287e-07
3.80456e-06
1.4821e-07
3.10648e-09
4.72148e-11
9.83717e-13
2.20057e-13
1.22076e-14
2.52994e-13
1.79789e-11
9.4731e-10
2.80869e-08
1.04835e-09
2.19107e-11
4.94114e-12
1.23386e-10
7.74123e-16
6.16834e-17
2.04076e-15
1.31894e-13
6.25459e-12
1.64854e-10
6.7515e-12
1.84685e-11
9.6979e-10
2.91531e-08
9.20292e-18
5.73854e-16
4.94514e-14
3.51663e-12
1.8526e-10
5.4918e-09
2.09734e-10
1.93974e-09
1.15123e-07
3.94464e-06
2.81295e-08
1.01033e-09
6.48215e-09
5.74673e-07
3.89271e-05
0.00153843
3.89272e-05
5.74677e-07
6.46425e-09
6.21218e-11
1.1872e-10
5.15196e-12
6.14486e-11
4.84851e-09
2.87386e-07
9.73631e-06
2.87387e-07
4.84861e-09
6.52806e-11
1.05834e-10
3.75813e-13
1.95946e-14
3.23896e-13
2.30109e-11
1.21243e-09
3.59459e-08
1.21276e-09
4.6384e-11
1.23756e-09
3.72063e-08
1.22464e-15
6.66353e-17
1.32739e-15
8.57757e-14
4.07134e-12
1.07803e-10
6.61318e-11
4.9139e-09
2.92424e-07
1.00294e-05
9.7644e-06
2.88334e-07
4.89052e-09
1.95915e-09
1.1245e-07
3.80883e-06
1.12449e-07
1.89755e-09
2.40171e-11
2.56716e-13
3.60643e-08
1.21693e-09
2.3359e-11
1.83395e-11
9.4898e-10
2.81292e-08
9.48976e-10
1.80154e-11
2.6958e-13
3.94908e-13
1.01491e-10
3.85218e-12
8.27333e-14
9.62732e-14
4.50502e-12
1.18715e-10
4.51664e-12
4.32554e-13
4.61411e-12
1.2328e-10
2.40995e-13
1.01619e-14
2.42263e-16
3.93163e-16
1.73654e-14
4.65611e-13
4.1246e-12
1.19765e-10
9.7108e-10
2.90845e-08
)
;

boundaryField
{
    inlet
    {
        type            zeroGradient;
    }
    outlet
    {
        type            zeroGradient;
    }
    bottom
    {
        type            fixedValue;
        value           uniform 0;
    }
    top
    {
        type            symmetryPlane;
    }
    side1
    {
        type            symmetryPlane;
    }
    side2
    {
        type            symmetryPlane;
    }
    procBoundary23to15
    {
        type            processor;
        value           nonuniform List<scalar> 
50
(
5.59774e-15
2.36527e-16
6.86029e-17
6.90031e-15
6.99628e-13
6.3664e-11
4.91285e-09
2.88336e-07
9.76446e-06
2.932e-07
6.03295e-12
2.28954e-13
8.33887e-15
2.90264e-13
1.97524e-11
9.94137e-10
2.81026e-08
1.89624e-09
2.81474e-08
9.67496e-10
5.49117e-09
1.8525e-10
4.41725e-12
7.94614e-11
5.79957e-09
3.1557e-07
9.73726e-06
2.87406e-07
4.89511e-09
6.38012e-11
3.80883e-06
1.1245e-07
1.9589e-09
4.87279e-09
2.87405e-07
9.73726e-06
3.1547e-07
5.79575e-09
7.93989e-11
1.16182e-12
0.00154223
3.90393e-05
5.76567e-07
6.50612e-09
1.01062e-09
2.81315e-08
9.95328e-10
1.97731e-11
2.90528e-13
4.59236e-15
)
;
    }
    procBoundary23to22
    {
        type            processor;
        value           nonuniform List<scalar> 
20
(
2.73972e-18
3.66392e-19
5.09249e-17
4.02261e-15
2.41445e-15
1.39317e-17
3.30853e-19
1.99544e-17
1.75849e-12
9.25477e-15
3.58531e-17
4.61263e-17
9.48945e-10
4.5054e-12
1.5868e-14
1.0185e-14
2.88332e-07
1.21692e-09
3.85212e-12
1.02077e-14
)
;
    }
    procBoundary23to31
    {
        type            processor;
        value           nonuniform List<scalar> 
50
(
6.03382e-15
6.4993e-13
6.16065e-11
4.8665e-09
2.88334e-07
9.76439e-06
2.88334e-07
4.88477e-09
1.02883e-09
2.90851e-08
3.06696e-17
2.93916e-15
2.5333e-13
1.80145e-11
9.48986e-10
2.81299e-08
1.01103e-09
4.93145e-09
2.92424e-07
1.00294e-05
3.67844e-16
1.34423e-17
5.73574e-16
3.71102e-14
1.76103e-12
4.66045e-11
2.62438e-11
1.93648e-09
1.15123e-07
3.94464e-06
8.11318e-14
1.25462e-15
5.00687e-17
4.34097e-15
5.35596e-13
6.22611e-11
6.53001e-09
5.81256e-07
3.95017e-05
0.00157736
8.77108e-16
3.01409e-17
3.90562e-17
3.79261e-15
3.27413e-13
2.33624e-11
1.2412e-09
3.79859e-08
1.15564e-07
3.9213e-06
)
;
    }
}


// ************************************************************************* //
