/*--------------------------------*- C++ -*----------------------------------*\
| =========                 |                                                 |
| \\      /  F ield         | OpenFOAM: The Open Source CFD Toolbox           |
|  \\    /   O peration     | Version:  2.4.0                                 |
|   \\  /    A nd           | Web:      www.OpenFOAM.org                      |
|    \\/     M anipulation  |                                                 |
\*---------------------------------------------------------------------------*/
FoamFile
{
    version     2.0;
    format      ascii;
    class       surfaceScalarField;
    location    "0.04";
    object      phib;
}
// * * * * * * * * * * * * * * * * * * * * * * * * * * * * * * * * * * * * * //

dimensions      [0 3 -1 0 0 0 0];

internalField   nonuniform List<scalar> 
490
(
9.20547e-05
3.5689e-06
-2.36525e-05
1.62267e-05
4.16037e-05
-1.21587e-05
3.89621e-05
-1.42227e-05
-2.46539e-05
-7.15584e-05
1.94215e-05
1.36571e-05
4.1332e-05
-3.00377e-05
-9.90087e-05
-4.19272e-05
2.35581e-05
-8.15286e-06
5.11267e-05
1.89497e-05
-0.000103434
-2.42759e-06
8.66174e-05
-2.69912e-05
2.96063e-05
8.17124e-05
-6.61995e-05
0.000140668
-1.37202e-05
-0.000104943
0.00013391
-2.99125e-05
-0.000103274
0.000127154
-8.72204e-05
-0.00025084
0.000140843
-7.4815e-06
-0.000230047
0.000104572
-0.000105942
-0.000358176
0.00011733
-1.9239e-05
-0.000211518
8.2507e-05
-0.000205607
-0.000286708
0.000160898
-6.67666e-05
-0.000163223
0.00014884
-0.000185944
-0.00027437
0.000246893
-5.4035e-05
0.000252315
-0.000108651
-0.000101204
0.000198001
-6.64863e-05
-0.000285224
0.000317784
-6.61088e-06
-0.000274145
0.000264438
-0.000134674
-0.000455993
0.000296175
-9.75575e-06
-0.000405956
0.000235291
-0.000167998
-0.000524278
0.000270539
-6.97094e-05
-0.000314107
0.000263364
-0.000312638
-0.000356475
0.000325116
-0.000133913
-8.87724e-05
0.000265737
-0.000286743
0.000348901
-9.4459e-05
-0.000210171
-1.82741e-05
-0.000236997
-1.55387e-05
-0.000505173
2.07348e-05
-0.000419151
-0.000189245
-0.00061855
-1.23899e-05
-0.000487711
-0.000250188
-0.000581374
-9.28209e-05
-0.000310361
-0.000398311
-0.000463811
-0.000212992
-0.00035814
4.19579e-05
-8.50157e-06
-4.24822e-05
7.55769e-05
-1.69577e-05
-5.77908e-05
8.43041e-06
1.91896e-05
-3.2983e-05
3.39266e-05
4.92104e-06
-7.29973e-05
-9.37831e-05
1.29824e-05
-3.2343e-05
-6.46333e-05
5.91984e-05
-7.60404e-05
-0.000222623
0.000114114
-4.13625e-05
-0.000254761
0.000156933
-5.60582e-05
-0.000367237
0.000183137
-2.0495e-05
0.000175507
-3.66213e-05
-0.000169495
5.71832e-05
-8.83005e-05
-0.000229722
1.43251e-05
-5.82762e-05
-0.000211388
7.1622e-05
-7.82485e-05
-0.000328513
6.48861e-05
-4.87817e-05
-0.000271392
8.31848e-05
-0.000146562
-0.000453749
0.000111525
-7.55768e-05
-0.000420066
0.000160119
-0.000146455
-0.000570686
0.000205757
-8.41448e-05
-0.000566373
0.00021473
-8.98992e-05
0.000208426
-4.6511e-05
-0.000104948
0.000176151
-1.11132e-05
-0.000100103
0.000112022
-0.000109152
-0.000239042
0.000122216
-4.63294e-05
-0.00025206
0.000172208
-0.00010406
-0.000437799
0.000160378
-5.94522e-05
-0.000376134
0.000205813
-0.000225663
-0.000639414
0.000206609
-9.58482e-05
-0.000593404
0.000256345
-0.000230512
-0.000893353
0.000329665
-0.000101729
0.000330138
-0.000122902
0.000316113
-0.000106255
1.2672e-06
9.85998e-05
-3.16272e-05
-3.50239e-05
-0.000263152
-4.27826e-05
-0.000254716
-0.000147335
-0.000482821
-6.48596e-05
-0.000432326
-0.000234516
-0.00071775
-0.000205486
-0.000639713
-0.000334847
-0.000155115
-5.19091e-05
-3.05871e-05
-5.43421e-06
-0.00019608
8.26643e-06
4.66792e-05
-0.000208294
-1.97265e-05
-4.33847e-05
-0.000284622
-3.53504e-05
-2.76725e-05
-0.0003257
2.37881e-05
-1.72837e-05
-0.000402856
5.67528e-05
-4.91655e-05
-0.00045081
0.000101725
-3.21008e-05
-0.000498241
0.000142267
-2.28058e-05
-0.000517291
0.000138972
-1.04853e-05
0.000134626
-2.68787e-05
-0.000414191
-3.44225e-05
-1.66434e-05
-0.000460899
-1.30576e-06
-1.99638e-06
-0.00058743
1.09778e-05
1.75783e-05
-0.000603731
-2.89868e-06
-6.49327e-05
-0.000665341
-1.45207e-05
-4.66425e-05
-0.000705853
5.53271e-05
-3.36394e-05
-0.00078619
9.74799e-05
-6.18728e-05
-0.000810017
0.000131544
-4.95962e-05
-0.000882648
0.000158956
-3.72513e-05
0.00015613
-1.4528e-05
-0.000386128
-1.80069e-05
-3.15151e-05
-0.000422433
-6.34362e-05
-1.07166e-05
-0.000457994
8.87647e-06
-8.66742e-06
-0.000572758
3.31401e-06
4.49075e-06
-0.000547771
1.08205e-05
-0.00010978
-0.00064702
3.37447e-06
-7.44607e-05
-0.000638715
7.94854e-05
-8.61591e-05
-0.000799789
0.000122777
-6.06706e-05
-0.000887565
0.000206794
-6.17898e-05
0.000171043
-4.57569e-05
-0.000204333
5.66591e-05
-0.000119887
-6.64446e-06
-0.00030489
8.75578e-05
-0.000378816
-3.59586e-05
-0.000566408
-1.49803e-05
-0.000616821
-0.000102708
-0.000813168
-4.54969e-05
-0.000884118
-0.000212247
-0.00112326
-6.3834e-05
-9.79048e-05
6.6738e-05
4.50576e-05
4.13464e-05
7.16652e-05
2.30494e-05
4.00241e-05
-0.000143748
4.69036e-05
0.000119789
-0.000179715
8.75511e-05
-2.68022e-05
-0.000306806
0.000119111
-6.86777e-06
-0.00043467
0.000138694
6.21854e-06
-0.000496556
0.000141946
-3.56164e-05
-0.000471098
0.000118828
-3.96128e-05
-0.000497542
0.00013641
-3.77474e-06
0.000160966
-1.88777e-05
-0.000361588
7.3808e-06
3.8401e-06
-0.000444051
3.76032e-05
6.59126e-05
-0.000522241
1.58814e-05
0.000126792
-0.000562515
6.58525e-05
-2.95962e-06
-0.000650831
0.000118892
4.1893e-05
-0.000714782
0.000181843
-1.28366e-05
-0.000821012
0.000169983
1.63192e-05
-0.000870353
0.000153502
-3.49293e-05
-0.00089687
0.000131089
-5.41277e-06
0.000132757
-7.27736e-06
-0.000538401
-3.36507e-05
2.43388e-06
-0.000504513
-2.14431e-05
1.44405e-05
-0.000538339
-1.69365e-05
5.80106e-05
-0.000752763
-2.67869e-05
0.000311534
-0.000726199
5.72546e-05
-7.47013e-05
-0.000839102
0.000177465
4.28197e-05
-0.000889314
0.000193607
-5.95706e-05
-0.00103528
0.000197593
4.12059e-05
-0.0010838
0.000156637
-3.88177e-05
0.000162847
-1.30268e-07
-0.000634597
-9.84518e-06
-0.000608818
-1.39127e-06
-0.000536806
6.0774e-06
-0.000572602
1.46408e-05
-0.000801977
0.000307477
-0.000677189
-0.000143994
-0.0007617
5.47213e-05
-0.000881659
-7.74782e-05
-0.000999674
2.57713e-05
-4.06818e-05
0.000335839
5.78124e-05
0.000352255
0.000131728
0.000392974
0.000200365
0.00034095
0.000201425
0.000367095
0.000114845
0.000306325
0.000136472
0.000263274
0.000133774
0.000131964
0.000203047
0.000103165
0.000172939
0.000158121
-8.23098e-05
4.16053e-05
0.000100154
1.51776e-05
0.000217639
0.000209835
-0.000139923
0.000556038
-0.0002129
0.000229715
-0.000368415
0.00027915
-0.000430397
0.000212075
-0.000453384
0.000191105
-0.000472853
0.000186996
0.000159427
-0.000619948
-1.65219e-05
-0.000559208
-3.15637e-05
-0.000224098
-6.72526e-05
0.000123766
0.000519891
-0.000474929
0.000753708
-0.000515101
0.000362142
-0.000709324
0.000346727
-0.000698598
0.000221587
-0.000758592
0.000208348
0.00017585
-0.000903947
-0.000917659
-0.000929942
-0.000357064
5.23109e-06
-0.000465764
-0.000523124
-0.000721965
-0.000710493
)
;

boundaryField
{
    inlet
    {
        type            fixedValue;
        value           nonuniform 0();
    }
    outlet
    {
        type            calculated;
        value           nonuniform List<scalar> 
20
(
6.2245e-06
-0.000277047
-9.09035e-05
-0.00029044
-0.000415459
-0.000661429
-0.000986621
-0.000866925
-0.000569879
-0.000936135
-0.000979623
-0.0012346
-0.00052909
-0.000875912
-0.00115952
-0.0010191
4.73107e-05
-0.000481436
-0.000775138
-0.000789814
)
;
    }
    bottom
    {
        type            fixedValue;
        value           uniform 0;
    }
    top
    {
        type            symmetryPlane;
        value           nonuniform List<scalar> 
40
(
-2.48693e-11
-2.44282e-11
-1.44225e-11
-1.24688e-11
-1.81208e-11
-2.23789e-11
-1.44526e-11
-1.20798e-11
-3.62194e-11
-2.77393e-11
-1.41643e-11
-1.18822e-11
-3.13537e-11
-2.53017e-11
-2.26346e-11
-1.15278e-11
-2.05634e-11
-1.8635e-11
-1.99462e-11
-1.91522e-11
-3.92277e-11
-1.63564e-11
-9.8836e-12
-1.49563e-11
-4.95583e-11
-1.51064e-11
-1.00475e-11
-9.18018e-12
-3.78075e-11
-1.29154e-11
-9.95276e-12
-9.95802e-12
-2.52039e-11
-1.24488e-11
-9.81994e-12
-1.01481e-11
-6.4784e-11
-5.31655e-11
-3.33526e-11
-3.74721e-11
)
;
    }
    side1
    {
        type            symmetryPlane;
        value           nonuniform 0();
    }
    side2
    {
        type            symmetryPlane;
        value           nonuniform 0();
    }
    procBoundary23to15
    {
        type            processor;
        value           nonuniform List<scalar> 
50
(
2.48235e-05
4.64197e-05
1.61441e-05
7.73877e-05
1.61568e-05
6.7854e-05
-8.57002e-06
-6.07724e-06
-4.74786e-05
-0.000103563
3.60479e-05
2.89713e-05
5.6302e-05
5.62368e-05
4.80615e-05
-2.04606e-05
-1.8195e-05
-9.57287e-05
-0.000116364
-0.000104384
1.694e-05
3.14345e-05
4.23418e-05
6.63539e-05
2.23099e-06
-6.47216e-06
-6.30326e-05
-0.000128088
-0.000129932
-9.1781e-05
-1.24365e-06
-2.13215e-05
5.33617e-06
-5.24543e-05
-2.43647e-06
-6.62174e-05
-7.65971e-05
-0.000127479
-0.000116676
-0.000137419
-5.00869e-05
-0.00010812
-0.000121294
-0.000176203
-0.000147858
-6.94825e-05
-0.00012634
-0.00011135
-0.000147914
-0.000121145
)
;
    }
    procBoundary23to22
    {
        type            processor;
        value           nonuniform List<scalar> 
20
(
-9.67922e-05
4.5144e-06
0.000103599
-8.14245e-06
-5.06746e-05
0.000162198
-6.93934e-05
-9.57115e-05
2.85082e-05
0.00034637
0.000390114
0.000166012
-0.000157333
0.000378781
0.000545484
0.00068382
-0.000302218
0.000102357
0.000680497
0.000899539
)
;
    }
    procBoundary23to31
    {
        type            processor;
        value           nonuniform List<scalar> 
50
(
0.000434589
0.000360149
0.000511879
0.000399398
0.00044708
0.000389888
0.000449848
0.000452414
0.000632179
0.000533669
4.37305e-05
0.000312729
0.00021087
0.00025727
0.000286887
0.00024859
0.000297809
0.000348944
0.000373483
0.000354325
-0.0001426
-4.26378e-05
7.1299e-05
7.0382e-05
6.60584e-05
9.16351e-05
8.68133e-05
0.000200488
0.000174922
0.000225176
-1.63699e-05
-5.24867e-05
-7.88924e-06
-4.15908e-05
-3.53788e-05
9.39786e-05
0.0001779
0.00018278
0.000185069
0.000125055
-2.19593e-05
-1.92474e-05
-4.88443e-05
-3.83555e-05
0.000698884
0.000689143
0.000458798
0.000342411
0.000222644
0.000215002
)
;
    }
}


// ************************************************************************* //
