/*--------------------------------*- C++ -*----------------------------------*\
| =========                 |                                                 |
| \\      /  F ield         | OpenFOAM: The Open Source CFD Toolbox           |
|  \\    /   O peration     | Version:  2.4.0                                 |
|   \\  /    A nd           | Web:      www.OpenFOAM.org                      |
|    \\/     M anipulation  |                                                 |
\*---------------------------------------------------------------------------*/
FoamFile
{
    version     2.0;
    format      ascii;
    class       volVectorField;
    location    "0.04";
    object      Ua;
}
// * * * * * * * * * * * * * * * * * * * * * * * * * * * * * * * * * * * * * //

dimensions      [0 1 -1 0 0 0 0];

internalField   nonuniform List<vector> 
200
(
(-21.0514 5.44765 -4.82659)
(2.44713 10.2175 -6.78157)
(6.30988 10.985 -7.09378)
(6.31076 10.9845 -7.09742)
(6.30936 10.9823 -7.10675)
(6.30366 10.9722 -7.14748)
(4.15706 6.9009 -23.5562)
(3.99234 6.17776 -26.6855)
(3.99234 6.17742 -26.6871)
(3.97574 6.18658 -26.6739)
(6.18484 10.5973 -7.0602)
(6.41243 10.6481 -7.08429)
(6.41255 10.6481 -7.0843)
(6.41255 10.6481 -7.0843)
(6.41256 10.6481 -7.08431)
(6.41256 10.6481 -7.08431)
(6.41231 10.6479 -7.08558)
(5.87155 10.0992 -9.7969)
(1.72438 7.44642 -24.8278)
(-47.0168 34.32 13.6523)
(6.41253 10.6481 -7.08428)
(6.41254 10.6481 -7.08429)
(6.41255 10.6481 -7.08429)
(6.41255 10.6481 -7.08429)
(6.41255 10.6481 -7.0843)
(6.41256 10.6481 -7.0843)
(6.4125 10.6481 -7.08428)
(6.20663 10.74 -7.00196)
(-45.3375 33.741 13.6121)
(-48.6455 35.2185 14.9402)
(6.4125 10.648 -7.08424)
(6.41251 10.648 -7.08425)
(6.41252 10.648 -7.08426)
(6.41252 10.648 -7.08427)
(6.41253 10.6481 -7.08427)
(6.41254 10.6481 -7.08428)
(6.4125 10.6481 -7.08426)
(6.22964 10.7297 -7.01111)
(-45.6902 33.8996 13.758)
(-48.6457 35.2186 14.9403)
(-20.8703 5.36363 -4.75832)
(-16.1972 7.58903 -5.26802)
(4.59626 16.6712 -7.16305)
(4.62467 16.6837 -7.16538)
(4.62245 16.6829 -7.16473)
(4.61531 16.6801 -7.16261)
(-4.40738 12.9373 -4.45969)
(-4.21219 9.62178 -11.523)
(2.29578 7.10891 -25.3306)
(-46.4359 33.9993 13.1925)
(-18.7365 4.82645 -4.27789)
(-2.91115 9.73776 -6.14712)
(5.90836 12.3404 -7.10708)
(5.91251 12.3419 -7.10748)
(5.91197 12.3422 -7.10733)
(5.91008 12.3426 -7.10671)
(2.03302 13.1341 -5.70137)
(-48.2844 35.0521 14.7785)
(-48.6307 35.2103 14.928)
(-48.6468 35.2191 14.9407)
(5.52664 10.4112 -6.96325)
(6.41196 10.6481 -7.08419)
(6.41242 10.6482 -7.08425)
(6.41236 10.6482 -7.08422)
(6.41218 10.6483 -7.08415)
(6.41126 10.6487 -7.08379)
(3.03591 12.155 -5.73357)
(-48.4454 35.1292 14.8601)
(-48.6467 35.2191 14.9407)
(-48.6468 35.2191 14.9407)
(6.41242 10.648 -7.08421)
(6.41245 10.648 -7.08422)
(6.41244 10.6481 -7.08422)
(6.4124 10.6481 -7.08421)
(6.41227 10.6482 -7.08416)
(6.41164 10.6485 -7.08392)
(3.39266 11.9957 -5.87625)
(-48.4673 35.139 14.8689)
(-48.6466 35.219 14.9406)
(-48.6466 35.219 14.9406)
(-20.5415 5.27833 -4.68101)
(-17.6689 6.78614 -5.0583)
(4.59072 16.6694 -7.16356)
(4.63019 16.6867 -7.16711)
(4.62941 16.6864 -7.16688)
(4.62678 16.6853 -7.1661)
(-0.984436 14.3595 -5.48133)
(-4.40746 12.9406 -4.45362)
(-6.67757 11.9658 -3.86173)
(-24.2508 20.7555 3.73856)
(-18.228 4.68538 -4.15318)
(-13.1413 7.67042 -4.96777)
(4.61247 16.6777 -7.16551)
(4.63257 16.6877 -7.16784)
(4.63221 16.6875 -7.16774)
(4.63102 16.6871 -7.16739)
(2.39966 15.7622 -6.4974)
(0.343828 15.0885 -5.85342)
(-45.2569 33.7595 13.4698)
(-48.4876 35.1702 14.8591)
(-16.3735 4.21249 -3.73158)
(-7.75718 8.81699 -5.24454)
(5.12353 14.9848 -7.14309)
(5.13344 14.9897 -7.14445)
(5.13306 14.9898 -7.14434)
(5.13175 14.9901 -7.14389)
(2.25531 15.4773 -6.06316)
(-47.9856 35.0009 14.6304)
(-48.4102 35.1629 14.8113)
(-48.4363 35.1656 14.8273)
(0.478391 6.03437 -6.11006)
(6.40757 10.6468 -7.08348)
(6.4121 10.6489 -7.08418)
(6.412 10.6488 -7.08413)
(6.41166 10.6489 -7.08398)
(6.40984 10.6496 -7.08325)
(0.0480749 13.506 -4.54964)
(-48.0756 35.0947 14.6272)
(-48.2265 35.1444 14.6985)
(-48.2781 35.1496 14.7302)
(-20.1181 5.16902 -4.58038)
(-19.0153 5.97105 -4.82675)
(4.56326 16.6569 -7.16157)
(4.63414 16.6883 -7.1683)
(4.63416 16.6884 -7.16831)
(4.63416 16.6884 -7.16832)
(4.63409 16.6883 -7.16829)
(4.63397 16.6883 -7.16825)
(4.6338 16.6882 -7.1682)
(4.61799 16.688 -7.17445)
(-17.5698 4.51485 -3.99853)
(-15.3606 6.19169 -4.52664)
(4.59799 16.6701 -7.16384)
(4.63416 16.6884 -7.16833)
(4.63417 16.6884 -7.16834)
(4.63418 16.6884 -7.16834)
(4.63414 16.6884 -7.16833)
(4.63403 16.6885 -7.16838)
(4.41425 16.8894 -7.37005)
(0.94666 18.7748 -9.85553)
(-15.5874 4.00639 -3.54612)
(-12.3574 6.59907 -4.38429)
(4.60959 16.6745 -7.16459)
(4.63417 16.6884 -7.16834)
(4.63418 16.6884 -7.16834)
(4.63418 16.6884 -7.16835)
(4.63325 16.6904 -7.16983)
(2.90684 20.0636 -9.76686)
(1.16835 22.5453 -11.8853)
(1.11667 21.4787 -11.3265)
(-11.2459 0.442346 -3.81698)
(-9.03621 5.99169 -4.51638)
(4.71537 16.3397 -7.16264)
(4.73238 16.355 -7.168)
(4.72946 16.3647 -7.17444)
(4.71442 16.4135 -7.2069)
(1.63838 26.1099 -13.7013)
(1.41372 26.3314 -13.9132)
(1.38677 25.7926 -13.6317)
(1.35151 25.079 -13.2567)
(-19.5535 5.02365 -4.44027)
(-20.1203 5.16931 -4.56537)
(-20.4215 5.3345 -4.67021)
(3.83198 16.3322 -7.0659)
(4.634 16.6883 -7.1447)
(4.63416 16.6884 -7.14767)
(4.63411 16.6883 -7.1447)
(4.63403 16.6883 -7.14173)
(4.63393 16.6882 -7.13876)
(4.61891 16.6934 -7.14512)
(-16.7231 4.29649 -3.79378)
(-17.5728 4.51484 -3.9835)
(-17.9855 4.81474 -4.16263)
(4.21956 16.4781 -7.0876)
(4.63407 16.6884 -7.14179)
(4.63417 16.6884 -7.14475)
(4.63415 16.6884 -7.1418)
(4.6344 16.6881 -7.13844)
(4.42321 16.9481 -7.36971)
(1.08837 20.0055 -10.5047)
(-14.6005 3.75114 -3.30896)
(-15.5914 4.00582 -3.53097)
(-16.0108 4.43112 -3.76849)
(4.35122 16.5276 -7.09302)
(4.63411 16.6884 -7.13884)
(4.6342 16.6884 -7.14178)
(4.661 16.6635 -7.10167)
(10.8029 11.5053 1.32038)
(1.29535 23.3372 -12.255)
(1.21661 22.5525 -11.8759)
(-12.9496 3.32693 -2.93192)
(-14.0063 3.59862 -3.16897)
(-14.3406 4.15329 -3.45026)
(4.95443 15.9877 -6.39801)
(5.55137 15.738 -5.89009)
(6.80146 14.5454 -4.15057)
(16.0284 5.89077 8.6608)
(14.6663 7.84038 6.54493)
(1.49877 26.2456 -13.7828)
(1.40887 25.7987 -13.6033)
)
;

boundaryField
{
    inlet
    {
        type            calculated;
        value           nonuniform 0();
    }
    outlet
    {
        type            calculated;
        value           uniform (0 0 0);
    }
    bottom
    {
        type            calculated;
        value           uniform (0 0 0);
    }
    top
    {
        type            symmetryPlane;
    }
    side1
    {
        type            symmetryPlane;
    }
    side2
    {
        type            symmetryPlane;
    }
    procBoundary23to15
    {
        type            processor;
        value           nonuniform List<vector> 
50
(
(-23.5142 6.04125 -5.36264)
(-23.4596 6.04388 -5.39688)
(-0.431573 6.64658 -20.7608)
(2.21006 6.47811 -23.6481)
(2.83649 6.32078 -24.9275)
(3.38003 6.22716 -25.8629)
(3.7799 6.186 -26.4373)
(3.99225 6.17742 -26.687)
(3.99238 6.17741 -26.6871)
(3.99238 6.17741 -26.6871)
(-23.5147 6.04136 -5.36163)
(-23.5148 6.04221 -5.36028)
(-19.8037 7.03227 -3.62255)
(-15.5471 8.08968 -1.00584)
(-16.4595 7.76927 -0.759748)
(-17.4487 7.43297 -0.499361)
(-18.5162 7.08593 -0.230022)
(-7.2592 6.63147 -13.462)
(3.97798 6.178 -26.6702)
(3.97282 6.18516 -26.6694)
(-23.5151 6.04148 -5.35989)
(-23.516 6.04203 -5.3586)
(-21.1817 6.70652 -4.66322)
(-13.3409 8.82891 -1.60259)
(-14.798 8.30677 -1.19766)
(-16.5078 7.72456 -0.738033)
(-18.5299 7.08676 -0.213256)
(-18.5306 7.08651 -0.213215)
(-18.3177 7.07784 -0.463643)
(-17.8971 7.06118 -0.95797)
(-23.5156 6.04159 -5.35632)
(-23.5167 6.04196 -5.3544)
(-22.6518 6.31673 -5.38392)
(3.91126 14.5362 -6.25728)
(3.9632 14.2769 -6.13229)
(3.85096 13.8751 -5.95963)
(1.96199 13.6371 -5.60567)
(0.357895 13.3541 -5.27342)
(-1.01272 13.0553 -4.98521)
(1.18726 10.0195 -5.43624)
(-23.516 6.04171 -5.34539)
(-23.5171 6.04197 -5.34123)
(-23.5174 6.04206 -5.33691)
(-23.441 6.06638 -5.33532)
(2.36728 14.0585 -6.18304)
(3.96295 14.2775 -6.11203)
(2.99692 14.2302 -5.95815)
(2.0994 14.1262 -5.79177)
(1.26978 13.9863 -5.62683)
(3.68655 10.716 -6.16256)
)
;
    }
    procBoundary23to22
    {
        type            processor;
        value           nonuniform List<vector> 
20
(
(-19.1777 4.93501 -4.37726)
(5.28098 10.3601 -6.94023)
(6.41252 10.6481 -7.08427)
(6.41252 10.648 -7.08423)
(-18.7611 4.82011 -4.2756)
(-17.1233 4.36772 -3.8829)
(2.48917 9.44845 -6.45982)
(6.3786 10.5135 -7.08074)
(-18.2326 4.68426 -4.15306)
(-16.4184 4.20527 -3.73104)
(-14.8768 3.75862 -3.39642)
(0.435261 -12.9152 -6.48409)
(-17.5722 4.51456 -3.99859)
(-15.5884 4.00576 -3.54601)
(-13.9807 3.57422 -3.18887)
(0.403599 -12.9147 -6.47545)
(-16.7239 4.29666 -3.79395)
(-14.6011 3.75125 -3.30908)
(-12.95 3.32705 -2.93197)
(-11.5747 2.91568 -2.64759)
)
;
    }
    procBoundary23to31
    {
        type            processor;
        value           nonuniform List<vector> 
50
(
(5.82317 9.66941 -6.43316)
(5.76421 9.57157 -6.36806)
(5.69219 9.45197 -6.28849)
(5.60217 9.30248 -6.18904)
(5.48645 9.11031 -6.06119)
(5.33223 8.85421 -5.8908)
(5.4864 9.11033 -6.06117)
(5.4197 9.38465 -6.1163)
(-39.6144 29.4999 11.8913)
(-41.6389 30.1527 12.785)
(5.71194 9.07759 -6.48744)
(5.82306 9.66922 -6.43303)
(5.76408 9.57145 -6.3679)
(5.69195 9.45184 -6.2883)
(5.60172 9.30242 -6.18877)
(5.48525 9.11074 -6.06067)
(2.60999 10.6502 -4.99648)
(-42.2971 30.6944 12.9628)
(-41.6049 30.1412 12.768)
(-40.4576 29.308 12.4168)
(0.463992 -12.961 -6.49171)
(3.38518 -0.713158 -6.49374)
(5.82448 9.67133 -6.43657)
(5.76142 9.58286 -6.37287)
(5.6858 9.48011 -6.30097)
(5.5774 9.41798 -6.2411)
(1.49163 28.7506 -15.0067)
(1.23775 30.1379 -15.6715)
(1.2878 30.136 -15.7065)
(1.3394 30.1308 -15.7382)
(0.462649 -12.9725 -6.49163)
(0.462461 -12.9565 -6.49426)
(1.65783 14.9588 -11.9849)
(1.93866 29.0288 -15.24)
(1.77503 29.7134 -15.6686)
(1.69676 30.0204 -15.8669)
(1.66872 30.1128 -15.9316)
(1.66124 30.1253 -15.9443)
(1.6581 30.1306 -15.9497)
(1.6581 30.1306 -15.9497)
(-6.54968 -3.71403 -4.23939)
(-9.65418 -0.0576195 -3.46054)
(16.4711 4.49318 9.87293)
(16.9592 4.57471 10.0922)
(16.9311 4.62324 10.0522)
(16.8755 4.71713 9.96558)
(16.7435 4.93783 9.74953)
(16.2661 5.73521 8.94589)
(1.82012 29.86 -15.6217)
(1.65819 30.1304 -15.9034)
)
;
    }
}


// ************************************************************************* //
