/*--------------------------------*- C++ -*----------------------------------*\
| =========                 |                                                 |
| \\      /  F ield         | OpenFOAM: The Open Source CFD Toolbox           |
|  \\    /   O peration     | Version:  2.4.0                                 |
|   \\  /    A nd           | Web:      www.OpenFOAM.org                      |
|    \\/     M anipulation  |                                                 |
\*---------------------------------------------------------------------------*/
FoamFile
{
    version     2.0;
    format      ascii;
    class       volVectorField;
    location    "0.04";
    object      Ur;
}
// * * * * * * * * * * * * * * * * * * * * * * * * * * * * * * * * * * * * * //

dimensions      [0 1 -1 0 0 0 0];

internalField   nonuniform List<vector> 
200
(
(-57.5969 16.3904 20.9816)
(-23.1559 40.5147 -53.7311)
(-1.12118 -8.24222 59.7458)
(-4.02582 129.257 -78.4461)
(50.8117 -62.5155 241.028)
(-43.9887 149.281 -74.4855)
(56.9073 -152.64 268.849)
(-53.3657 80.9365 -77.4765)
(57.1964 -174.191 196.705)
(-39.3683 18.636 -107.45)
(6.39852 -4.60896 -44.6882)
(68.7946 -105.954 171.526)
(46.1121 53.7547 -79.1246)
(145.898 -157.3 273.086)
(76.8931 136.91 -131.931)
(187.788 -193.976 511.372)
(27.0139 142.017 -83.3842)
(173.026 -261.545 472.08)
(12.489 35.0658 -71.1797)
(103.859 -268.038 343.346)
(61.5401 -187.015 274.753)
(56.904 -58.5534 -124.13)
(155.436 -275.679 343.75)
(105.127 25.4671 -132.846)
(245.506 -319.584 463.485)
(121.455 99.0452 -191.783)
(258.446 -402.719 825.348)
(48.8975 82.9677 -103.226)
(137.572 -393.523 724.644)
(-60.6174 13.1241 -44.3378)
(-27.7942 -85.5 -312.766)
(148.667 -424.433 465.683)
(94.4426 -84.1995 -225.577)
(259.896 -493.478 596.738)
(141.208 -7.72641 -197.499)
(321.047 -527.784 723.455)
(123.693 28.9079 -264.979)
(279.553 -619.225 1139.09)
(-7.25055 47.478 -153.704)
(170.298 -605.767 1011.21)
(-79.8876 49.7423 48.8211)
(-15.7673 4.45142 84.4991)
(-47.9914 77.2761 9.59849)
(27.7094 2.56302 45.9521)
(-24.0316 84.7718 25.424)
(92.6226 -107.336 99.4122)
(1.3309 11.1537 -2.51716)
(131.808 -181.52 121.451)
(115.454 -45.8481 -63.0341)
(108.564 -158.09 127.426)
(94.7345 -47.3069 114.645)
(34.3969 40.4132 57.816)
(127.647 -84.3405 100.581)
(77.6165 39.1087 9.32967)
(167.705 -93.0069 185.841)
(94.4507 48.8021 29.6477)
(236.208 -202.463 257.511)
(95.5585 -16.1005 41.2815)
(248.223 -225.209 217.197)
(161.42 -26.2391 0.723675)
(-15.8451 -3.70037 -103.712)
(68.5123 -73.9999 132.188)
(41.4882 -16.279 1.19409)
(139.995 -152.897 155.734)
(106.612 -8.87426 -18.1193)
(210.958 -227.087 377.429)
(152.873 -5.65293 2.34406)
(251.505 -279.232 467.487)
(201.769 -46.1757 71.2481)
(361.457 -295.185 311.789)
(-26.6172 -229.911 336.17)
(-108.568 -10.0745 -388.904)
(30.9151 -167.97 180.822)
(28.4558 -80.5328 -89.0886)
(155.377 -262.793 237.359)
(102.614 -65.3258 -56.362)
(234.106 -330.835 526.293)
(124.014 -19.1182 -47.335)
(339.379 -414.842 776.279)
(186.858 -81.7247 26.1396)
(37.0637 -7.25065 22.9283)
(-18.4715 50.4733 42.8892)
(131.381 1.27986 42.1972)
(61.4895 92.4563 118.051)
(175.458 -93.5182 27.757)
(107.567 35.8769 76.7793)
(198.541 -137.744 76.5069)
(178.606 -42.0711 1.67843)
(222.429 -176.007 77.7063)
(169.029 -17.9271 -8.84499)
(98.7567 67.1357 91.4873)
(184.706 -60.3642 55.8639)
(184.877 70.8449 66.1339)
(283.475 -9.58817 73.9372)
(213.294 81.9981 154.65)
(324.547 -112.759 124.421)
(254.595 -1.22111 95.9562)
(368.227 -186.274 159.328)
(281.375 -2.98069 34.455)
(308.793 -159.537 117.67)
(159.021 -18.7597 79.9633)
(138.306 85.934 108.462)
(186.1 -57.7412 76.5096)
(206.182 62.8557 71.9629)
(238.646 -27.1529 120.574)
(223.921 66.2517 164.7)
(290.864 -123.709 200.844)
(188.517 30.3773 148.915)
(356.204 -201.761 196.53)
(297.606 -12.3374 45.9317)
(62.4904 86.7741 -107.31)
(62.2992 29.9095 23.5719)
(69.1682 68.3444 -161.541)
(159.678 -75.8738 119.463)
(191.294 30.4183 81.0578)
(248.766 -74.227 162.651)
(250.2 10.7631 32.5045)
(356.217 -169.208 559.316)
(314.547 -38.4381 88.2207)
(441.443 -216.004 325.556)
(-90.3748 24.6125 9.69898)
(-49.7324 -31.9868 -172.366)
(-21.9677 25.9254 56.1923)
(146.916 -103.871 -63.3168)
(37.5697 2.84489 10.7546)
(196.04 -149.345 36.0819)
(174.606 -31.995 18.6325)
(230.542 -147.574 57.7419)
(185.529 -30.1647 -58.5374)
(199.797 -171.97 62.2154)
(177.194 -92.2194 -51.5544)
(72.6359 16.3552 -50.2413)
(268.421 -57.6165 -122.227)
(154.43 -0.0625125 78.5913)
(316.96 -167.065 -38.7403)
(210.093 -48.1048 -37.8807)
(360.127 -187.167 53.7345)
(325.239 -20.6929 -31.9004)
(405.579 -163.847 66.3238)
(316.615 -33.5053 -64.5869)
(179.248 85.6797 19.7754)
(223.443 -65.1635 -71.1929)
(154.315 68.492 -63.6281)
(322.137 -49.1102 -84.9762)
(250.668 4.94192 155.969)
(369.486 -197.932 30.3835)
(287.708 -50.0975 19.6665)
(443.657 -195.09 14.4178)
(414.151 -12.3813 -27.6941)
(446.389 -166.303 61.1626)
(271.3 -29.8463 -30.186)
(221.783 109.533 31.1038)
(245.955 -22.8047 -49.7786)
(187.654 107.07 -12.1724)
(332.959 -36.6003 -16.2506)
(256.042 -66.8234 113.055)
(324.958 -201.55 90.4238)
(279.013 -65.9077 0.501441)
(437.606 -184.656 72.4052)
(383.082 -22.6978 -49.2128)
(-149.248 -38.9993 -130.732)
(-148.196 -94.3863 76.2847)
(-187.189 -75.3081 -358.591)
(-143.864 -150.644 127.307)
(-109.361 -56.6023 -11.7329)
(-146.195 -53.8108 -69.8193)
(-145.197 -83.8292 26.254)
(-51.8554 -77.3763 4.03641)
(-10.3131 -140.577 46.6285)
(-46.8051 -53.1852 -22.9248)
(-39.3443 -29.7609 44.4271)
(58.3293 -101.318 -116.706)
(-196.954 -241.141 -197.329)
(85.1596 -104.079 -57.1697)
(-22.6868 -112.248 -78.5969)
(195.69 -166.658 51.2842)
(123.836 -93.5877 -112.105)
(223.423 -197.625 97.9022)
(195.238 -83.9984 -67.6473)
(170.792 -157.591 59.7427)
(275.871 -42.8863 -28.8633)
(154.235 78.7386 30.468)
(334.666 -40.9718 -68.4429)
(-228.934 -772.627 -711.129)
(198.676 -176.177 44.6571)
(119.521 -234.689 -162.371)
(331.313 -214.637 115.399)
(248.448 -91.1454 -133.607)
(334.827 -191.337 98.6505)
(288.937 -59.1437 -78.0788)
(343.758 73.6905 57.3386)
(351.483 -22.1265 -29.8167)
(333.108 109.408 34.3051)
(471.985 -10.2073 -19.7683)
(-239.162 -1039.91 -795.738)
(261.59 -301.059 240.314)
(119.545 -316.402 -251.684)
(344.577 -236.244 181.524)
(251.929 -87.5452 -166.905)
(316.834 -184.07 116.927)
)
;

boundaryField
{
    inlet
    {
        type            calculated;
        value           nonuniform 0();
    }
    outlet
    {
        type            calculated;
        value           nonuniform List<vector> 
20
(
(-43.3441 12.4494 -80.776)
(150.876 -302.358 329.694)
(-11.9719 -22.0944 -59.278)
(218.944 -640.986 996.272)
(155 -192.09 114.234)
(210.067 -61.4582 -14.217)
(410.104 -330.405 296.848)
(235.504 -116.944 11.199)
(193.28 -38.6827 -12.5835)
(357.28 -194.708 102.811)
(346.042 -47.5031 31.1044)
(489.722 -251.153 310.825)
(195.179 -188.658 69.3899)
(315.668 -52.2801 -54.7314)
(445.273 -187.782 72.4891)
(381.731 -47.7768 -35.9562)
(-51.424 -69.8785 -15.7797)
(169.704 -177.597 70.2474)
(287.72 -81.6961 -66.2028)
(315.425 -209.869 130.53)
)
;
    }
    bottom
    {
        type            calculated;
        value           uniform (0 0 0);
    }
    top
    {
        type            symmetryPlane;
    }
    side1
    {
        type            symmetryPlane;
    }
    side2
    {
        type            symmetryPlane;
    }
    procBoundary23to15
    {
        type            processor;
        value           nonuniform List<vector> 
50
(
(-114.772 22.771 2.50121)
(-123.86 48.6717 -59.4617)
(-93.5567 43.3822 -60.2159)
(-89.945 12.5508 -21.221)
(-101.81 83.3948 -95.4875)
(-95.5933 -17.3931 101.785)
(-133.219 130.897 -105.701)
(-90.2928 -51.6215 162.55)
(-133.516 129.948 -139.571)
(-49.497 -124.078 181.259)
(-118.628 25.7377 -20.312)
(-132.185 51.3556 0.455095)
(-134.122 33.7508 -9.23616)
(-118.274 79.6458 -13.9015)
(-148.241 15.894 -5.06474)
(-159.902 76.8753 -25.8475)
(-159.01 -2.25532 -5.80399)
(-144.516 41.2397 -32.0354)
(-56.8977 -102.879 77.8144)
(-58.1053 19.9766 -105.987)
(-111.315 41.0022 16.0922)
(-59.9001 14.0991 37.6328)
(-113.333 67.5804 13.4353)
(-48.8759 26.3928 37.3585)
(-114.474 105.46 33.0961)
(-37.6986 -21.8145 12.2519)
(-97.3301 48.723 36.3351)
(-28.4883 -111.959 51.3248)
(19.1955 -4.09295 -7.90157)
(19.9116 -82.8529 82.1268)
(-141.317 1.23208 -84.8668)
(-147.207 2.35599 -4.13439)
(-94.7464 -9.86572 -82.0028)
(-153.977 19.5568 12.402)
(-38.3546 23.7051 -11.9454)
(-171.599 61.4364 13.0057)
(-70.599 -39.6341 -2.56531)
(-95.6141 -6.53295 30.4823)
(-37.7683 -97.3457 27.5257)
(0.298062 -10.8513 -4.63376)
(-153.131 -25.2134 32.3902)
(-177.81 -61.0373 -167.931)
(-174.06 -106.093 95.919)
(-175.49 -115.422 -258.003)
(-176.439 -139.08 88.9823)
(-150.362 11.3091 26.3708)
(-185.872 -85.4603 -65.9021)
(-166.141 -75.4904 24.2519)
(-175.746 -68.134 17.6373)
(-117.392 -98.7764 21.4329)
)
;
    }
    procBoundary23to22
    {
        type            processor;
        value           nonuniform List<vector> 
20
(
(-61.2697 13.5663 -29.5968)
(19.3178 -47.3772 142.223)
(-29.6476 -44.1235 -137.77)
(112.313 -539.179 724.598)
(20.9591 4.6804 206.848)
(-17.4511 40.2403 13.7957)
(5.70968 -52.5174 186.64)
(-59.6874 52.9275 -286.223)
(-64.7923 77.3882 25.2072)
(165.713 -32.4018 75.0453)
(102.776 86.051 103.105)
(103.594 14.7336 91.0775)
(-37.1291 1.82426 22.3977)
(88.0251 50.2899 27.0487)
(234.317 -27.4711 -33.9828)
(256.794 68.0533 60.3503)
(-145.168 3.5033 29.0303)
(88.9144 -76.8788 -37.4434)
(243.575 79.3038 62.573)
(351.485 -33.4437 -14.5606)
)
;
    }
    procBoundary23to31
    {
        type            processor;
        value           nonuniform List<vector> 
50
(
(260.579 -621.919 283.9)
(56.6021 -109.613 -511.746)
(343.286 -721.594 899.805)
(129.328 -80.0088 -354.243)
(347.405 -708.72 872.949)
(141.498 -36.9353 -279.157)
(354.321 -752.33 1023.26)
(80.6204 -44.3942 -350.057)
(209.884 -1009.82 1746.61)
(-54.781 -58.8058 -239.899)
(-198.26 187.296 -810.367)
(133.779 -474.096 -32.9486)
(-80.1937 -36.9146 -549.752)
(97.0956 -289.096 376.494)
(63.6916 -99.1889 -126.26)
(160.844 -333 320.044)
(81.0836 -98.3754 -134.787)
(213.642 -524.878 882.957)
(226.754 -93.5138 -136.716)
(400.838 -510.458 1069.37)
(66.2866 130.904 -82.3355)
(-47.667 68.5654 -717.823)
(7.95756 -168.695 256.312)
(-14.6757 22.0496 -308.071)
(105.402 -123.843 179.656)
(115.431 -20.843 57.225)
(164.051 -97.5628 253.177)
(150.795 -47.1335 -15.8383)
(268.304 -170.275 593.77)
(215.122 -3.22376 40.094)
(302.628 43.127 37.4719)
(265.119 -41.4108 -17.0284)
(194.435 82.3123 2.24699)
(226.523 -11.4195 3.18022)
(208.677 102.186 42.9124)
(291.033 -26.5584 44.1665)
(200.876 -53.342 183.455)
(247.339 -175.688 154.752)
(216.546 -58.5637 20.0771)
(350.454 -148.455 188.75)
(380.026 -36.9327 -12.2513)
(373.76 53.071 38.8707)
(411.498 -13.1653 -0.105382)
(427.649 57.9222 48.3551)
(446.964 -54.6582 52.3187)
(-124.272 -805.78 -438.451)
(233.793 -410.137 413.495)
(70.2675 -311.972 -237.333)
(246.572 -212.317 185.213)
(205.857 -89.8167 -165.619)
)
;
    }
}


// ************************************************************************* //
