/*--------------------------------*- C++ -*----------------------------------*\
| =========                 |                                                 |
| \\      /  F ield         | OpenFOAM: The Open Source CFD Toolbox           |
|  \\    /   O peration     | Version:  2.4.0                                 |
|   \\  /    A nd           | Web:      www.OpenFOAM.org                      |
|    \\/     M anipulation  |                                                 |
\*---------------------------------------------------------------------------*/
FoamFile
{
    version     2.0;
    format      ascii;
    class       volVectorField;
    location    "0.02";
    object      Ua;
}
// * * * * * * * * * * * * * * * * * * * * * * * * * * * * * * * * * * * * * //

dimensions      [0 1 -1 0 0 0 0];

internalField   nonuniform List<vector> 
200
(
(2.24724 1.37571 0.0271479)
(2.24724 1.37571 0.0271479)
(2.24724 1.37571 0.0271479)
(2.24723 1.3757 0.0271478)
(2.24722 1.3757 0.0271477)
(2.24721 1.37569 0.0271476)
(2.2472 1.37568 0.0271474)
(2.24718 1.37567 0.0271471)
(2.24713 1.37564 0.0271466)
(2.24699 1.37555 0.0271449)
(2.24725 1.37571 0.027148)
(2.24724 1.37571 0.027148)
(2.24724 1.37571 0.0271479)
(2.24724 1.37571 0.0271479)
(2.24723 1.3757 0.0271478)
(2.24722 1.3757 0.0271477)
(2.24721 1.37569 0.0271475)
(2.24719 1.37568 0.0271473)
(2.24715 1.37565 0.0271468)
(2.24703 1.37558 0.0271453)
(2.24725 1.37572 0.027148)
(2.24725 1.37571 0.027148)
(2.24725 1.37571 0.027148)
(2.24724 1.37571 0.0271479)
(2.24724 1.37571 0.0271479)
(2.24723 1.3757 0.0271478)
(2.24722 1.3757 0.0271477)
(2.2472 1.37569 0.0271475)
(2.24717 1.37567 0.0271471)
(2.24707 1.3756 0.0271458)
(2.24718 1.37568 0.0271521)
(2.24718 1.37568 0.0271523)
(2.24718 1.37568 0.0271526)
(2.24718 1.37568 0.0271529)
(2.24718 1.37568 0.0271534)
(2.24718 1.37568 0.027154)
(2.24717 1.37568 0.0271549)
(2.24715 1.37567 0.0271563)
(2.24712 1.37565 0.027159)
(2.247 1.37559 0.0271671)
(2.24704 1.36982 0.0263552)
(2.24699 1.37564 0.0271461)
(2.24692 1.37563 0.0271451)
(2.24681 1.37561 0.0271434)
(2.24664 1.37557 0.0271406)
(2.24634 1.37551 0.0271354)
(2.24575 1.37539 0.0271251)
(2.24437 1.37512 0.0271007)
(2.24024 1.3743 0.0270264)
(2.21928 1.37015 0.0266449)
(2.24715 1.37566 0.0271514)
(2.24715 1.37566 0.0271517)
(2.24715 1.37566 0.027152)
(2.24715 1.37566 0.0271524)
(2.24715 1.37566 0.0271528)
(2.24714 1.37566 0.0271534)
(2.24713 1.37565 0.0271543)
(2.2471 1.37564 0.0271557)
(2.24705 1.37561 0.0271584)
(2.24688 1.37552 0.0271663)
(2.24701 1.37559 0.0271585)
(2.24702 1.3756 0.0271592)
(2.24703 1.3756 0.0271601)
(2.24704 1.37561 0.0271611)
(2.24704 1.37561 0.0271624)
(2.24705 1.37562 0.0271642)
(2.24704 1.37562 0.0271668)
(2.24703 1.37562 0.0271709)
(2.24698 1.3756 0.0271791)
(2.24683 1.37554 0.027203)
(1.51495 0.995017 0.0650769)
(1.50606 0.998031 0.0708143)
(1.50062 1.00483 0.0777485)
(1.50032 1.01691 0.0862266)
(1.50764 1.03645 0.0967299)
(1.52629 1.06666 0.109942)
(1.56201 1.11236 0.126861)
(1.62382 1.18112 0.14899)
(1.72653 1.28512 0.178681)
(1.89539 1.44499 0.219793)
(2.16291 1.34751 0.0302873)
(2.14884 1.35696 0.032724)
(2.13124 1.35364 0.033718)
(2.10718 1.3491 0.0350741)
(2.07281 1.3426 0.0370078)
(2.02076 1.33276 0.039929)
(1.93545 1.31661 0.0447019)
(1.77882 1.28696 0.0534224)
(1.43713 1.22224 0.0723095)
(0.44957 1.0351 0.126202)
(2.24701 1.37552 0.0271582)
(2.24702 1.37554 0.0271591)
(2.24703 1.37555 0.0271601)
(2.24703 1.37557 0.0271615)
(2.24704 1.37558 0.0271634)
(2.24703 1.37559 0.0271663)
(2.24702 1.3756 0.0271711)
(2.24699 1.37559 0.0271807)
(2.24691 1.37556 0.0272062)
(2.24665 1.37542 0.0273255)
(2.24673 1.37539 0.0271767)
(2.24676 1.37542 0.0271787)
(2.24678 1.37544 0.0271812)
(2.2468 1.37547 0.0271843)
(2.24682 1.3755 0.0271884)
(2.24683 1.37552 0.0271942)
(2.24684 1.37554 0.0272032)
(2.24683 1.37555 0.027219)
(2.24677 1.37555 0.0272549)
(2.24656 1.3755 0.0273917)
(1.34433 0.92509 0.0869584)
(1.35475 0.941705 0.0941574)
(1.37136 0.96377 0.102583)
(1.39607 0.992855 0.112529)
(1.43151 1.03108 0.124388)
(1.48131 1.08137 0.138684)
(1.55059 1.14782 0.156142)
(1.64672 1.23628 0.177782)
(1.78064 1.35542 0.205095)
(1.96908 1.51844 0.240343)
(-3.6285 0.26334 0.362141)
(-3.63044 0.263003 0.362255)
(-3.63198 0.262713 0.362342)
(-3.63325 0.262473 0.362415)
(-3.63429 0.262279 0.362474)
(-3.63511 0.262125 0.362521)
(-3.63573 0.262007 0.362557)
(-3.63618 0.261922 0.362583)
(-3.63648 0.261864 0.362601)
(-3.63666 0.26183 0.362612)
(1.98688 1.32614 0.0419904)
(1.94702 1.31862 0.0442659)
(1.89494 1.3088 0.047238)
(1.82476 1.29554 0.0512429)
(1.72646 1.27696 0.0568519)
(1.58195 1.24963 0.0650972)
(1.35597 1.20687 0.0779917)
(0.973285 1.13444 0.0998288)
(0.258525 0.999132 0.140624)
(-1.19317 0.72428 0.223525)
(2.2464 1.37515 0.0272033)
(2.24644 1.3752 0.0272075)
(2.24648 1.37525 0.0272127)
(2.24651 1.37531 0.0272194)
(2.24654 1.37536 0.0272286)
(2.24656 1.37541 0.0272419)
(2.24657 1.37545 0.0272635)
(2.24654 1.37548 0.0273041)
(2.24644 1.3755 0.027404)
(2.24603 1.37541 0.0278316)
(1.30082 0.921662 0.102554)
(1.32424 0.946984 0.110426)
(1.35476 0.978257 0.119499)
(1.39422 1.01696 0.130031)
(1.44506 1.06503 0.142359)
(1.51053 1.12502 0.156919)
(1.59502 1.2004 0.174291)
(1.70455 1.29586 0.195259)
(1.84749 1.41798 0.220919)
(2.03586 1.57616 0.252847)
(-3.63441 0.262178 0.359519)
(-3.63495 0.262093 0.359697)
(-3.63536 0.262021 0.359867)
(-3.63571 0.261961 0.360033)
(-3.636 0.261913 0.360197)
(-3.63623 0.261876 0.360357)
(-3.63641 0.261848 0.360514)
(-3.63654 0.261828 0.360669)
(-3.63662 0.261815 0.360822)
(-3.63668 0.261808 0.360977)
(1.31685 1.19918 0.0796287)
(1.18965 1.17515 0.0868497)
(1.02978 1.14493 0.0959247)
(0.825105 1.10623 0.107543)
(0.557857 1.05568 0.122714)
(0.201968 0.988352 0.142919)
(-0.279735 0.897198 0.170273)
(-0.934622 0.773248 0.207472)
(-1.79978 0.609478 0.256644)
(-2.81556 0.417182 0.314446)
(2.24599 1.3749 0.0271556)
(2.24604 1.37497 0.0271674)
(2.24608 1.37505 0.0271812)
(2.24612 1.37512 0.0271981)
(2.24615 1.3752 0.02722)
(2.24616 1.37527 0.0272507)
(2.24614 1.37534 0.0272989)
(2.24605 1.37539 0.0273896)
(2.24578 1.37539 0.0276186)
(2.2447 1.37515 0.0286505)
(1.30062 0.939199 0.114342)
(1.33268 0.97023 0.122601)
(1.37216 1.00736 0.132028)
(1.42078 1.05196 0.14286)
(1.48079 1.1058 0.15539)
(1.55509 1.17114 0.169995)
(1.64747 1.25092 0.187157)
(1.76289 1.34901 0.207501)
(1.90796 1.47055 0.231868)
(2.09161 1.62251 0.261416)
)
;

boundaryField
{
    inlet
    {
        type            calculated;
        value           nonuniform 0();
    }
    outlet
    {
        type            calculated;
        value           nonuniform 0();
    }
    bottom
    {
        type            calculated;
        value           uniform (0 0 0);
    }
    top
    {
        type            symmetryPlane;
    }
    side1
    {
        type            symmetryPlane;
    }
    side2
    {
        type            symmetryPlane;
    }
    procBoundary14to6
    {
        type            processor;
        value           nonuniform List<vector> 
50
(
(2.24706 1.36501 0.0257043)
(2.24698 1.37565 0.0271523)
(2.24687 1.37563 0.0271547)
(2.2467 1.3756 0.0271585)
(2.2464 1.37554 0.0271656)
(2.24584 1.37543 0.0271795)
(2.24465 1.3752 0.0272108)
(2.24162 1.37463 0.027294)
(2.23154 1.37273 0.0275849)
(2.174 1.36193 0.0293255)
(2.23969 -0.0587069 -0.167485)
(0.901543 1.13152 0.00180766)
(0.444801 1.06127 -0.00547043)
(-0.129112 0.961305 -0.0162742)
(-0.813549 0.842096 -0.0292333)
(-1.5433 0.715007 -0.0431381)
(-2.20865 0.599151 -0.0559136)
(-2.70624 0.512526 -0.0655706)
(-2.99945 0.461499 -0.0713636)
(-3.12672 0.439372 -0.0739761)
(-0.483583 0.0871352 0.0777794)
(-3.61532 0.266018 0.360438)
(-3.6204 0.265173 0.360615)
(-3.62426 0.264474 0.360674)
(-3.62731 0.263939 0.360638)
(-3.62958 0.263566 0.360481)
(-3.6311 0.263359 0.36016)
(-3.63184 0.263345 0.359582)
(-3.63163 0.26359 0.358549)
(-3.62999 0.264288 0.356539)
(-3.63666 0.261841 0.362599)
(-3.63685 0.261852 0.362617)
(-3.63685 0.261852 0.362617)
(-3.63685 0.261852 0.362617)
(-3.63685 0.261853 0.362617)
(-3.63685 0.261853 0.362617)
(-3.63685 0.261854 0.362617)
(-3.63686 0.261856 0.362618)
(-3.63686 0.261858 0.362618)
(-3.63687 0.261862 0.362619)
(-3.63671 0.261824 0.359788)
(-3.63679 0.26183 0.359941)
(-3.6368 0.261832 0.360088)
(-3.6368 0.261834 0.360235)
(-3.63681 0.261837 0.360383)
(-3.63681 0.261839 0.360531)
(-3.63682 0.261842 0.360679)
(-3.63683 0.261846 0.360829)
(-3.63684 0.261851 0.360978)
(-3.63687 0.261859 0.361128)
)
;
    }
    procBoundary14to13
    {
        type            processor;
        value           nonuniform List<vector> 
20
(
(2.24725 1.37069 0.0264675)
(2.24725 1.37571 0.0271477)
(2.24725 1.37571 0.0271478)
(2.24713 1.37555 0.0271516)
(2.24889 -0.0477904 -0.166041)
(2.2471 1.37223 0.0267052)
(2.24696 1.37545 0.0271576)
(1.52296 0.992908 0.0604259)
(2.2483 -0.0584278 -0.167438)
(2.24694 1.3683 0.0262079)
(2.24664 1.37517 0.0271744)
(1.33568 0.910085 0.0802497)
(-2.23768 0.184749 0.236501)
(2.02443 1.32217 0.0383737)
(2.24628 1.37488 0.0271988)
(1.2794 0.897413 0.094712)
(-3.05159 0.229318 0.307094)
(1.44318 1.20884 0.0705675)
(2.24587 1.37459 0.0271424)
(1.26985 0.908298 0.10576)
)
;
    }
    procBoundary14to15
    {
        type            processor;
        value           nonuniform List<vector> 
20
(
(1.95656 1.20059 0.0239284)
(1.9226 1.17697 0.0232262)
(1.86852 1.14387 0.0225735)
(1.95072 1.22761 0.0466839)
(-2.46202 0.444636 -0.0592991)
(1.92912 1.20781 0.0414638)
(1.9076 1.24349 0.0754069)
(2.17601 1.69751 0.279028)
(-3.57792 0.271341 0.339571)
(1.9575 1.18425 0.267033)
(1.98908 1.27469 0.253331)
(2.239 1.74665 0.287128)
(-3.63687 0.261862 0.362619)
(-3.62781 0.263275 0.362829)
(1.97416 1.24437 0.431289)
(2.28621 1.78346 0.293212)
(-3.63686 0.261858 0.361127)
(-3.63282 0.262457 0.36118)
(1.86889 1.18823 0.558942)
(2.32294 1.81207 0.297346)
)
;
    }
    procBoundary14to22
    {
        type            processor;
        value           nonuniform List<vector> 
50
(
(1.94223 1.22732 0.0500333)
(1.93404 1.22834 0.0541073)
(1.92702 1.23162 0.0592548)
(1.92221 1.23835 0.0658801)
(1.92132 1.25044 0.0745969)
(1.92733 1.27106 0.0863733)
(1.94559 1.30569 0.102811)
(1.98619 1.36441 0.126717)
(2.06955 1.46703 0.163407)
(2.24109 1.65667 0.224015)
(0.852694 0.665147 0.109311)
(0.915677 0.714293 0.117395)
(0.988366 0.771008 0.126724)
(1.07318 0.837185 0.137606)
(1.17344 0.915401 0.150467)
(1.29375 1.00927 0.1659)
(1.44081 1.124 0.184762)
(1.62465 1.26741 0.208339)
(1.861 1.4518 0.238652)
(2.17613 1.69764 0.279065)
(0.962895 0.751142 0.123459)
(1.02906 0.802761 0.131948)
(1.10467 0.861757 0.141648)
(1.19193 0.929835 0.152842)
(1.29374 1.00926 0.1659)
(1.41407 1.10313 0.181332)
(1.55846 1.21578 0.199851)
(1.73494 1.35346 0.222484)
(1.95554 1.52555 0.250775)
(2.23914 1.7468 0.287145)
(1.06044 0.827188 0.135976)
(1.12852 0.880304 0.144709)
(1.20569 0.940509 0.154607)
(1.29388 1.00932 0.16592)
(1.39566 1.08873 0.178973)
(1.51441 1.18137 0.194202)
(1.65476 1.29087 0.212202)
(1.82319 1.42228 0.233802)
(2.02906 1.58289 0.260203)
(2.28639 1.78366 0.293204)
(1.14278 0.891342 0.145934)
(1.21224 0.945533 0.154841)
(1.29044 1.00655 0.164869)
(1.37913 1.07575 0.176242)
(1.48053 1.15487 0.189244)
(1.59752 1.24616 0.204247)
(1.73395 1.3526 0.221741)
(1.89499 1.47826 0.242392)
(2.08792 1.62878 0.267132)
(2.32317 1.81234 0.297299)
)
;
    }
}


// ************************************************************************* //
