/*--------------------------------*- C++ -*----------------------------------*\
| =========                 |                                                 |
| \\      /  F ield         | OpenFOAM: The Open Source CFD Toolbox           |
|  \\    /   O peration     | Version:  2.4.0                                 |
|   \\  /    A nd           | Web:      www.OpenFOAM.org                      |
|    \\/     M anipulation  |                                                 |
\*---------------------------------------------------------------------------*/
FoamFile
{
    version     2.0;
    format      ascii;
    class       volScalarField;
    location    "0.01";
    object      nut;
}
// * * * * * * * * * * * * * * * * * * * * * * * * * * * * * * * * * * * * * //

dimensions      [0 2 -1 0 0 0 0];

internalField   nonuniform List<scalar> 
40
(
21483.7
22343.5
19986.1
21387.1
19960.2
15112.8
15207.6
22658.9
31826.5
29012.7
11767.6
12278.5
13011.7
17038
15246.7
17190.3
16762.2
15124.4
21401.4
18987.4
6639.28
7448.46
9428.2
11946.5
12764.3
7463.27
6391.3
6451.72
7268.17
5155.08
10700.9
5459.55
7572.31
9026.53
8463.99
9773.78
6990.38
9644.95
10290.7
8477.03
)
;

boundaryField
{
    inlet
    {
        type            calculated;
        value           nonuniform 0();
    }
    outlet
    {
        type            calculated;
        value           nonuniform List<scalar> 8(1.82173e-20 1.63472e-20 7.58362e-21 9.4383e-21 8.43572e-21 2.82165e-21 4.9894e-21 4.83446e-21);
    }
    bottom
    {
        type            calculated;
        value           nonuniform List<scalar> 
20
(
2.76646e-20
1.74278e-20
1.31775e-20
1.85894e-20
2.88096e-20
1.88335e-20
1.24852e-20
1.65782e-20
2.85399e-20
2.52874e-20
1.42419e-20
1.67883e-20
3.2748e-20
2.73685e-20
1.49329e-20
2.09375e-20
4.04047e-20
2.37645e-20
1.20265e-20
1.8424e-20
)
;
    }
    top
    {
        type            symmetryPlane;
    }
    side1
    {
        type            symmetryPlane;
    }
    side2
    {
        type            symmetryPlane;
    }
    procBoundary31to15
    {
        type            processor;
        value           nonuniform List<scalar> 10(14365.1 16217.4 13395.6 21689.5 19154.1 15547.2 12472.8 10986.4 11019.9 8793.14);
    }
    procBoundary31to30
    {
        type            processor;
        value           nonuniform List<scalar> 8(12047.5 9420.78 14884.5 13959.1 3487.66 6009.48 13828 15338.7);
    }
    procBoundary31to47
    {
        type            processor;
        value           nonuniform List<scalar> 10(16679.2 18857.6 14166.3 14348.6 14975.4 10435.1 8144.98 8177.36 7013.44 5900.22);
    }
    procBoundary31to95
    {
        type            processor;
        value           nonuniform List<scalar> 
20
(
3047.24
2843.57
2663.45
1891.02
851.483
2564.9
1587.27
1227.63
1687.95
941.225
4555.01
3060.56
3401.54
3520.89
2553.8
5087.12
3746.04
4362.75
4867.77
3856.43
)
;
    }
}


// ************************************************************************* //
