/*--------------------------------*- C++ -*----------------------------------*\
| =========                 |                                                 |
| \\      /  F ield         | OpenFOAM: The Open Source CFD Toolbox           |
|  \\    /   O peration     | Version:  2.4.0                                 |
|   \\  /    A nd           | Web:      www.OpenFOAM.org                      |
|    \\/     M anipulation  |                                                 |
\*---------------------------------------------------------------------------*/
FoamFile
{
    version     2.0;
    format      ascii;
    class       surfaceScalarField;
    location    "0.01";
    object      phib;
}
// * * * * * * * * * * * * * * * * * * * * * * * * * * * * * * * * * * * * * //

dimensions      [0 3 -1 0 0 0 0];

internalField   nonuniform List<scalar> 
490
(
1.61274e-05
5.65205e-08
-2.04488e-06
1.79631e-05
2.0724e-07
-2.35442e-06
1.87009e-05
1.34568e-07
-1.24391e-06
1.51698e-05
3.78947e-07
3.22496e-06
1.38277e-05
2.00862e-07
1.1705e-06
1.47272e-05
1.23265e-07
-1.17418e-06
1.58765e-05
1.88766e-07
-1.58174e-06
1.54432e-05
1.26092e-07
-1.01769e-07
1.42532e-05
5.64007e-08
8.71657e-07
7.08437e-08
1.14043e-07
1.62974e-05
6.26605e-08
-2.04394e-06
1.70609e-05
1.65956e-06
-2.21588e-06
1.87642e-05
3.21105e-07
-1.88976e-06
1.47233e-05
2.03484e-07
4.21634e-06
1.34656e-05
1.02415e-07
1.35611e-06
1.45507e-05
2.31075e-07
-1.19292e-06
1.57786e-05
5.71476e-07
-1.61055e-06
1.55263e-05
4.99236e-07
-1.20841e-07
1.41886e-05
4.06389e-07
9.87633e-07
3.47355e-07
1.60184e-07
1.6552e-05
-7.29258e-07
-2.00933e-06
1.59293e-05
-6.44778e-07
2.92709e-06
1.94583e-05
-4.84866e-07
-2.72309e-06
1.44304e-05
-8.66306e-07
6.09772e-06
1.3807e-05
-3.82284e-07
1.10809e-06
1.52195e-05
1.46099e-09
-1.18289e-06
1.58083e-05
7.8812e-07
-8.05367e-07
1.57742e-05
6.74175e-07
-1.40915e-07
1.28628e-05
1.89116e-06
1.42666e-06
1.13909e-06
1.83636e-07
1.47982e-05
-1.83708e-06
1.65272e-05
-2.37383e-06
1.61053e-05
-6.28793e-08
1.56159e-05
-3.7697e-07
1.65813e-05
-1.34767e-06
1.81604e-05
-1.57767e-06
2.05374e-05
-1.58888e-06
2.21959e-05
-9.84328e-07
9.52615e-06
1.4561e-05
2.18358e-06
1.4247e-05
-9.30269e-09
-1.84054e-06
1.50929e-05
8.03537e-08
-3.44564e-06
1.69197e-05
3.32666e-07
-3.41225e-06
1.63057e-05
7.53537e-07
3.31288e-06
1.58945e-05
1.8674e-07
1.47513e-06
1.58382e-05
2.0218e-08
-1.15347e-06
1.58212e-05
9.82441e-09
-1.67988e-06
1.55641e-05
9.99844e-08
-5.05897e-08
1.54167e-05
1.06033e-07
8.9448e-07
3.296e-08
1.85173e-07
1.439e-05
-1.2807e-07
-1.53705e-06
1.58459e-05
-4.32091e-07
-3.15929e-06
1.54107e-05
-5.2204e-07
-5.99813e-07
1.5924e-05
-7.49019e-08
4.53142e-06
1.5794e-05
1.62895e-07
1.50996e-06
1.57417e-05
5.38826e-08
-1.17425e-06
1.58173e-05
1.27208e-07
-1.80358e-06
1.55344e-05
3.17777e-07
-5.57345e-08
1.53515e-05
2.25312e-07
1.05127e-06
1.16908e-07
2.42997e-07
1.24452e-05
3.96505e-07
-1.14084e-06
1.63365e-05
8.13508e-07
-2.20978e-06
1.61553e-05
2.10025e-07
-3.27394e-06
1.63539e-05
5.025e-07
5.32169e-06
1.62398e-05
4.2535e-07
9.59757e-07
1.59307e-05
5.15837e-07
-1.33584e-06
1.60927e-05
2.70844e-07
-1.11091e-06
1.51486e-05
7.94052e-07
3.26849e-07
1.49111e-05
4.17507e-07
1.47203e-06
1.83569e-07
2.74914e-07
1.43044e-05
-1.2771e-06
1.51525e-05
-2.40837e-06
1.52599e-05
3.97281e-08
1.57974e-05
-4.11988e-07
1.64022e-05
-1.52712e-06
1.67103e-05
-1.36988e-06
1.83368e-05
-2.94458e-06
1.24614e-05
5.68515e-06
1.24486e-05
1.49912e-05
2.26714e-06
1.08032e-05
1.47454e-07
5.05513e-07
6.41718e-06
1.15479e-07
7.04315e-07
2.07698e-06
2.19026e-06
6.03573e-07
1.72796e-05
9.62802e-07
-1.15003e-05
1.89378e-05
1.02076e-07
1.90633e-07
1.73534e-05
-3.26702e-08
8.274e-07
1.54406e-05
-2.01227e-07
5.80785e-07
1.54561e-05
-1.91015e-07
3.00813e-07
1.6605e-05
-2.20237e-08
1.02568e-07
4.48735e-08
3.96805e-07
1.14952e-05
-1.06551e-07
4.8045e-07
8.40541e-06
-1.68e-07
2.13934e-07
7.88312e-06
-1.17554e-06
3.28828e-06
1.50943e-05
-2.59388e-06
8.76951e-07
1.72388e-05
-9.00762e-07
3.68304e-07
1.63545e-05
-5.58288e-07
2.3566e-07
1.45556e-05
-4.40607e-07
2.34669e-07
1.50424e-05
-1.17684e-06
4.43341e-07
1.66824e-05
-5.53309e-07
-5.74551e-08
-2.4109e-07
3.58272e-07
1.11416e-05
9.90991e-07
4.2354e-07
5.4274e-06
9.62627e-07
2.37378e-06
6.39915e-06
2.05656e-06
-7.4778e-06
2.22145e-05
2.86693e-06
-1.59545e-05
2.04377e-05
1.3295e-06
5.06338e-07
1.77618e-05
2.56884e-07
5.24923e-07
1.64119e-05
-6.60537e-07
4.5892e-07
1.52112e-05
-1.02824e-06
1.3789e-06
1.72533e-05
-1.17494e-06
5.15737e-08
-7.1127e-07
4.41438e-07
1.13387e-05
7.36715e-08
9.97258e-06
-7.96435e-08
1.17446e-05
3.24309e-07
1.39074e-05
2.92059e-07
1.34229e-05
2.8696e-07
1.20403e-05
2.69554e-07
8.42802e-06
7.16782e-09
3.89501e-06
9.18992e-06
1.74463e-05
2.65046e-07
-9.4971e-08
1.50635e-05
-2.10155e-07
4.51603e-07
1.52043e-05
-1.71642e-07
4.39801e-07
1.56827e-05
-7.4192e-07
8.28375e-07
1.50586e-05
-8.33321e-09
-9.44279e-06
1.47916e-05
-4.14724e-07
5.03871e-07
1.47533e-05
-2.77619e-07
8.94374e-07
1.49351e-05
-3.36203e-07
5.97796e-07
1.53675e-05
-2.57851e-07
1.58251e-07
1.55427e-05
-1.38247e-07
7.84158e-08
-1.60838e-07
3.49477e-07
1.43324e-05
6.96128e-08
3.54181e-07
1.42889e-05
1.83675e-07
-9.7821e-08
1.71733e-05
-8.99155e-07
5.61042e-07
1.52728e-05
2.07543e-06
6.93729e-07
1.48285e-05
-6.29085e-08
4.60828e-07
1.48626e-05
-3.71466e-07
2.95332e-07
1.48787e-05
-4.07661e-07
2.90062e-07
1.57859e-05
-6.78148e-07
-4.3592e-08
1.60043e-05
-3.96766e-07
-1.73397e-08
-2.05796e-07
3.42997e-07
1.62237e-05
-2.24837e-07
8.38621e-08
1.65084e-05
-5.1493e-07
2.78763e-06
1.25537e-05
-8.41905e-07
-3.58032e-06
1.28467e-05
2.48546e-06
-1.66575e-05
1.42453e-05
-8.3879e-07
-1.16422e-07
1.45047e-05
-6.72561e-07
5.66585e-07
1.47088e-05
-6.083e-07
4.55539e-07
1.63381e-05
-1.21043e-06
2.81876e-07
1.65415e-05
-7.28585e-07
1.79919e-07
-3.00509e-07
4.77059e-07
1.47303e-05
-3.83056e-07
1.44789e-05
-3.43124e-07
1.38163e-05
1.44971e-07
1.50528e-05
1.541e-06
1.38791e-05
6.21897e-07
1.30944e-05
3.81723e-07
1.19895e-05
5.03787e-07
1.92293e-05
7.39691e-07
1.8599e-05
1.66713e-07
8.32737e-08
1.74948e-05
-4.22632e-08
1.87008e-05
-1.49617e-07
2.0074e-05
1.07768e-06
1.13381e-05
-2.06184e-06
1.2083e-05
-8.20892e-07
1.30732e-05
-3.31672e-07
1.37096e-05
-1.98758e-07
1.38919e-05
-1.22803e-07
1.39447e-05
-9.25073e-08
-8.2589e-08
1.70932e-05
-9.41622e-08
1.61886e-05
6.57883e-07
1.46116e-05
3.2166e-06
1.36522e-05
-4.07705e-07
1.36194e-05
-3.26592e-07
1.37879e-05
-2.04126e-07
1.4108e-05
-2.28074e-07
1.41284e-05
-1.86047e-07
1.40984e-05
-7.91313e-08
-3.07214e-08
2.04537e-05
-2.23691e-06
2.4878e-05
-9.77796e-07
2.30886e-05
1.43076e-06
1.18556e-05
-5.83081e-06
1.28732e-05
-1.45992e-06
1.35917e-05
-3.5534e-07
1.40884e-05
-2.68425e-07
1.44071e-05
-2.22156e-07
1.45461e-05
-3.75464e-08
9.5097e-08
1.89156e-05
1.75954e-05
1.91724e-05
1.4889e-05
1.40523e-05
1.40794e-05
1.43154e-05
1.48337e-05
1.49636e-05
)
;

boundaryField
{
    inlet
    {
        type            fixedValue;
        value           nonuniform 0();
    }
    outlet
    {
        type            calculated;
        value           nonuniform List<scalar> 
20
(
1.40325e-05
1.37519e-05
1.18874e-05
8.48165e-06
1.53018e-05
1.51847e-05
1.47531e-05
1.25486e-05
1.65434e-05
1.68531e-05
1.75569e-05
1.90971e-05
1.5676e-05
1.60646e-05
1.66006e-05
1.81203e-05
1.42477e-05
1.43902e-05
1.4898e-05
1.51427e-05
)
;
    }
    bottom
    {
        type            fixedValue;
        value           uniform 0;
    }
    top
    {
        type            symmetryPlane;
        value           nonuniform List<scalar> 
40
(
-5.84798e-10
-6.64379e-10
-5.25651e-10
-1.17881e-09
-5.95157e-10
-7.08172e-10
-9.79159e-10
-6.82833e-10
-1.24966e-09
-9.12708e-10
-5.13408e-09
-1.24808e-09
-5.81851e-09
-9.23229e-10
-1.35253e-09
-6.39826e-09
-1.2923e-09
-7.26157e-10
-7.38906e-10
-1.30968e-09
-7.28978e-10
-7.26556e-10
-7.23499e-10
-7.21524e-10
-7.31411e-10
-7.30668e-10
-7.23172e-10
-7.20279e-10
-7.29266e-10
-7.29179e-10
-7.17363e-10
-7.216e-10
-7.0996e-10
-7.09078e-10
-6.94073e-10
-7.12918e-10
-6.53204e-10
-6.53931e-10
-6.4086e-10
-7.06246e-10
)
;
    }
    side1
    {
        type            symmetryPlane;
        value           nonuniform 0();
    }
    side2
    {
        type            symmetryPlane;
        value           uniform 0;
    }
    procBoundary31to23
    {
        type            processor;
        value           nonuniform List<scalar> 
50
(
1.65714e-07
3.11573e-07
3.71466e-07
-7.27201e-08
-2.92776e-08
1.51417e-07
2.43591e-07
4.09054e-07
2.61924e-07
3.57544e-08
-2.29724e-08
1.64891e-07
8.9472e-09
-2.27513e-07
-8.01421e-08
1.537e-08
1.05269e-07
1.06007e-07
1.85405e-08
1.08011e-08
-2.83958e-07
1.20537e-07
-1.86588e-06
-1.35223e-06
-4.75789e-07
-3.63739e-07
-1.46642e-07
-1.75866e-07
-3.3498e-07
-1.94911e-07
1.192e-07
2.95354e-07
3.86886e-08
-1.42516e-06
3.68515e-07
2.48981e-07
1.3738e-07
-3.20368e-08
-1.27838e-08
7.49289e-08
2.24904e-07
-6.15922e-07
-1.62128e-06
1.36078e-06
5.81162e-07
2.36548e-07
1.60847e-07
9.94915e-08
1.18866e-07
1.29682e-07
)
;
    }
    procBoundary31to30
    {
        type            processor;
        value           nonuniform List<scalar> 
20
(
-1.43048e-05
-1.42596e-05
-1.37508e-05
-1.36904e-05
-1.4419e-05
-1.47782e-05
-1.38383e-05
-1.44679e-05
-1.30127e-05
-1.32587e-05
-1.38035e-05
-1.16985e-05
-1.49186e-05
-1.44859e-05
-1.55895e-05
-1.44985e-05
-1.72253e-05
-1.66865e-05
-1.82266e-05
-2.15344e-05
)
;
    }
}


// ************************************************************************* //
