/*--------------------------------*- C++ -*----------------------------------*\
| =========                 |                                                 |
| \\      /  F ield         | OpenFOAM: The Open Source CFD Toolbox           |
|  \\    /   O peration     | Version:  2.4.0                                 |
|   \\  /    A nd           | Web:      www.OpenFOAM.org                      |
|    \\/     M anipulation  |                                                 |
\*---------------------------------------------------------------------------*/
FoamFile
{
    version     2.0;
    format      ascii;
    class       volVectorField;
    location    "0.01";
    object      Ua;
}
// * * * * * * * * * * * * * * * * * * * * * * * * * * * * * * * * * * * * * //

dimensions      [0 1 -1 0 0 0 0];

internalField   nonuniform List<vector> 
200
(
(2.32562 0.939315 -0.109655)
(2.32561 0.939307 -0.109653)
(2.32561 0.939298 -0.109651)
(2.32561 0.93929 -0.109649)
(2.3256 0.93928 -0.109647)
(2.3256 0.93927 -0.109645)
(2.32559 0.939259 -0.109642)
(2.32559 0.939247 -0.109639)
(2.32558 0.939234 -0.109636)
(2.32557 0.93922 -0.109632)
(2.32563 0.939344 -0.109662)
(2.32563 0.939337 -0.109661)
(2.32563 0.939329 -0.109659)
(2.32562 0.939322 -0.109657)
(2.32562 0.939314 -0.109656)
(2.32562 0.939305 -0.109654)
(2.32562 0.939296 -0.109652)
(2.32561 0.939287 -0.109649)
(2.32561 0.939276 -0.109647)
(2.3256 0.939265 -0.109644)
(2.32564 0.939368 -0.109667)
(2.32564 0.939362 -0.109666)
(2.32564 0.939355 -0.109665)
(2.32564 0.939349 -0.109664)
(2.32563 0.939342 -0.109663)
(2.32563 0.939334 -0.109661)
(2.32563 0.939327 -0.109659)
(2.32563 0.939318 -0.109658)
(2.32562 0.93931 -0.109656)
(2.32562 0.939301 -0.109653)
(2.32564 0.932723 -0.109671)
(2.32564 0.932617 -0.109671)
(2.32564 0.93251 -0.10967)
(2.32564 0.932402 -0.109669)
(2.32564 0.932291 -0.109668)
(2.32564 0.932176 -0.109667)
(2.32564 0.932059 -0.109665)
(2.32564 0.931938 -0.109664)
(2.32564 0.931814 -0.109662)
(2.32564 0.931687 -0.109661)
(2.32558 0.939283 -0.109644)
(2.32558 0.939275 -0.109642)
(2.32558 0.939268 -0.109641)
(2.32558 0.939259 -0.109639)
(2.32557 0.93925 -0.109637)
(2.32557 0.93924 -0.109634)
(2.32556 0.939229 -0.109632)
(2.32556 0.939218 -0.109629)
(2.32555 0.939205 -0.109626)
(2.32554 0.939191 -0.109622)
(2.3256 0.939314 -0.109651)
(2.3256 0.939307 -0.10965)
(2.3256 0.9393 -0.109649)
(2.32559 0.939293 -0.109647)
(2.32559 0.939285 -0.109646)
(2.32559 0.939277 -0.109644)
(2.32559 0.939268 -0.109642)
(2.32558 0.939259 -0.10964)
(2.32558 0.939249 -0.109637)
(2.32557 0.939238 -0.109635)
(2.32561 0.939339 -0.109657)
(2.32561 0.939333 -0.109656)
(2.32561 0.939327 -0.109655)
(2.32561 0.939321 -0.109654)
(2.32561 0.939314 -0.109653)
(2.3256 0.939307 -0.109651)
(2.3256 0.9393 -0.10965)
(2.3256 0.939292 -0.109648)
(2.3256 0.939284 -0.109646)
(2.32559 0.939275 -0.109644)
(2.32561 0.932569 -0.109661)
(2.32561 0.932463 -0.109661)
(2.32561 0.932358 -0.10966)
(2.32561 0.93225 -0.109659)
(2.32562 0.93214 -0.109659)
(2.32561 0.932027 -0.109658)
(2.32561 0.931909 -0.109656)
(2.32561 0.931789 -0.109655)
(2.32561 0.931666 -0.109654)
(2.32561 0.931539 -0.109652)
(2.32555 0.939251 -0.109633)
(2.32555 0.939244 -0.109631)
(2.32555 0.939237 -0.10963)
(2.32554 0.939229 -0.109628)
(2.32554 0.93922 -0.109626)
(2.32554 0.93921 -0.109624)
(2.32553 0.9392 -0.109622)
(2.32553 0.939189 -0.109619)
(2.32552 0.939176 -0.109616)
(2.32551 0.939163 -0.109613)
(2.32556 0.939283 -0.10964)
(2.32556 0.939277 -0.109639)
(2.32556 0.93927 -0.109638)
(2.32556 0.939263 -0.109637)
(2.32556 0.939256 -0.109636)
(2.32556 0.939248 -0.109634)
(2.32556 0.93924 -0.109632)
(2.32555 0.939231 -0.10963)
(2.32555 0.939221 -0.109628)
(2.32554 0.939211 -0.109625)
(2.32557 0.939309 -0.109646)
(2.32558 0.939304 -0.109646)
(2.32558 0.939298 -0.109645)
(2.32558 0.939292 -0.109644)
(2.32558 0.939286 -0.109643)
(2.32558 0.939279 -0.109642)
(2.32557 0.939272 -0.10964)
(2.32557 0.939265 -0.109639)
(2.32557 0.939257 -0.109637)
(2.32557 0.939249 -0.109635)
(2.32558 0.932413 -0.109651)
(2.32558 0.932309 -0.109651)
(2.32558 0.932204 -0.10965)
(2.32559 0.932098 -0.10965)
(2.32559 0.931988 -0.109649)
(2.32559 0.931876 -0.109648)
(2.32559 0.931759 -0.109647)
(2.32559 0.931639 -0.109646)
(2.32558 0.931516 -0.109645)
(2.32558 0.93139 -0.109643)
(2.32552 0.939219 -0.109621)
(2.32552 0.939213 -0.10962)
(2.32551 0.939206 -0.109619)
(2.32551 0.939198 -0.109618)
(2.32551 0.93919 -0.109616)
(2.32551 0.939181 -0.109614)
(2.3255 0.93917 -0.109612)
(2.3255 0.939159 -0.109609)
(2.32549 0.939147 -0.109606)
(2.32549 0.939134 -0.109603)
(2.32553 0.939252 -0.10963)
(2.32553 0.939247 -0.109629)
(2.32553 0.93924 -0.109628)
(2.32553 0.939234 -0.109627)
(2.32553 0.939227 -0.109625)
(2.32553 0.93922 -0.109624)
(2.32553 0.939212 -0.109622)
(2.32552 0.939203 -0.10962)
(2.32552 0.939194 -0.109618)
(2.32552 0.939183 -0.109616)
(2.32554 0.93928 -0.109636)
(2.32554 0.939275 -0.109636)
(2.32555 0.93927 -0.109635)
(2.32555 0.939264 -0.109634)
(2.32555 0.939258 -0.109633)
(2.32555 0.939252 -0.109632)
(2.32555 0.939245 -0.109631)
(2.32554 0.939238 -0.10963)
(2.32554 0.93923 -0.109628)
(2.32554 0.939222 -0.109626)
(2.32555 0.932258 -0.109641)
(2.32555 0.932154 -0.109641)
(2.32555 0.93205 -0.10964)
(2.32556 0.931945 -0.10964)
(2.32556 0.931836 -0.109639)
(2.32556 0.931724 -0.109639)
(2.32556 0.931609 -0.109638)
(2.32556 0.931489 -0.109637)
(2.32556 0.931367 -0.109636)
(2.32556 0.931241 -0.109634)
(2.32548 0.939187 -0.10866)
(2.32548 0.939181 -0.108642)
(2.32548 0.939175 -0.108623)
(2.32548 0.939168 -0.108604)
(2.32548 0.93916 -0.108584)
(2.32548 0.939151 -0.108565)
(2.32547 0.939141 -0.108545)
(2.32547 0.93913 -0.108524)
(2.32546 0.939118 -0.108504)
(2.32546 0.939105 -0.108483)
(2.3255 0.939222 -0.108651)
(2.3255 0.939216 -0.108633)
(2.3255 0.939211 -0.108614)
(2.3255 0.939204 -0.108595)
(2.3255 0.939198 -0.108576)
(2.3255 0.939191 -0.108557)
(2.3255 0.939183 -0.108538)
(2.3255 0.939175 -0.108518)
(2.32549 0.939166 -0.108499)
(2.32549 0.939156 -0.108478)
(2.32551 0.93925 -0.10864)
(2.32551 0.939246 -0.108622)
(2.32551 0.939241 -0.108604)
(2.32552 0.939236 -0.108585)
(2.32552 0.93923 -0.108567)
(2.32552 0.939224 -0.108548)
(2.32552 0.939218 -0.108529)
(2.32552 0.939211 -0.10851)
(2.32551 0.939204 -0.108491)
(2.32551 0.939196 -0.108471)
(2.32552 0.932101 -0.108627)
(2.32552 0.931999 -0.108609)
(2.32552 0.931896 -0.108592)
(2.32553 0.931791 -0.108573)
(2.32553 0.931684 -0.108555)
(2.32553 0.931572 -0.108537)
(2.32553 0.931457 -0.108518)
(2.32553 0.931338 -0.1085)
(2.32553 0.931216 -0.108481)
(2.32553 0.931091 -0.108462)
)
;

boundaryField
{
    inlet
    {
        type            calculated;
        value           nonuniform 0();
    }
    outlet
    {
        type            calculated;
        value           uniform (0 0 0);
    }
    bottom
    {
        type            calculated;
        value           uniform (0 0 0);
    }
    top
    {
        type            symmetryPlane;
    }
    side1
    {
        type            symmetryPlane;
    }
    side2
    {
        type            symmetryPlane;
    }
    procBoundary31to23
    {
        type            processor;
        value           nonuniform List<vector> 
50
(
(2.32558 0.93926 -0.10964)
(2.32557 0.939249 -0.109638)
(2.32557 0.939237 -0.109635)
(2.32556 0.939224 -0.109632)
(2.32556 0.939211 -0.109628)
(2.32555 0.939197 -0.109625)
(2.32554 0.939182 -0.109621)
(2.32553 0.939166 -0.109617)
(2.32552 0.939151 -0.109612)
(2.32551 0.939134 -0.109608)
(2.32554 0.939227 -0.109629)
(2.32554 0.939216 -0.109626)
(2.32553 0.939205 -0.109623)
(2.32553 0.939192 -0.10962)
(2.32552 0.939179 -0.109617)
(2.32552 0.939165 -0.109614)
(2.32551 0.93915 -0.10961)
(2.3255 0.939135 -0.109606)
(2.32549 0.93912 -0.109602)
(2.32548 0.939104 -0.109598)
(2.32551 0.939193 -0.109617)
(2.32551 0.939183 -0.109615)
(2.3255 0.939172 -0.109612)
(2.3255 0.93916 -0.109609)
(2.32549 0.939147 -0.109606)
(2.32548 0.939133 -0.109603)
(2.32548 0.939119 -0.109599)
(2.32547 0.939104 -0.109595)
(2.32546 0.939089 -0.109591)
(2.32545 0.939073 -0.109587)
(2.32547 0.93916 -0.109605)
(2.32547 0.93915 -0.109603)
(2.32547 0.939139 -0.109601)
(2.32546 0.939127 -0.109598)
(2.32546 0.939115 -0.109595)
(2.32545 0.939101 -0.109592)
(2.32545 0.939087 -0.109588)
(2.32544 0.939073 -0.109585)
(2.32543 0.939058 -0.109581)
(2.32542 0.939042 -0.109577)
(2.32544 0.939126 -0.108661)
(2.32544 0.939116 -0.108641)
(2.32543 0.939106 -0.108621)
(2.32543 0.939095 -0.108601)
(2.32543 0.939082 -0.10858)
(2.32542 0.939069 -0.108559)
(2.32541 0.939056 -0.108538)
(2.32541 0.939041 -0.108517)
(2.3254 0.939027 -0.108495)
(2.32539 0.939012 -0.108474)
)
;
    }
    procBoundary31to30
    {
        type            processor;
        value           nonuniform List<vector> 
20
(
(2.3256 0.939309 -0.109652)
(2.32561 0.939339 -0.109659)
(2.32562 0.939361 -0.109664)
(2.32562 0.932912 -0.109667)
(2.32557 0.939277 -0.109641)
(2.32558 0.939308 -0.109648)
(2.32559 0.939331 -0.109653)
(2.32559 0.932758 -0.109656)
(2.32553 0.939244 -0.109629)
(2.32555 0.939276 -0.109637)
(2.32555 0.939301 -0.109642)
(2.32556 0.932604 -0.109646)
(2.3255 0.939212 -0.109618)
(2.32551 0.939245 -0.109626)
(2.32552 0.939271 -0.109631)
(2.32553 0.932449 -0.109635)
(2.32546 0.939179 -0.108673)
(2.32548 0.939214 -0.108664)
(2.32549 0.93924 -0.108652)
(2.32549 0.932294 -0.108639)
)
;
    }
}


// ************************************************************************* //
