/*--------------------------------*- C++ -*----------------------------------*\
| =========                 |                                                 |
| \\      /  F ield         | OpenFOAM: The Open Source CFD Toolbox           |
|  \\    /   O peration     | Version:  2.4.0                                 |
|   \\  /    A nd           | Web:      www.OpenFOAM.org                      |
|    \\/     M anipulation  |                                                 |
\*---------------------------------------------------------------------------*/
FoamFile
{
    version     2.0;
    format      ascii;
    class       volSymmTensorField;
    location    "0.08";
    object      B;
}
// * * * * * * * * * * * * * * * * * * * * * * * * * * * * * * * * * * * * * //

dimensions      [0 2 -2 0 0 0 0];

internalField   nonuniform List<symmTensor> 
200
(
(3.23287e+10 -1.03311e+10 -2.95623e+09 3.32294e+10 -2.85838e+09 2.98605e+10)
(1.11687e+10 1.84617e+08 6.39653e+08 1.08074e+10 -7.48628e+08 1.06617e+10)
(4.74217e+09 2.22905e+08 3.1043e+08 5.66072e+09 -7.41723e+08 5.83368e+09)
(2.15131e+09 -2.45496e+08 -5.15042e+08 2.71504e+09 -1.12627e+09 2.96399e+09)
(1.97547e+09 1.04565e+08 -3.84984e+07 2.49168e+09 -4.46971e+08 2.61737e+09)
(1.92235e+09 -1.11853e+08 -3.70156e+08 2.61081e+09 -7.43986e+08 2.65086e+09)
(7.63205e+08 1.9981e+07 -6.89282e+07 9.08896e+08 -2.36881e+08 1.06531e+09)
(2.17348e+09 -1.14651e+08 -4.86986e+08 2.85926e+09 -7.79039e+08 2.79459e+09)
(7.14355e+08 6.76595e+07 -2.22113e+08 8.79019e+08 -2.71506e+08 1.04889e+09)
(2.09209e+09 -4.09066e+07 -4.77369e+08 2.61659e+09 -6.6023e+08 2.44485e+09)
(2.14243e+10 -6.88621e+09 -1.54218e+09 2.16525e+10 -1.86901e+09 1.9386e+10)
(2.0289e+09 6.5203e+07 -5.9995e+07 2.93664e+09 -4.62775e+08 2.42891e+09)
(3.00453e+09 -3.74179e+07 2.74219e+08 2.91285e+09 -8.81616e+08 3.15142e+09)
(2.04489e+09 -2.91057e+06 -1.34753e+07 2.5108e+09 -3.15984e+08 2.38459e+09)
(1.59664e+09 -4.54849e+07 -2.15511e+08 1.95039e+09 -9.97939e+08 2.07684e+09)
(7.47459e+08 -7.31229e+07 2.08541e+07 9.48093e+08 -2.70798e+08 1.01399e+09)
(1.99774e+09 -4.96854e+07 -3.73682e+08 2.46634e+09 -7.22342e+08 2.4034e+09)
(4.79518e+08 4.3805e+07 -1.10129e+08 6.08099e+08 -2.5328e+08 7.7446e+08)
(2.1537e+09 -5.29272e+07 -4.52569e+08 2.60812e+09 -6.29465e+08 2.45463e+09)
(8.82442e+08 1.26771e+08 -3.04846e+08 1.1203e+09 -3.00819e+08 1.28785e+09)
(1.504e+10 -5.03924e+09 -1.16347e+09 1.75903e+10 -1.32703e+09 1.64603e+10)
(2.59319e+08 4.21271e+07 -2.94115e+06 8.72068e+08 -4.25723e+08 8.44757e+08)
(1.29075e+09 -3.38112e+07 -5.5142e+07 1.5376e+09 -1.49358e+08 1.4452e+09)
(1.19847e+09 4.69292e+07 -3.00599e+08 1.66014e+09 -8.71266e+08 1.63597e+09)
(5.65655e+08 -1.37173e+08 1.06389e+07 6.74581e+08 -2.20081e+08 6.60898e+08)
(1.87672e+09 9.56265e+07 -3.57676e+08 2.11593e+09 -9.95039e+08 2.03594e+09)
(3.45695e+08 -3.63809e+07 -9.52812e+06 3.76374e+08 -2.19385e+08 5.32609e+08)
(1.97988e+09 -2.21327e+07 -3.69241e+08 2.26048e+09 -6.05291e+08 2.13193e+09)
(7.61207e+08 1.29752e+08 -2.13943e+08 9.4048e+08 -2.9895e+08 1.12805e+09)
(1.54746e+09 1.41152e+07 -3.19393e+08 1.87685e+09 -4.30186e+08 1.75843e+09)
(8.68588e+09 -4.16333e+09 -1.60239e+08 1.07378e+10 -9.37274e+08 1.0778e+10)
(8.02729e+08 1.28018e+07 -6.94849e+07 1.09949e+09 -1.69886e+08 1.08075e+09)
(1.28636e+09 1.33089e+08 -6.67914e+08 2.54118e+09 -7.73967e+08 2.29619e+09)
(2.6296e+08 -1.49793e+08 -5.29447e+07 3.91574e+08 -1.81178e+08 3.32073e+08)
(2.26591e+09 7.22671e+07 -4.83322e+08 2.56662e+09 -8.97529e+08 2.34817e+09)
(3.6991e+08 -9.6288e+07 1.60717e+07 2.9247e+08 -1.3313e+08 3.58482e+08)
(1.95302e+09 6.54263e+07 -3.08408e+08 2.13714e+09 -9.13375e+08 1.94519e+09)
(6.24335e+08 9.41484e+07 -1.5697e+08 7.74007e+08 -2.74933e+08 9.08486e+08)
(1.45731e+09 -6.22141e+06 -2.67911e+08 1.67617e+09 -4.94974e+08 1.59845e+09)
(8.85654e+08 1.44119e+08 -2.90777e+08 1.16219e+09 -3.35342e+08 1.44221e+09)
(1.92968e+10 -7.7796e+09 -2.36656e+09 1.87294e+10 -1.78164e+08 1.8093e+10)
(1.11918e+09 1.39994e+08 3.26506e+08 2.41844e+09 4.72741e+08 2.48014e+09)
(1.50593e+09 4.74725e+07 3.5369e+08 1.6321e+09 3.94576e+07 1.39297e+09)
(1.61089e+09 1.12598e+08 3.81449e+06 2.05222e+09 7.70481e+07 2.05407e+09)
(-1.15519e+08 -5.13408e+07 2.28074e+07 2.03738e+08 -2.98657e+07 1.38867e+08)
(4.95616e+08 -2.12739e+07 -1.99807e+07 6.44904e+08 3.5304e+07 7.69529e+08)
(2.38332e+08 -4.13805e+07 -8.82844e+07 6.1058e+08 -1.00556e+08 6.31271e+08)
(2.28103e+08 -3.56998e+07 -316399 2.84087e+08 1.0069e+08 4.38188e+08)
(6.6218e+08 -1.51562e+07 -8.2527e+07 8.72713e+08 -5.21329e+07 9.01555e+08)
(4.55261e+08 1.88731e+07 -5.626e+07 5.36334e+08 1.88114e+08 6.60565e+08)
(2.16006e+10 -7.12652e+09 -1.22896e+09 2.32764e+10 8.16867e+08 2.3677e+10)
(3.14152e+09 1.57486e+08 5.73715e+08 3.5258e+09 2.17991e+08 3.37351e+09)
(1.8424e+09 1.61507e+08 -4.71004e+07 2.21836e+09 1.27683e+07 2.26084e+09)
(-3.10162e+08 -3.25379e+07 2.08413e+07 2.45241e+08 -4.58198e+07 1.9553e+08)
(5.09585e+08 -1.39843e+07 -3.22894e+07 6.41006e+08 7.40261e+06 7.88181e+08)
(1.66853e+08 -5.25791e+06 -1.44899e+08 5.67191e+08 -1.56236e+08 5.27146e+08)
(2.16383e+08 -4.81954e+07 3.32486e+07 2.04586e+08 8.68852e+07 3.71565e+08)
(4.75017e+08 -5.09652e+06 -7.19639e+07 6.04338e+08 -7.65385e+07 6.24339e+08)
(2.64506e+08 8.28845e+06 3.52156e+07 2.59391e+08 1.22018e+08 3.77388e+08)
(2.91595e+08 1.7322e+07 -2.54712e+07 4.09533e+08 -1.49237e+07 4.27166e+08)
(1.50979e+10 -5.40647e+09 2.23477e+09 1.70235e+10 1.0485e+09 1.60775e+10)
(1.57396e+09 1.85132e+08 -4.40482e+07 2.06481e+09 -5.6986e+07 2.06965e+09)
(-2.53692e+08 9.00355e+07 -5.5945e+07 4.6721e+08 -5.39735e+07 6.07629e+08)
(3.58971e+08 1.98253e+06 -2.82183e+07 4.82698e+08 -9.87306e+06 5.8325e+08)
(4.96622e+08 7.99215e+07 -3.19286e+08 1.1274e+09 -2.5229e+08 1.15135e+09)
(2.38855e+08 -5.59963e+07 4.56585e+07 2.05025e+08 6.04851e+07 3.35277e+08)
(6.33174e+08 465697 -8.7915e+07 7.37709e+08 -9.10882e+07 7.44633e+08)
(2.13382e+08 -3.23999e+06 4.19031e+07 1.67591e+08 7.6756e+07 2.42285e+08)
(1.42351e+08 2.45992e+07 762169 2.0041e+08 -3.54363e+07 2.25048e+08)
(2.64889e+08 8.72001e+07 5.99831e+07 3.64503e+08 1.5352e+08 4.59768e+08)
(1.03336e+10 -4.06611e+09 1.90403e+09 1.28409e+10 -2.536e+08 1.25152e+10)
(3.38681e+07 1.65556e+08 -1.7501e+08 8.43128e+08 -1.07336e+08 9.41481e+08)
(3.20066e+08 5.75413e+06 -2.64187e+07 4.97696e+08 -2.39453e+07 5.25873e+08)
(1.13235e+09 1.96756e+08 -5.666e+08 2.24376e+09 -3.35866e+08 2.27946e+09)
(1.6354e+08 -6.40292e+07 4.50743e+07 1.71742e+08 3.98959e+07 2.42649e+08)
(9.78898e+08 2.34921e+06 -1.4902e+08 1.1536e+09 -1.20688e+08 1.17098e+09)
(1.4809e+08 -1.48559e+07 1.7732e+07 1.25614e+08 2.72267e+07 1.41151e+08)
(1.92313e+08 -3.10372e+06 2.00976e+07 2.05653e+08 -9.58728e+07 2.27158e+08)
(9.06791e+07 4.83423e+07 6.45972e+07 9.31446e+07 6.10262e+07 1.52521e+08)
(5.7679e+08 9.52886e+07 2.47425e+08 6.14247e+08 1.05814e+08 8.0753e+08)
(2.4773e+10 -1.14874e+10 -2.81299e+09 2.65476e+10 8.24252e+08 2.81128e+10)
(3.65487e+09 3.71028e+08 1.4169e+09 3.25634e+09 -1.34966e+08 3.70808e+09)
(8.86085e+08 2.43864e+08 3.90657e+08 8.39289e+08 -1.67494e+08 1.47056e+09)
(6.37248e+08 6.37873e+07 1.17639e+08 6.59869e+08 -4.8926e+07 6.66398e+08)
(8.81878e+08 2.10873e+08 1.04661e+08 8.24894e+08 -1.09014e+08 1.10119e+09)
(7.24356e+08 1.14683e+08 1.9303e+08 1.05155e+09 -1.61565e+08 1.1679e+09)
(3.37397e+08 1.06462e+08 5.46811e+07 3.59515e+08 5.89541e+06 5.83622e+08)
(2.15413e+09 2.4579e+08 1.53898e+08 3.16898e+09 -3.15341e+08 3.61736e+09)
(1.06873e+09 1.51122e+08 -3.72058e+06 1.29561e+09 8.81888e+07 1.61615e+09)
(1.15739e+10 8.26209e+07 1.17319e+08 1.28331e+10 -5.60526e+08 1.42683e+10)
(2.18844e+10 -1.02063e+10 -2.21509e+08 2.15059e+10 7.61432e+08 2.13564e+10)
(1.33268e+08 1.5042e+08 8.62792e+07 3.42962e+08 -5.3251e+07 5.39415e+08)
(1.41478e+09 4.35868e+07 1.26261e+08 1.45884e+09 185787 1.38509e+09)
(1.50985e+09 1.46581e+08 5.85662e+07 1.67955e+09 -9.53928e+07 1.69378e+09)
(1.67192e+08 4.14588e+07 1.36914e+08 3.50384e+08 -4.42228e+07 3.10796e+08)
(5.33349e+08 4.14899e+07 5.34958e+07 5.83857e+08 -3.76405e+07 6.6631e+08)
(7.45657e+08 7.92653e+07 2.15508e+08 1.28101e+09 -1.85713e+08 1.47997e+09)
(2.66867e+08 4.66745e+07 5.63364e+07 2.88529e+08 2.15434e+07 4.16961e+08)
(2.44882e+09 2.17019e+08 1.12464e+08 3.20892e+09 -2.77189e+08 3.93761e+09)
(8.83938e+08 1.63538e+08 2.51231e+07 1.05808e+09 1.40048e+08 1.3768e+09)
(2.26881e+10 -7.99825e+09 2.58264e+08 2.37811e+10 -3.21641e+08 2.3545e+10)
(1.24393e+09 8.81442e+07 2.63758e+08 1.57623e+09 1.1715e+08 1.2518e+09)
(1.7278e+09 1.365e+08 -5.00778e+06 1.95471e+09 -7.27702e+07 1.84715e+09)
(-8.02548e+07 -4.13692e+06 1.40048e+08 3.17587e+08 -1.75318e+06 -6.80217e+07)
(5.89701e+08 3.5996e+06 2.05858e+07 6.45759e+08 -2.44871e+07 6.60869e+08)
(1.09789e+08 1.77819e+07 1.44978e+08 6.3536e+08 -1.74384e+08 6.47292e+08)
(1.53818e+08 -1.53086e+06 4.57506e+07 1.55751e+08 -2.09923e+06 2.20709e+08)
(1.07027e+09 2.61115e+07 1.52793e+08 1.27991e+09 -2.46548e+08 1.79267e+09)
(3.66062e+08 9.5528e+07 1.46136e+08 2.62229e+08 8.23563e+07 5.05158e+08)
(2.19058e+09 3.31607e+08 3.41734e+08 2.51173e+09 -5.62526e+07 3.33318e+09)
(1.70138e+10 -6.05132e+09 2.4585e+09 1.94586e+10 6.40754e+08 1.76835e+10)
(1.24967e+09 1.44191e+08 -3.28464e+07 1.67405e+09 -9.21233e+07 1.4931e+09)
(-1.25308e+08 9.12336e+07 -6.85033e+07 5.05488e+08 -4.74914e+07 1.73086e+07)
(2.8079e+08 -92707.4 4.64213e+06 3.71013e+08 -2.57771e+07 3.61629e+08)
(3.29205e+08 1.92653e+07 -1.41988e+08 9.70719e+08 -2.63611e+08 8.3759e+08)
(1.0362e+08 -5.03866e+07 4.40554e+07 1.27616e+08 -1.06679e+07 1.66313e+08)
(1.02068e+09 -1.43068e+08 4.37951e+07 1.18094e+09 -3.07691e+08 1.66207e+09)
(2.84206e+08 -4.57727e+07 1.58065e+08 6.32252e+07 2.62305e+07 2.69168e+08)
(1.95785e+09 9.75295e+07 6.11856e+08 1.59363e+09 -2.22641e+08 2.61377e+09)
(1.70481e+09 6.61348e+08 4.86638e+08 1.60246e+09 2.54514e+08 2.03651e+09)
(2.21964e+10 -1.14754e+10 5.64422e+08 2.0408e+10 -5.39966e+08 2.04525e+10)
(8.98576e+08 2.02367e+08 2.59493e+08 6.88369e+08 -1.17575e+08 1.06924e+09)
(1.54349e+09 1.97032e+08 4.59471e+08 1.55255e+09 -1.76771e+08 1.44169e+09)
(1.03884e+09 2.27556e+08 8.08693e+07 6.37262e+08 -5.9289e+07 7.67759e+08)
(1.29923e+09 1.56557e+08 4.36841e+08 1.6287e+09 -2.4429e+08 1.64228e+09)
(5.78259e+08 1.63579e+08 1.84322e+08 4.12898e+08 -2.7685e+07 5.07304e+08)
(3.25473e+09 4.47141e+07 6.97072e+08 4.0912e+09 -4.66684e+08 4.14353e+09)
(2.38703e+09 2.1924e+08 4.14006e+08 2.70493e+09 -1.51956e+08 2.89458e+09)
(2.92041e+10 -7.78879e+08 2.83747e+09 2.99205e+10 -1.85197e+09 3.08283e+10)
(1.12272e+11 -2.84957e+09 -5.29116e+09 1.186e+11 1.51397e+09 1.08865e+11)
(2.826e+10 -1.25958e+10 -6.68508e+08 2.78968e+10 -3.77942e+08 2.95416e+10)
(1.18362e+09 1.16542e+08 2.79055e+08 1.03436e+09 2.09781e+07 9.45741e+08)
(1.21743e+09 3.73469e+08 6.57374e+07 1.04235e+09 -2.10438e+08 1.20627e+09)
(6.20031e+08 9.91972e+07 2.09529e+08 7.02213e+08 -1.01778e+08 6.38828e+08)
(7.25553e+08 1.19363e+08 7.68204e+07 5.17014e+08 -5.51654e+07 6.01962e+08)
(9.69422e+08 7.76235e+07 3.06627e+08 1.26431e+09 -1.71672e+08 1.27471e+09)
(5.59144e+08 1.00053e+08 1.64983e+08 4.40572e+08 -1.40585e+07 5.63992e+08)
(3.47831e+09 1.2558e+08 7.01502e+08 4.19163e+09 -4.81984e+08 4.3763e+09)
(2.15878e+09 3.1288e+08 4.89755e+08 2.54107e+09 -1.53524e+08 2.88036e+09)
(2.95573e+10 -2.21332e+08 2.44507e+09 3.14309e+10 -2.19944e+09 3.28041e+10)
(2.8999e+10 -1.19492e+10 1.65233e+09 2.92959e+10 1.53481e+09 2.77839e+10)
(9.47381e+08 3.17049e+08 -6.36993e+07 1.21573e+09 -2.22966e+08 1.16338e+09)
(2.95756e+08 1.04278e+08 8.0347e+07 3.12784e+08 1.65854e+07 -1.17376e+07)
(9.32359e+08 1.00081e+08 5.06768e+07 1.01785e+09 -1.29302e+08 1.02114e+09)
(4.27944e+08 2.22905e+07 1.11096e+08 4.7061e+08 -3.23338e+07 4.4318e+08)
(4.36342e+08 1.85161e+07 6.05548e+07 3.67256e+08 -3.53692e+07 4.16372e+08)
(7.36435e+08 -1.26621e+07 2.36723e+08 8.56259e+08 -1.31593e+08 9.17403e+08)
(1.15133e+09 8.97313e+07 2.6287e+08 8.06171e+08 -4.67786e+06 1.07153e+09)
(3.15309e+09 3.20431e+08 7.00009e+08 3.29094e+09 -4.83472e+08 3.73566e+09)
(1.64268e+09 7.60794e+08 9.0175e+08 1.79395e+09 -9.87679e+07 2.65771e+09)
(2.40223e+10 -8.31277e+09 2.05265e+09 2.6299e+10 -8.58654e+08 2.50495e+10)
(2.49386e+08 8.00253e+07 -1.40985e+07 6.20708e+08 6.46401e+07 1.91358e+08)
(1.21834e+09 9.69346e+07 5.03766e+06 1.38013e+09 -7.79713e+07 1.30272e+09)
(1.79025e+08 -2.78293e+07 4.02553e+07 2.88333e+08 3.79344e+07 -3.27402e+07)
(4.66986e+08 -6.567e+06 1.85432e+07 5.0981e+08 -3.54071e+07 5.08001e+08)
(1.44576e+08 -1.12902e+08 2.06161e+08 2.92688e+08 -6.85329e+07 3.03266e+08)
(5.02322e+08 -1.18196e+08 1.76744e+08 3.1569e+08 -3.18241e+07 4.75312e+08)
(1.54466e+09 -1.81931e+08 2.37449e+08 1.35642e+09 -1.64319e+08 1.59436e+09)
(2.83144e+09 2.21319e+08 1.01009e+09 1.32953e+09 1.30977e+08 2.33165e+09)
(2.87826e+09 9.17262e+08 1.15425e+09 3.56495e+09 -9.88746e+08 3.73732e+09)
(3.29135e+10 -1.52989e+10 -1.33844e+09 3.22521e+10 8.9933e+06 3.5519e+10)
(1.55287e+09 1.06459e+08 3.55266e+08 1.3802e+09 -1.16547e+08 1.34734e+09)
(3.38581e+09 3.10869e+08 1.56216e+08 2.31114e+09 -1.17318e+08 2.19036e+09)
(2.15905e+09 1.98884e+08 6.97692e+08 1.99587e+09 -3.06723e+08 1.40323e+09)
(4.83665e+09 1.44024e+08 2.71976e+08 3.28754e+09 -1.6109e+08 2.30873e+09)
(5.25253e+09 -3.03773e+08 5.67191e+08 5.3473e+09 -2.42912e+08 4.19541e+09)
(6.02104e+09 -4.2438e+08 8.78942e+08 5.66686e+09 -5.63438e+08 3.82111e+09)
(1.74555e+10 -1.77188e+09 2.68947e+09 1.70714e+10 -1.02624e+09 1.28252e+10)
(3.41156e+11 -7.89416e+09 -1.34836e+10 3.56966e+11 6.56244e+09 3.43365e+11)
(3.09072e+10 3.22051e+09 -3.64949e+08 3.24561e+10 -4.99823e+09 4.54348e+10)
(3.53259e+10 -1.72388e+10 -2.13758e+09 3.44943e+10 8.80818e+08 3.49192e+10)
(8.19303e+08 3.35887e+08 9.6554e+07 7.03881e+08 -1.28234e+08 1.00959e+09)
(1.59369e+09 2.40746e+08 4.66653e+08 1.59751e+09 -1.6634e+08 1.35682e+09)
(3.03399e+09 2.25816e+08 1.25068e+08 2.25994e+09 -6.06599e+07 2.02447e+09)
(1.24506e+09 1.88287e+08 4.38937e+08 1.22632e+09 -2.39044e+08 6.14633e+08)
(3.66586e+09 9.28354e+07 3.11553e+08 2.479e+09 -1.07555e+08 1.65014e+09)
(4.63733e+09 -2.17738e+08 4.44025e+08 4.75341e+09 -2.38527e+08 3.82949e+09)
(5.09863e+09 -3.48404e+08 7.75389e+08 4.84397e+09 -3.99141e+08 3.45447e+09)
(2.81984e+10 -1.90891e+09 3.114e+09 2.86203e+10 -1.33343e+09 2.42594e+10)
(3.14644e+11 -6.01668e+09 -1.12287e+10 3.27911e+11 5.21453e+09 3.16409e+11)
(3.52884e+10 -1.56095e+10 1.72941e+08 3.59499e+10 -1.17698e+09 3.60584e+10)
(4.72835e+08 3.69261e+08 -1.1642e+08 5.19599e+08 4.66728e+08 7.40372e+07)
(1.40712e+09 4.15686e+08 1.93045e+08 1.51507e+09 -1.39516e+08 1.44941e+09)
(9.90793e+08 1.42124e+08 2.61432e+08 1.02525e+09 -1.2544e+08 8.2188e+08)
(2.68235e+09 1.67158e+08 1.13548e+08 2.01446e+09 -4.2866e+07 1.73184e+09)
(6.13514e+08 2.58554e+07 1.03988e+08 5.975e+08 -8.62413e+07 3.50541e+08)
(3.13765e+09 -4.28936e+07 3.64309e+08 2.06278e+09 -6.87892e+07 1.52996e+09)
(3.59534e+09 -1.94163e+08 5.01639e+08 3.48205e+09 -3.72278e+08 2.35767e+09)
(4.15505e+09 -1.77074e+08 6.9466e+08 3.77403e+09 -2.75432e+08 2.77405e+09)
(2.76058e+10 -1.55988e+09 2.91197e+09 2.90382e+10 -1.79126e+09 2.48964e+10)
(3.53972e+10 -1.32564e+10 5.13784e+08 3.61551e+10 2.04354e+09 3.31798e+10)
(1.11184e+09 3.67983e+08 1.79607e+08 1.69301e+09 -2.13786e+08 1.24018e+09)
(7.52757e+08 2.32628e+08 -3.29187e+08 1.14659e+09 2.75117e+08 4.63244e+08)
(9.3901e+08 1.21467e+08 1.10985e+08 1.17051e+09 -1.14863e+08 1.01164e+09)
(4.9219e+08 4.09663e+07 2.50739e+08 6.46663e+08 -2.39833e+07 3.26355e+08)
(1.37036e+09 5.52146e+06 7.75783e+07 1.1476e+09 -2.16679e+07 9.6741e+08)
(1.06835e+09 -2.04523e+08 1.22034e+08 9.58052e+08 -1.27204e+08 5.40463e+08)
(4.50679e+09 -1.6959e+08 2.92564e+08 3.6137e+09 1.16926e+07 3.40413e+09)
(5.91034e+09 -4.61033e+08 4.14255e+08 5.11264e+09 -4.91536e+08 4.06614e+09)
(8.76327e+08 -4.86784e+07 3.04346e+08 7.25265e+08 -7.37476e+07 1.8634e+08)
)
;

boundaryField
{
    inlet
    {
        type            calculated;
        value           nonuniform List<symmTensor> 
20
(
(-692.707 -14939.9 -8992.44 1384.07 -2279.4 -1302.41)
(5428.2 -16186.5 -10.3252 786.617 -1963.46 -1594.38)
(-3076.62 -12249.2 -5663.32 1578.17 -1586.13 227.586)
(-1197.75 -9728.92 2292.96 795.406 -1124.39 843.63)
(2083.23 -15541 873.002 -90.7913 -162.301 -670.593)
(1882.98 -15021.7 -10313.8 742.199 823.453 1146)
(-1526.78 -13105.3 7234.52 958.843 1211.63 -134.285)
(-2425.53 -10963.4 2932.59 1196.3 -305.4 804.124)
(3446.8 -16449.6 -13682.3 175.859 576.047 1269.71)
(-4955.4 -15399.7 7247.01 -194.588 595.49 -311.487)
(4462.99 -16739.2 -6483.16 662.643 -305.947 438.118)
(-2019.51 -13174.6 7790.64 1434.96 696.919 -495.766)
(-6719.01 -16274.9 9010.63 -624.802 -375.427 -593.808)
(7219.59 -18266.7 -12036.2 -297.417 -258.151 826.078)
(-5117.93 -17887.3 9867.45 277.835 1168.17 -872.946)
(2943.02 -17065.6 -275.473 1283.51 -793.616 128.606)
(7880.76 -19451.4 -16568.6 -714.368 5.53727 1297.1)
(-8400.74 -20234 11715.3 -310.537 506.519 -66.2158)
(7624.25 -20388.5 -11432 274.334 -729.22 341.527)
(-3741.41 -19361.2 8142.9 899.244 1497.2 -1280.59)
)
;
    }
    outlet
    {
        type            calculated;
        value           nonuniform 0();
    }
    bottom
    {
        type            calculated;
        value           nonuniform List<symmTensor> 
40
(
(665.828 -8238.46 -2520.03 1384.07 -4555.96 -5654.2)
(546.832 -7234.19 -1057.59 786.617 -4566.3 -184.921)
(-1470.01 -6023.14 -1691.58 1578.17 -3357.17 -3427.16)
(-1666.16 -4994.48 -237.888 795.406 -2547.33 1521.59)
(1331.02 1086.8 4173.55 -795.424 -7595.95 -375.064)
(-1694.65 257.089 -394.839 1884.5 -3689.73 -4579.22)
(-1077.22 109.583 -198.006 516.695 -2726.6 400.233)
(-1306.61 86.7716 -921.553 704.843 -2877.63 -1648.21)
(-1456.83 646.045 1656.72 1205.42 -3064.06 3468.95)
(-318.056 -133.246 970.969 -644.546 -5468.3 94.1726)
(-1035.34 -292.998 -1033.21 1103.83 -3135.74 -2826.86)
(-1468.8 259.012 -1764.37 973.286 -2902.13 1353.43)
(-1510.82 -611.427 -1485.48 -106.82 -5637.51 1957.83)
(-1258.43 -15.8742 -232.159 1282.62 -3323.61 -1624.07)
(-707.764 104.094 -1109.96 316.286 -3667.74 702.405)
(-331.112 -634.237 -1165.57 213.453 -2123.78 -3549.47)
(-1261.3 398.228 58.8178 704.634 -3043.45 720.827)
(-813.924 -109.887 -886.836 40.6975 -4601.4 1276.93)
(-289.778 -653.032 -704.591 228.779 -2405.29 -2888.72)
(-252.998 173.83 -1527.56 470.338 -4316.27 2870.23)
(-1449.15 -325.593 -1640.76 554.892 -4685.55 2656.63)
(-668.584 -343.465 -338.212 273.81 -2466.95 -1347.13)
(-268.769 208.547 -1161.02 252.923 -4591.19 2932)
(155.338 -572.652 -906.803 -305.218 -1601.51 -4341.33)
(-848.464 111.704 -745.379 -33.9772 -2699.57 -444.701)
(-823.003 -144.599 -1589.16 540.765 -4699.08 3466.31)
(-322.075 -161.27 -891.379 -186.082 -1712.45 -2625.44)
(-122.436 157.206 -907.593 319.975 -5077.12 5429.27)
(-1065.86 -296.665 -2018.92 708.639 -4560.61 3609.23)
(-637.008 189.21 -1245.37 -81.6192 -2082.71 -1781.33)
(-461.481 -73.5879 -1663.72 471.45 -4753.75 5114.57)
(-583.338 382.103 -1712.15 24.1073 -1506.66 -3826)
(-763.84 286.754 -1701.01 -65.9655 -2562.5 -1229.92)
(-739.961 -164.363 -2094.73 671.216 -4522.18 4673.74)
(-666.989 483.032 -1854.11 0.401458 -1759.23 -3115.68)
(-406.836 -22.3107 -1406.5 378.024 -4402.02 6166.24)
(-837.622 -120.796 -2363.42 711.207 -4353.01 3838.16)
(-793.541 459.612 -2159.84 68.8301 -2104.46 -2484.13)
(-680.261 54.5469 -1932.05 592.64 -4141.14 5611.38)
(-896.556 471.972 -2182.4 9.0764 -1525.9 -3646.46)
)
;
    }
    top
    {
        type            symmetryPlane;
    }
    side1
    {
        type            symmetryPlane;
    }
    side2
    {
        type            symmetryPlane;
    }
    procBoundary16to8
    {
        type            processor;
        value           nonuniform List<symmTensor> 
50
(
(3.75822e+09 -1.0913e+10 2.4474e+09 -1.92893e+09 -6.84169e+09 -2.26972e+09)
(-6.45245e+08 4.83616e+08 6.33451e+08 1.21305e+08 -8.55642e+08 5.2e+08)
(-6.63684e+08 -7.99906e+06 -8.76566e+08 3.4406e+08 -1.61066e+09 -5.99214e+07)
(-4.42345e+08 3.88177e+08 3.19827e+06 1.4321e+08 -7.56559e+08 5.89379e+08)
(-4.83442e+08 -1.52728e+08 -3.22302e+08 1.37385e+08 -7.16142e+08 2.46876e+08)
(-2.44795e+08 1.03777e+08 -6.30996e+07 -1.35482e+07 -3.99678e+08 2.88832e+08)
(-5.11856e+08 -1.1559e+08 -3.43151e+08 2.44449e+08 -7.81221e+08 3.37774e+08)
(-1.57156e+08 2.50468e+07 -1.51093e+08 -4.71258e+07 -2.48803e+08 1.64896e+08)
(-3.72926e+08 -1.01129e+08 -4.51351e+08 2.25428e+08 -7.3427e+08 1.85815e+08)
(-2.30809e+08 -2.592e+07 -3.90261e+08 1.21045e+08 -2.40399e+08 9.54491e+07)
(-7.58092e+08 -1.12424e+10 -3.48184e+09 1.74612e+09 1.06661e+09 7.35177e+08)
(7.72784e+08 1.28872e+08 6.72151e+08 -3.26171e+08 -1.13674e+09 -1.59343e+09)
(-4.35777e+08 2.45105e+08 4.39834e+08 3.64055e+08 3.23362e+08 4.63645e+08)
(-2.19571e+07 -3.5769e+06 4.53008e+07 -801854 -1.12723e+07 -1.00129e+07)
(-2.44468e+08 1.18659e+08 6.68617e+07 1.17581e+08 7.03974e+07 2.66811e+08)
(-1.81709e+08 -3.05964e+07 7.58515e+06 4.25544e+07 -3.26781e+07 9.1305e+07)
(-1.3768e+08 -1.83672e+07 -3.52864e+07 1.06102e+07 6.18112e+07 1.44084e+08)
(-3.05144e+08 -4.63161e+07 -1.2048e+08 1.6926e+08 -6.57433e+07 1.87644e+08)
(-2.03387e+08 -1.07128e+07 -1.35899e+08 -2.25015e+06 1.74746e+08 1.15333e+08)
(-1.3235e+08 -5.91899e+07 -7.55361e+07 1.21356e+08 -6.06948e+07 1.78766e+08)
(5.86712e+08 -8.33889e+09 -1.32062e+09 -6.56431e+08 -1.28367e+09 -2.87647e+08)
(-3.11005e+08 8.49311e+07 3.0343e+08 4.1036e+07 8.58717e+07 2.83377e+08)
(6.67988e+07 2.37507e+08 1.08256e+09 -1.9187e+08 -2.2437e+08 2.53019e+08)
(-4.61947e+07 2.5482e+08 1.38481e+08 -2.62106e+08 -3.66694e+07 4.27019e+08)
(-2.22422e+08 8.58052e+07 1.95638e+08 1.35095e+07 -1.23603e+08 1.52181e+08)
(-9.76225e+07 1.62075e+08 1.82078e+07 -1.15905e+08 1.86589e+07 2.09422e+08)
(-6.01889e+08 1.41314e+08 9.73059e+07 2.27827e+08 -2.39064e+08 5.19446e+08)
(-4.10503e+08 1.74851e+08 -4.60337e+07 -6.39144e+07 7.54708e+07 2.81813e+08)
(-2.25033e+08 -1.94286e+07 3.44835e+08 6.36732e+08 -5.29811e+08 1.97102e+09)
(-7.04308e+07 -7.55809e+08 -1.45833e+09 1.09796e+09 3.61151e+07 -2.55689e+09)
(-9.33633e+08 -1.05589e+10 -2.55752e+08 -3.77842e+08 2.42907e+08 1.75494e+09)
(3.50322e+08 2.49542e+08 1.17701e+09 -2.56575e+08 -4.01966e+08 -2.06178e+08)
(3.58334e+08 2.6369e+08 2.07579e+08 -2.52749e+08 -1.11348e+08 3.78847e+07)
(-1.77106e+08 1.54659e+08 5.31637e+08 -1.6192e+06 -2.78568e+08 5.76392e+07)
(1.82432e+08 1.9082e+08 1.98937e+08 -1.54679e+08 -6.23709e+07 -4.89141e+07)
(-4.7535e+08 -3.83914e+07 7.49677e+08 2.69723e+08 -4.67789e+08 2.54271e+08)
(-3.85212e+08 1.74902e+08 4.13194e+08 -3.79191e+07 -1.92309e+08 1.31241e+08)
(1.05393e+09 -7.25363e+08 2.76106e+09 7.13479e+08 -1.3482e+09 1.39311e+09)
(-2.23604e+09 -4.35825e+09 -7.85574e+09 5.18777e+09 1.60113e+09 -6.18821e+09)
(-8.20724e+08 6.88615e+08 -2.49209e+09 -3.41807e+08 1.76548e+09 4.36955e+09)
(4.33083e+08 -1.29783e+10 -9.84272e+08 -1.07735e+09 -1.33976e+09 1.3014e+08)
(5.8164e+08 1.63523e+08 3.14218e+08 -3.25869e+08 -1.0075e+08 -2.37886e+07)
(4.29846e+08 1.375e+08 1.19663e+09 -8.70261e+07 -4.09534e+08 -6.37997e+08)
(1.86185e+09 1.23199e+08 2.71946e+08 -2.97906e+08 -2.32298e+08 -1.30072e+09)
(5.80198e+08 -4.28425e+08 7.55876e+08 4.34058e+08 -2.65747e+08 -9.33873e+08)
(1.15909e+09 -6.13881e+08 1.05303e+09 4.69009e+08 -7.60906e+08 -1.79357e+09)
(2.36767e+09 -1.43321e+09 2.48187e+09 1.00789e+09 -8.76585e+08 -3.04332e+09)
(-5.8813e+09 -9.19459e+09 -1.5149e+10 9.6026e+09 6.44028e+09 -4.10208e+09)
(-3.59146e+09 2.5379e+09 4.60608e+08 -2.38802e+09 -4.84673e+09 9.04341e+09)
(-1.16545e+10 3.02264e+10 4.60403e+10 -2.3367e+10 1.83149e+09 2.60097e+10)
)
;
    }
    procBoundary16to17
    {
        type            processor;
        value           nonuniform List<symmTensor> 
20
(
(-2.75919e+08 7.63981e+07 -4.59458e+08 1.32216e+08 -2.70653e+08 1.36418e+08)
(-2.3024e+08 1.85583e+07 -3.95543e+08 2.13461e+08 -4.96431e+08 2.80731e+07)
(-3.08632e+08 1.62978e+08 -3.86883e+08 2.09214e+07 -3.05314e+08 2.8585e+08)
(-2.17102e+08 2.70475e+07 -2.62327e+08 6.21832e+07 -3.58619e+08 1.88569e+08)
(-7.58435e+07 -1.53243e+07 -3.17814e+07 8.40564e+07 -2.11528e+07 7.69957e+07)
(-1.53652e+08 7.7719e+07 -4.28142e+07 -1.94117e+07 2.27062e+08 9.27627e+07)
(-1.17096e+08 8.20928e+07 5.13291e+07 4.79767e+07 7.16688e+07 1.08814e+08)
(-2.64198e+08 2.25e+08 8.29607e+07 9.1198e+07 1.50624e+08 1.52966e+08)
(-1.13999e+08 -2.9046e+08 -5.99755e+08 6.26447e+08 9.857e+07 -1.49147e+09)
(-5.03899e+08 1.64714e+08 1.5625e+08 2.96678e+08 -2.49469e+08 1.60895e+09)
(-5.41295e+08 4.65319e+08 1.69015e+08 -8.31839e+07 3.39832e+08 2.95648e+08)
(-4.61059e+08 4.79711e+08 6.65216e+08 -2.00499e+08 4.34825e+08 6.68472e+08)
(-1.25174e+09 4.63236e+08 -1.87094e+09 3.18303e+08 5.87906e+08 4.71903e+09)
(-1.2551e+09 -1.90642e+09 -3.94003e+09 3.18679e+09 7.41592e+08 -4.80281e+09)
(-8.93621e+08 1.09239e+08 1.6628e+09 1.56068e+09 -1.48681e+09 1.90217e+09)
(-6.70392e+08 1.33091e+09 6.29214e+08 1.61441e+08 8.79829e+07 5.68056e+07)
(-5.3407e+09 3.27093e+10 4.87764e+10 -1.96427e+10 -3.65144e+09 1.17432e+10)
(-7.4263e+09 4.96796e+09 -2.11253e+09 -2.20391e+09 -6.56179e+09 1.33038e+10)
(-4.57927e+09 -3.73357e+09 -7.69246e+09 7.43916e+09 4.74841e+09 -2.99505e+09)
(-1.42869e+09 -2.28233e+08 8.43066e+08 3.22806e+09 -2.5e+09 -1.70343e+09)
)
;
    }
    procBoundary16to24
    {
        type            processor;
        value           nonuniform List<symmTensor> 
50
(
(-1.25956e+09 -2.89038e+09 1.60715e+08 5.00103e+08 -7.72047e+08 5.30138e+08)
(-7.36653e+08 1.43931e+08 -5.29876e+08 5.52288e+08 -6.31556e+08 3.17111e+08)
(-2.71878e+08 -1.57081e+08 -4.10153e+07 1.53718e+08 -2.62932e+08 -1.698e+07)
(-3.88535e+08 -3.15412e+06 -9.10604e+08 4.32087e+08 -7.54932e+08 4.84992e+07)
(9.17889e+07 -2.24623e+08 1.03092e+07 -1.58507e+07 -1.49941e+08 -1.26863e+08)
(-5.55364e+07 6.82696e+07 -1.89912e+08 2.50617e+08 -8.64854e+08 -8.69046e+07)
(-1.20279e+08 3.20072e+06 -1.77436e+08 5.77216e+07 -2.57879e+08 1.74778e+07)
(-4.28773e+07 -5.31588e+07 -2.17457e+08 1.74241e+08 -8.24766e+08 -1.2567e+07)
(-2.11707e+08 5.78841e+07 -2.67877e+08 1.61398e+06 -3.49512e+08 1.62096e+08)
(-1.75207e+08 -1.16231e+08 -2.45872e+08 5.22438e+07 -6.44744e+08 3.23104e+08)
(-9.88597e+08 -2.77528e+09 1.36507e+09 6.15944e+08 -2.35033e+08 4.92738e+08)
(-1.9021e+08 1.76051e+07 -5.0557e+07 9.06915e+07 -4.46183e+07 6.14603e+07)
(-8.3896e+08 2.88175e+08 -6.265e+08 5.85213e+08 -3.34436e+08 4.38347e+08)
(-1.32327e+08 -1.45651e+08 8.14145e+07 1.35568e+07 1.43799e+07 7.59908e+06)
(-3.03666e+08 8.19984e+06 -3.71167e+08 1.91487e+08 -1.8308e+08 2.47355e+08)
(-6.65558e+06 -2.47741e+07 1.3161e+07 -2.72494e+06 1.49646e+07 -1.76514e+07)
(-7.32126e+07 -8.65903e+07 6.94774e+06 1.38342e+08 -1.49361e+08 1.0244e+08)
(-6.6152e+06 -1.27845e+07 9.47589e+06 -7.63494e+06 -383884 -8.45188e+06)
(2.80954e+07 -1.30391e+08 6.20601e+08 -1.39764e+07 -3.83557e+07 1.84571e+08)
(4.19306e+07 9.21541e+07 4.71062e+07 -5.61767e+07 -1.94497e+07 1.00498e+08)
(-1.16814e+09 -3.7509e+09 1.85143e+09 1.02613e+09 -3.94535e+08 1.08612e+08)
(-4.84296e+08 1.77309e+08 -1.71351e+08 4.87272e+08 -1.70238e+08 3.43308e+07)
(-1.32982e+08 9.79735e+06 -1.72243e+07 6.7959e+07 -5.10513e+07 3.76981e+07)
(-4.70803e+08 8.78817e+07 -3.94668e+08 3.75948e+08 -3.09092e+08 2.57154e+08)
(-1.00317e+08 -9.63564e+07 3.37164e+07 -4.57386e+06 -2.71907e+07 1.68225e+07)
(-2.50287e+08 -1.65125e+08 -1.14192e+08 8.17199e+07 -2.13727e+08 3.98982e+08)
(-1.709e+07 -1.62524e+08 1.08697e+08 -1.15907e+08 -5.38473e+06 -8.02299e+06)
(-1.71442e+08 -3.80778e+08 3.34655e+08 -1.20267e+08 -1.73097e+08 5.09063e+08)
(5.87902e+08 3.80795e+08 8.11873e+08 -5.21598e+08 -2.01964e+08 2.1636e+08)
(1.12816e+08 -5.02491e+07 5.33691e+08 -3.36862e+08 -5.80681e+07 -1.14353e+08)
(-1.39573e+09 -6.75345e+09 2.61823e+09 1.74465e+09 -1.32368e+08 -3.15135e+08)
(-1.07217e+08 5.88294e+07 -3.97955e+06 1.06002e+08 -5.03996e+07 9.08256e+06)
(-2.34841e+08 5.9963e+07 -9.97718e+07 4.22082e+08 1.6808e+07 -2.22911e+08)
(-6.70291e+07 1.92635e+06 1.47623e+07 3.43602e+07 -2.85034e+07 2.40396e+07)
(-2.69894e+08 -1.5104e+08 -4.68549e+07 2.77076e+08 -4.43598e+07 5.69924e+07)
(-1.12985e+08 -1.52076e+08 9.26027e+07 -6.4352e+07 -6.99912e+06 5.16546e+07)
(-1.12898e+08 -1.8387e+08 -1.8739e+07 6.10115e+07 -6.61017e+07 7.86004e+07)
(3.37132e+08 -4.31433e+08 4.87641e+08 -4.04482e+08 1.32839e+08 8.87022e+07)
(-1.28028e+09 -1.74655e+08 -3.15757e+08 2.17048e+08 -3.402e+08 -9.87107e+07)
(1.06674e+09 2.03238e+09 8.77507e+08 -9.716e+08 3.78724e+07 1.75883e+08)
(-3.93283e+08 -6.81818e+09 2.08082e+09 1.5347e+09 -5.56851e+08 -1.17423e+09)
(-8.3278e+08 3.62348e+08 -8.20767e+08 1.76843e+09 4.41918e+08 -9.88929e+08)
(-7.5285e+07 1.06954e+08 3.75348e+07 1.37151e+08 -6.66181e+07 -6.68888e+07)
(-6.38416e+08 -7.9986e+07 1.42532e+07 1.54479e+09 4.82201e+08 -7.08457e+08)
(-3.70726e+07 3.32091e+07 3.81489e+07 8.56844e+07 -2.79976e+07 -7.22555e+07)
(-2.88807e+08 -3.80914e+08 -5.24191e+07 9.97536e+08 -1.87578e+08 -5.22227e+08)
(1.0461e+08 -1.40927e+08 1.63204e+08 8.70269e+06 9.09772e+07 -1.85446e+08)
(4.31316e+07 -9.31397e+08 -2.08412e+08 1.1562e+09 -6.4872e+08 -6.79755e+08)
(1.47838e+08 -2.55748e+08 3.67095e+08 -1.41391e+08 2.4434e+08 -3.33809e+08)
(-1.22547e+09 -8.07013e+07 -7.12829e+07 2.49526e+09 -1.56249e+09 -9.0684e+08)
)
;
    }
}


// ************************************************************************* //
