/*--------------------------------*- C++ -*----------------------------------*\
| =========                 |                                                 |
| \\      /  F ield         | OpenFOAM: The Open Source CFD Toolbox           |
|  \\    /   O peration     | Version:  2.4.0                                 |
|   \\  /    A nd           | Web:      www.OpenFOAM.org                      |
|    \\/     M anipulation  |                                                 |
\*---------------------------------------------------------------------------*/
FoamFile
{
    version     2.0;
    format      ascii;
    class       volScalarField;
    location    "0.01";
    object      alpha;
}
// * * * * * * * * * * * * * * * * * * * * * * * * * * * * * * * * * * * * * //

dimensions      [0 0 0 0 0 0 0];

internalField   nonuniform List<scalar> 
40
(
9.93947e-38
6.00403e-40
3.65988e-42
2.22262e-44
1.33528e-46
2.42712e-39
1.52811e-41
9.69851e-44
6.12388e-46
3.81948e-48
3.11598e-41
2.04195e-43
1.34766e-45
8.83751e-48
5.71649e-50
2.7828e-43
1.89528e-45
1.29892e-47
8.83481e-50
5.91965e-52
2.54732e-40
1.54145e-42
9.26552e-45
5.54014e-47
3.29418e-49
6.49418e-42
4.08451e-44
2.54891e-46
1.58055e-48
9.73572e-51
8.69192e-44
5.67519e-46
3.67279e-48
2.35949e-50
1.50424e-52
8.08002e-46
5.46951e-48
3.66626e-50
2.43731e-52
1.60647e-54
)
;

boundaryField
{
    inlet
    {
        type            zeroGradient;
    }
    outlet
    {
        type            zeroGradient;
    }
    bottom
    {
        type            fixedValue;
        value           nonuniform 0();
    }
    top
    {
        type            symmetryPlane;
    }
    side1
    {
        type            symmetryPlane;
    }
    side2
    {
        type            symmetryPlane;
    }
    procBoundary67to3
    {
        type            processor;
        value           nonuniform List<scalar> 
20
(
7.15783e-35
4.15497e-37
2.36819e-39
1.32799e-41
7.3389e-44
1.70564e-36
1.03238e-38
6.12511e-41
3.56976e-43
2.04734e-45
2.13798e-38
1.34744e-40
8.31121e-43
5.0285e-45
2.98988e-47
1.86546e-40
1.22233e-42
7.82729e-45
4.9099e-47
3.02295e-49
)
;
    }
    procBoundary67to66
    {
        type            processor;
        value           nonuniform List<scalar> 8(2.6505e-35 6.28064e-37 7.83129e-39 6.79941e-41 5.39773e-38 1.3309e-39 1.72448e-41 1.55368e-43);
    }
    procBoundary67to68
    {
        type            processor;
        value           nonuniform List<scalar> 8(3.86457e-49 1.13125e-50 1.73172e-52 1.83297e-54 1.17897e-51 3.57588e-53 5.66683e-55 6.2028e-57);
    }
    procBoundary67to83
    {
        type            processor;
        value           nonuniform List<scalar> 10(7.62089e-46 5.44296e-48 3.90108e-50 2.75532e-52 1.90625e-54 2.13997e-48 1.54558e-50 1.12812e-52 8.16266e-55 5.80397e-57);
    }
}


// ************************************************************************* //
