/*--------------------------------*- C++ -*----------------------------------*\
| =========                 |                                                 |
| \\      /  F ield         | OpenFOAM: The Open Source CFD Toolbox           |
|  \\    /   O peration     | Version:  2.4.0                                 |
|   \\  /    A nd           | Web:      www.OpenFOAM.org                      |
|    \\/     M anipulation  |                                                 |
\*---------------------------------------------------------------------------*/
FoamFile
{
    version     2.0;
    format      ascii;
    class       volSymmTensorField;
    location    "0.01";
    object      B;
}
// * * * * * * * * * * * * * * * * * * * * * * * * * * * * * * * * * * * * * //

dimensions      [0 2 -2 0 0 0 0];

internalField   nonuniform List<symmTensor> 
40
(
(6.77754e+21 1.07058e+16 1.21116e+17 6.77771e+21 -5.41751e+16 6.77774e+21)
(4.28626e+21 -2.31476e+17 1.362e+18 4.28818e+21 -5.67549e+16 4.28823e+21)
(3.26013e+21 -2.0048e+16 4.14393e+17 3.26076e+21 1.5018e+16 3.26081e+21)
(2.74813e+21 -1.46622e+16 6.52327e+16 2.74822e+21 6.07601e+15 2.74824e+21)
(2.6194e+21 -4.98019e+16 2.4798e+17 2.61969e+21 4.37842e+16 2.6198e+21)
(1.00394e+22 -2.04159e+16 4.70269e+17 1.00398e+22 -6.45781e+16 1.00399e+22)
(4.05049e+21 -3.56065e+16 1.90477e+17 4.05066e+21 -2.02022e+16 4.05069e+21)
(2.29701e+21 -1.00024e+16 5.96565e+16 2.29707e+21 -1.07595e+16 2.29714e+21)
(2.94912e+21 -3.65199e+15 7.67989e+16 2.94924e+21 -2.49486e+16 2.94932e+21)
(3.64276e+21 6.23533e+14 1.06839e+18 3.6437e+21 -1.6148e+17 3.64404e+21)
(5.45644e+21 5.25531e+16 9.0794e+17 5.45614e+21 5.66157e+17 5.45694e+21)
(4.99648e+21 -3.731e+17 1.58368e+17 4.99653e+21 -5.69496e+17 4.99729e+21)
(7.38767e+21 -1.63691e+17 1.09116e+17 7.38764e+21 -4.60619e+17 7.38845e+21)
(4.96647e+21 4.0994e+17 3.68188e+17 4.96622e+21 -2.50539e+17 4.96699e+21)
(5.22376e+21 1.65158e+17 5.01226e+17 5.22408e+21 -3.94686e+16 5.22423e+21)
(7.15649e+21 -1.30724e+17 -3.13226e+17 7.1566e+21 1.96696e+17 7.15797e+21)
(6.29727e+21 -4.38746e+16 3.48495e+16 6.29724e+21 8.30857e+16 6.2976e+21)
(2.71447e+22 -3.81879e+16 1.00543e+18 2.71446e+22 2.53839e+16 2.71443e+22)
(2.0973e+22 1.11752e+17 1.26082e+18 2.0973e+22 2.22869e+17 2.0973e+22)
(5.07592e+21 1.93571e+17 4.6763e+17 5.07612e+21 7.37279e+16 5.07617e+21)
(5.42871e+21 3.36298e+17 7.15251e+16 5.4278e+21 -2.40702e+17 5.42889e+21)
(4.66009e+21 3.09777e+17 5.59807e+16 4.66048e+21 -3.89093e+16 4.66098e+21)
(5.14483e+21 5.20834e+15 1.34825e+17 5.14545e+21 1.08145e+16 5.14562e+21)
(4.03977e+21 -9.24405e+15 3.1655e+16 4.03994e+21 9.39163e+15 4.04e+21)
(4.45666e+21 -4.62301e+15 2.59378e+16 4.4568e+21 7.74223e+15 4.45683e+21)
(2.4344e+22 2.36936e+17 2.48582e+17 2.4346e+22 -1.76322e+17 2.43457e+22)
(1.11134e+22 1.22276e+17 1.37848e+17 1.11149e+22 -1.46053e+16 1.11149e+22)
(4.41416e+21 -1.42259e+17 1.04903e+17 4.41464e+21 2.05779e+15 4.41484e+21)
(2.547e+21 -1.56783e+17 1.06019e+17 2.54704e+21 -3.2679e+16 2.54744e+21)
(1.68378e+21 -6.48659e+16 6.68583e+16 1.68394e+21 -8.23128e+14 1.68417e+21)
(2.18284e+22 3.11543e+17 3.49433e+17 2.18327e+22 4.76921e+17 2.18322e+22)
(4.10624e+22 4.78368e+17 6.95368e+16 4.10639e+22 -9.96682e+16 4.10635e+22)
(8.53423e+21 -1.20847e+17 7.9381e+15 8.53454e+21 -7.97311e+16 8.53471e+21)
(6.16948e+21 1.00417e+15 -2.68379e+15 6.16958e+21 -3.86666e+16 6.16978e+21)
(4.42215e+21 7.64171e+16 5.62463e+16 4.42237e+21 -5.21734e+16 4.42285e+21)
(6.83401e+22 7.35649e+17 -2.87925e+16 6.83389e+22 1.13e+17 6.83391e+22)
(4.73571e+22 2.67723e+17 1.77359e+16 4.7358e+22 -1.62733e+15 4.73583e+22)
(7.15151e+22 -1.49654e+17 9.13979e+16 7.15162e+22 -1.18284e+16 7.15163e+22)
(2.30473e+22 1.70003e+17 4.80378e+17 2.30487e+22 -6.20835e+15 2.30488e+22)
(6.07729e+21 1.68195e+17 1.24486e+17 6.078e+21 -3.37307e+16 6.07824e+21)
)
;

boundaryField
{
    inlet
    {
        type            calculated;
        value           nonuniform 0();
    }
    outlet
    {
        type            calculated;
        value           nonuniform 0();
    }
    bottom
    {
        type            calculated;
        value           nonuniform 0();
    }
    top
    {
        type            symmetryPlane;
    }
    side1
    {
        type            symmetryPlane;
    }
    side2
    {
        type            symmetryPlane;
    }
    procBoundary67to3
    {
        type            processor;
        value           nonuniform List<symmTensor> 
20
(
(-1.00813e+18 -3.64756e+17 1.67129e+18 3.33715e+17 9.8862e+16 1.76999e+17)
(-4.93019e+17 -1.70899e+17 1.20522e+18 9.4792e+16 2.26292e+17 1.02144e+17)
(-2.03271e+17 -4.02103e+16 7.16707e+17 5.11869e+16 -6.19915e+16 1.02904e+17)
(-1.58719e+17 -6.67962e+16 4.05405e+17 -1.19674e+16 -9.60291e+16 1.35736e+17)
(1.03702e+16 -5.10669e+16 3.02524e+17 -5.16596e+16 2.66924e+16 2.14711e+17)
(-1.42039e+17 -4.96152e+17 1.88791e+18 7.32953e+16 1.57007e+17 3.15482e+16)
(-7.95978e+16 -1.85635e+17 1.00012e+18 2.49188e+16 -1.61621e+17 1.31062e+17)
(-8.5885e+16 -1.31088e+17 3.81091e+17 -8.67982e+16 -4.83094e+17 3.33674e+17)
(5.17444e+16 -9.3886e+16 3.96484e+17 -8.89318e+16 -1.14918e+17 5.64654e+16)
(2.95159e+16 -2.76334e+16 2.71131e+17 -3.52114e+16 6.41487e+15 1.75056e+16)
(3.02073e+17 -4.07954e+17 1.44771e+18 -2.12212e+17 9.17607e+15 6.97739e+17)
(1.19379e+17 -2.43573e+17 2.25597e+17 -1.72278e+17 -5.48361e+17 7.54807e+17)
(-2.86512e+17 -1.17784e+17 4.89947e+17 -1.08189e+17 6.61684e+16 4.92793e+15)
(-1.6779e+16 -1.07602e+16 4.52264e+17 -2.4602e+16 8.55024e+16 -1.11556e+17)
(1.71061e+17 1.7266e+16 3.97993e+17 -1.77794e+16 6.8919e+16 -1.07793e+17)
(3.52984e+16 -7.47805e+16 1.31577e+17 -2.81589e+17 3.94566e+17 5.77521e+17)
(2.45283e+17 -9.18812e+16 7.76847e+17 -1.50786e+17 3.32036e+17 -5.07456e+17)
(1.81616e+17 1.34916e+16 9.35331e+17 -3.12077e+16 3.18702e+17 -4.36392e+17)
(2.17803e+17 8.85614e+16 5.07689e+17 3.46022e+16 2.70319e+17 -2.33869e+17)
(2.05792e+17 2.79076e+16 4.43893e+17 4.283e+16 1.66652e+17 -1.89417e+17)
)
;
    }
    procBoundary67to66
    {
        type            processor;
        value           nonuniform List<symmTensor> 8((-1.45141e+18 5.50029e+17 2.04372e+18 3.06967e+17 -3.8633e+17 7.46514e+17) (-1.45695e+18 3.41975e+17 2.39808e+18 2.19685e+17 -4.21992e+17 9.76192e+17) (-5.49702e+17 5.00043e+16 1.61552e+18 5.74471e+13 3.3815e+17 5.8784e+17) (-7.18563e+17 -2.76968e+17 2.07763e+18 2.26221e+17 4.7049e+17 6.60059e+17) (1.29724e+17 1.09019e+17 1.09321e+18 -1.04466e+18 -3.28653e+17 1.16289e+18) (-5.85502e+17 1.90497e+17 3.37672e+17 3.58595e+17 -1.05549e+17 4.06581e+17) (-3.20791e+18 7.74382e+17 6.14734e+17 1.77434e+18 1.55788e+17 8.16029e+17) (-1.90644e+18 -9.96747e+16 9.61455e+17 7.20239e+17 2.16064e+17 3.96342e+17));
    }
    procBoundary67to68
    {
        type            processor;
        value           nonuniform List<symmTensor> 8((-2.01398e+17 -3.50961e+16 3.19492e+17 1.33549e+16 7.12298e+16 2.07236e+17) (-1.21554e+17 -5.51021e+16 4.96531e+17 2.80534e+16 1.34481e+17 1.18338e+17) (-7.88487e+16 1.97908e+16 1.91174e+17 3.21547e+16 -1.03196e+16 6.32121e+16) (-1.6048e+17 -5.71491e+16 2.02044e+17 7.37935e+16 -5.06347e+15 6.2561e+16) (-1.69964e+17 -2.93762e+16 5.07195e+16 4.74779e+16 6.22909e+15 1.00288e+17) (-1.0845e+18 -2.72135e+17 2.19415e+17 8.8244e+16 6.55479e+16 4.74917e+17) (-1.69118e+17 4.37212e+16 6.65145e+16 -5.16732e+16 4.91465e+15 1.97237e+17) (-2.82815e+16 1.72068e+16 5.56329e+15 3.15302e+15 -4.59164e+15 2.47907e+16));
    }
    procBoundary67to83
    {
        type            processor;
        value           nonuniform List<symmTensor> 10((1.13322e+17 2.38923e+16 3.92955e+17 2.87757e+17 1.7303e+17 1.29145e+17) (2.94319e+17 2.63623e+17 7.43183e+17 3.83245e+17 5.95801e+17 -3.06349e+17) (-1.92849e+17 -1.62717e+17 1.23982e+18 4.19462e+17 4.90617e+17 -7.71118e+16) (1.16799e+17 -8.14293e+16 5.90001e+17 1.61988e+17 2.44876e+17 -1.3288e+16) (-1.46295e+17 5.93402e+16 1.2957e+17 5.24037e+16 2.95589e+16 3.68595e+16) (-2.5074e+17 -1.80281e+17 4.87794e+16 2.49494e+16 -3.56237e+16 2.05212e+17) (-1.05782e+18 -1.59415e+17 1.75162e+17 -8.43261e+16 1.23962e+17 5.6948e+17) (-8.30193e+17 -1.32655e+17 2.80421e+17 2.1034e+17 9.42977e+16 2.70864e+17) (-2.11456e+17 -1.24749e+17 8.51729e+16 1.0823e+17 2.29808e+16 7.76631e+16) (-1.69026e+17 -5.4732e+16 1.94818e+16 5.40929e+16 -6.03612e+15 8.08242e+16));
    }
}


// ************************************************************************* //
