/*--------------------------------*- C++ -*----------------------------------*\
| =========                 |                                                 |
| \\      /  F ield         | OpenFOAM: The Open Source CFD Toolbox           |
|  \\    /   O peration     | Version:  2.4.0                                 |
|   \\  /    A nd           | Web:      www.OpenFOAM.org                      |
|    \\/     M anipulation  |                                                 |
\*---------------------------------------------------------------------------*/
FoamFile
{
    version     2.0;
    format      ascii;
    class       surfaceScalarField;
    location    "0.09";
    object      phib;
}
// * * * * * * * * * * * * * * * * * * * * * * * * * * * * * * * * * * * * * //

dimensions      [0 3 -1 0 0 0 0];

internalField   nonuniform List<scalar> 
490
(
-16.6818
0.314348
0.66379
-16.784
-1.69836
-0.464733
-18.2278
-1.80874
-0.308768
-17.9572
-4.44514
-0.689297
-18.6628
-4.71243
-0.585498
-17.8946
-6.10756
-1.37368
-18.487
-6.83429
-0.898172
-18.8829
-6.98256
-1.80178
-19.6317
-7.91003
-1.12369
-7.20921
-2.41341
-20.3285
-0.915778
-2.41706
-22.2484
0.715563
-0.494029
-20.1786
-2.58093
-1.29759
-21.0359
-2.98113
-0.606749
-19.828
-4.3327
-1.58759
-20.1251
-4.96169
-0.848783
-20.5724
-4.7569
-1.6301
-21.2691
-5.37836
-0.907538
-22.6815
-4.29121
-2.20643
-5.17855
-1.49443
-26.6998
3.01943
-2.8987
-21.1193
-1.22641
-3.63862
-21.9345
-0.84079
-0.924943
-19.9029
-2.89245
-2.12019
-20.0524
-3.38644
-0.796797
-20.6774
-2.8799
-1.4568
-21.4111
-3.2621
-0.761121
-22.9684
-1.95235
-1.8687
-23.0946
-2.92045
-1.24456
-0.908336
-2.80356
-17.7077
-8.5022
-16.7757
-2.15849
-14.2124
-3.40405
-16.4637
-0.641115
-18.5721
-1.27806
-20.7006
-0.75141
-22.5059
-1.45682
-23.2663
-1.19195
-24.0441
-2.14268
-1.87384
-9.28586
-0.753626
1.34529
-13.1229
1.01579
-0.416926
-14.7065
-1.08498
-1.10138
-15.621
-3.12168
-1.47472
-16.4292
-4.60493
-1.51041
-17.5869
-5.68998
-1.73846
-18.4468
-5.90851
-2.20598
-19.8548
-6.78264
-2.31747
-20.8568
-6.46482
-3.098
-7.348
-4.01262
-15.6565
4.89599
-0.490906
-16.1658
2.92332
-1.89225
-17.8513
0.823623
-1.52065
-18.4955
-1.46654
-1.61769
-19.6385
-3.31775
-1.73174
-20.4395
-3.6323
-2.10549
-21.5653
-4.43725
-1.97554
-22.9286
-3.5998
-2.72712
-24.4722
-4.28783
-2.83982
-3.23794
-3.73083
-19.5197
3.86058
-4.90082
-20.899
2.87621
-2.21225
-19.6698
0.752176
-2.08266
-20.7091
-0.764066
-1.78339
-21.2947
-1.53285
-1.99609
-21.9627
-2.65938
-1.76173
-23.4097
-1.27143
-2.47991
-24.6382
-2.10869
-2.13127
-26.6421
-0.427979
-3.10051
-0.48676
-3.084
-24.4392
-3.377
-20.0178
-3.70371
-21.2041
-1.4655
-20.6951
-1.91423
-21.8456
-1.66041
-22.9369
-2.31944
-23.6519
-2.01329
-23.8702
-3.08235
-23.4913
-2.94951
-3.97771
-8.92637
-3.1381
0.471439
-12.68
-1.80324
0.618437
-14.4972
-3.65696
-0.848093
-16.7498
-5.21332
-1.06481
-18.8783
-5.51686
-1.38923
-21.4021
-5.70457
-1.34894
-24.6719
-5.83858
-1.73934
-27.1285
-5.41917
-2.01844
-28.046
-5.62171
-3.60877
-7.16464
-4.71926
-11.8238
0.317887
0.648788
-14.7543
0.25487
-1.01983
-17.1066
-1.81628
-1.00906
-19.271
-3.09114
-1.57545
-21.58
-3.3767
-1.56289
-23.8453
-3.55905
-1.98575
-26.8104
-3.0938
-1.75522
-29.9664
-3.116
-1.8743
-33.5194
-2.28931
-2.61925
-2.37131
-4.7468
-15.8521
2.67172
-0.889589
-16.8245
0.705748
-1.69079
-18.5491
-0.509443
-1.66483
-20.9494
-1.12181
-1.35248
-22.6918
-2.01294
-1.6174
-25.06
-1.21062
-1.74198
-27.5692
-1.45016
-1.61434
-30.3962
-0.499798
-1.92052
-33.6542
-0.123769
-2.00805
0.656617
-2.39937
-17.5411
-3.38884
-18.7973
-1.74181
-19.4344
-1.33787
-21.1326
-1.3378
-23.2145
-1.59142
-25.3041
-1.44044
-26.7176
-2.04996
-28.1621
-2.13771
-28.0274
-3.208
-4.0192
-12.401
-5.06026
0.79602
-14.386
-4.82584
0.77864
-17.3597
-5.02431
0.402004
-20.0545
-6.09431
0.133881
-23.8079
-6.78576
-0.305826
-30.3234
-5.65745
-0.171065
-34.9177
-5.04218
-0.961715
-36.2798
-5.02071
-0.776412
-46.364
-7.15892
-2.84841
-8.90392
-1.13149
-14.7723
-3.46097
1.26345
-18.4637
-2.70887
0.554617
-21.169
-3.32813
6.86184e-05
-25.3747
-3.2581
-0.205988
-30.4218
-3.12068
-0.180874
-34.715
-2.50992
-0.840088
-38.5052
-2.54346
-0.46372
-43.1426
-1.61706
-0.640577
-51.0414
-1.15284
-0.726467
-3.28703
-2.32359
-17.2803
-0.7183
0.315562
-20.1401
-1.17877
-0.361147
-23.4644
-1.36393
-0.304705
-26.1732
-1.72183
-0.179979
-29.0181
-1.15923
-0.733885
-31.6096
-1.06164
-0.598803
-34.2347
-0.66036
-0.872354
-36.5605
-0.344687
-0.867107
-38.5397
-0.159375
-1.02228
-0.258429
-1.25557
-20.2642
-0.306843
-22.7356
-0.449142
-26.0564
0.619038
-29.0488
-0.0672391
-31.4574
-0.342107
-33.1298
-0.829698
-34.9686
-0.871459
-36.2441
-1.20694
-37.9796
-1.63186
-2.74346
-14.8723
-4.49292
-16.2413
-4.86413
-17.9502
-5.3428
-20.1461
-5.83158
-23.2715
-6.34696
-25.7097
-6.71681
-29.4208
-8.37942
-40.3498
-9.80496
-49.3488
-10.305
-8.603
-19.9593
-2.74678
-20.24
-4.02885
-21.992
-3.59073
-24.4215
-3.60801
-27.2217
-3.72767
-30.6285
-4.15009
-34.967
-4.50464
-40.1593
-5.25328
-45.6642
-5.52651
-4.97084
-20.3845
-1.94029
-22.8215
-1.95298
-25.1613
-1.55564
-27.9719
-0.977439
-30.8299
-1.6035
-33.9561
-1.62276
-37.4315
-1.90152
-41.608
-1.94389
-45.972
-2.18481
-1.98443
-28.2411
-30.6432
-31.5798
-32.6245
-34.5701
-37.0226
-39.7955
-42.9464
-46.763
)
;

boundaryField
{
    inlet
    {
        type            fixedValue;
        value           nonuniform 0();
    }
    outlet
    {
        type            calculated;
        value           nonuniform 0();
    }
    bottom
    {
        type            fixedValue;
        value           uniform 0;
    }
    top
    {
        type            symmetryPlane;
        value           nonuniform List<scalar> 
40
(
-1.69901e-15
-3.93309e-15
-8.44922e-16
-5.16845e-16
-1.38713e-15
-1.83468e-15
-7.49403e-16
-4.81915e-16
-1.00913e-15
-9.25326e-16
-7.60447e-16
-4.56676e-16
-8.02126e-16
-8.0717e-16
-7.25308e-16
-4.22023e-16
-8.78248e-16
-7.94045e-16
-7.47209e-16
-4.18354e-16
-6.52998e-16
-6.33815e-16
-6.43094e-16
-4.36684e-16
-5.81216e-16
-5.71206e-16
-5.771e-16
-4.39063e-16
-5.25219e-16
-4.92868e-16
-5.21002e-16
-4.33867e-16
-7.20009e-16
-4.37579e-16
-4.79693e-16
-4.2336e-16
-6.16449e-16
-4.15741e-16
-4.41899e-16
-4.11297e-16
)
;
    }
    side1
    {
        type            symmetryPlane;
        value           nonuniform 0();
    }
    side2
    {
        type            symmetryPlane;
        value           uniform 0;
    }
    procBoundary27to19
    {
        type            processor;
        value           nonuniform List<scalar> 
50
(
4.13449
2.2653
3.56126
4.86387
6.00349
6.71306
8.32484
9.1802
9.78257
10.9938
4.08637
2.7734
3.46124
4.82161
6.33806
7.21242
8.0762
8.70638
9.44113
9.66175
5.07415
4.52153
5.22083
7.05599
7.52425
7.83884
8.64173
7.57674
7.04996
12.2585
5.5149
6.65057
6.74796
7.59036
9.45582
10.9951
8.8588
5.14078
16.4828
11.2243
8.14427
7.01181
7.45373
8.1613
9.16659
8.98397
11.1288
19.9576
16.4555
10.1447
)
;
    }
    procBoundary27to26
    {
        type            processor;
        value           nonuniform List<scalar> 
20
(
11.5692
23.9757
25.6633
29.2294
5.27162
8.08072
22.5572
23.1746
7.86417
7.22812
9.48707
20.2247
11.6218
12.5584
13.3325
16.4639
12.0169
19.4766
19.8936
25.994
)
;
    }
    procBoundary27to28
    {
        type            processor;
        value           nonuniform List<scalar> 
20
(
-21.0028
-23.2177
-24.5612
-23.0786
-21.5714
-26.3458
-29.1129
-21.8742
-32.4332
-37.2967
-37.3667
-27.3292
-52.2721
-59.0815
-42.7121
-39.5138
-52.0219
-51.6199
-50.214
-51.4909
)
;
    }
}


// ************************************************************************* //
