/*--------------------------------*- C++ -*----------------------------------*\
| =========                 |                                                 |
| \\      /  F ield         | OpenFOAM: The Open Source CFD Toolbox           |
|  \\    /   O peration     | Version:  2.4.0                                 |
|   \\  /    A nd           | Web:      www.OpenFOAM.org                      |
|    \\/     M anipulation  |                                                 |
\*---------------------------------------------------------------------------*/
FoamFile
{
    version     2.0;
    format      ascii;
    class       volVectorField;
    location    "0.03";
    object      A_Source_unsmoothed;
}
// * * * * * * * * * * * * * * * * * * * * * * * * * * * * * * * * * * * * * //

dimensions      [1 -2 -2 0 0 0 0];

internalField   nonuniform List<vector> 
200
(
(-33472.1 1685.83 -20101.3)
(-0 0 -0)
(-0 0 0)
(-0 0 -0)
(-20074.7 4591.74 -11496)
(-0 0 0)
(-12644.4 -1648.87 5554.36)
(-34733.8 19493 97540.1)
(0 0 0)
(-0 -0 0)
(-0 0 0)
(-15305.3 4253.99 -3211.13)
(0 -0 0)
(-15507.3 5299.98 -4271.96)
(-13561.5 1022.15 153.63)
(-14706 2401.17 -6105.64)
(0 0 0)
(-0 0 0)
(0 0 0)
(0 0 0)
(-0 0 -0)
(0 0 0)
(-0 0 -0)
(0 0 0)
(-15209.3 7020.79 -3571.83)
(0 0 0)
(0 0 0)
(0 0 0)
(-0 0 -0)
(0 0 0)
(0 -0 0)
(0 0 0)
(-0 0 0)
(-0 0 -0)
(-14516.3 3167.81 2800.5)
(0 0 0)
(0 0 0)
(0 0 0)
(-0 0 -0)
(0 -0 0)
(-0 0 -0)
(-0 0 -0)
(-0 -0 0)
(-26480.9 4519.19 -11547.9)
(-0 0 0)
(0 0 0)
(-0 0 -0)
(-86322.7 38065.2 -19032.4)
(0 0 0)
(0 0 0)
(0 0 0)
(0 0 0)
(0 0 0)
(0 0 0)
(-0 -0 0)
(0 0 0)
(0 -0 0)
(-0 0 -0)
(0 0 0)
(0 0 0)
(0 0 0)
(0 0 0)
(0 0 0)
(0 0 0)
(0 0 0)
(-0 0 -0)
(0 0 0)
(-31688.7 29677.5 -11709.2)
(0 0 0)
(-0 0 0)
(-0 0 0)
(0 0 0)
(0 0 0)
(-0 -0 0)
(0 0 0)
(-0 0 0)
(-0 0 0)
(-19041.9 7181.45 -3145.93)
(0 -0 0)
(-0 -0 0)
(-0 -0 -0)
(0 0 0)
(0 0 0)
(0 0 0)
(-17966.5 5809.99 923.971)
(0 0 0)
(0 0 0)
(-36074.3 8001.09 -9583.76)
(0 0 0)
(0 0 0)
(-0 0 -0)
(0 0 0)
(0 0 0)
(-0 -0 0)
(0 0 0)
(0 0 0)
(-0 0 0)
(0 0 0)
(0 0 0)
(-27988 16202.1 -13545.6)
(-0 0 0)
(0 0 0)
(0 0 0)
(0 0 0)
(0 0 0)
(0 0 0)
(0 0 0)
(0 0 0)
(-26044.1 10740.3 -5812.91)
(0 0 0)
(-0 0 0)
(-32775.2 8640.03 -45.2609)
(0 0 0)
(0 0 0)
(-0 0 0)
(0 0 0)
(0 0 0)
(-31570.4 4937.47 531.414)
(0 0 0)
(-0 -0 0)
(0 0 0)
(0 0 0)
(0 0 0)
(0 0 0)
(-0 0 -0)
(0 0 0)
(0 0 0)
(0 0 0)
(0 0 0)
(0 0 0)
(0 0 0)
(0 0 0)
(0 0 0)
(0 0 0)
(0 0 0)
(0 0 0)
(0 0 0)
(0 0 0)
(-0 0 -0)
(0 0 0)
(-0 0 0)
(-0 0 0)
(0 0 0)
(-0 0 0)
(0 0 0)
(-0 0 -0)
(0 0 0)
(0 0 0)
(0 0 0)
(0 0 0)
(0 0 0)
(0 0 0)
(0 0 0)
(0 0 0)
(0 -0 0)
(0 0 0)
(0 0 0)
(0 0 0)
(-52794 1337.9 10570)
(-0 0 -0)
(0 0 0)
(0 0 0)
(0 0 0)
(0 0 0)
(0 0 0)
(0 0 0)
(0 0 0)
(0 0 0)
(0 0 0)
(0 0 0)
(0 0 0)
(0 0 0)
(-0 -0 -0)
(0 0 0)
(0 0 0)
(0 0 0)
(0 0 0)
(0 0 0)
(0 0 0)
(-0 0 0)
(0 0 0)
(0 0 0)
(0 0 0)
(0 0 0)
(0 0 0)
(0 0 0)
(0 0 0)
(0 0 0)
(0 0 0)
(-0 0 -0)
(0 0 0)
(0 0 0)
(0 0 0)
(0 0 0)
(0 0 0)
(0 0 0)
(0 0 0)
(0 0 0)
(0 0 0)
(0 0 0)
)
;

boundaryField
{
    inlet
    {
        type            zeroGradient;
    }
    outlet
    {
        type            zeroGradient;
    }
    bottom
    {
        type            zeroGradient;
    }
    top
    {
        type            symmetryPlane;
    }
    side1
    {
        type            symmetryPlane;
    }
    side2
    {
        type            symmetryPlane;
    }
    procBoundary6to5
    {
        type            processor;
        value           uniform (0 0 0);
    }
    procBoundary6to7
    {
        type            processor;
        value           uniform (0 0 0);
    }
    procBoundary6to14
    {
        type            processor;
        value           uniform (0 0 0);
    }
}


// ************************************************************************* //
