/*--------------------------------*- C++ -*----------------------------------*\
| =========                 |                                                 |
| \\      /  F ield         | OpenFOAM: The Open Source CFD Toolbox           |
|  \\    /   O peration     | Version:  2.4.0                                 |
|   \\  /    A nd           | Web:      www.OpenFOAM.org                      |
|    \\/     M anipulation  |                                                 |
\*---------------------------------------------------------------------------*/
FoamFile
{
    version     2.0;
    format      ascii;
    class       volScalarField;
    location    "0.03";
    object      p;
}
// * * * * * * * * * * * * * * * * * * * * * * * * * * * * * * * * * * * * * //

dimensions      [1 -1 -2 0 0 0 0];

internalField   nonuniform List<scalar> 
200
(
8484.54
8380.34
8143.3
8057.23
8484.2
9069.79
10317.4
14330.7
18934.1
19001.6
8307.03
8053.72
7917.12
7783.75
7735.22
7723.44
7845.23
8546
8147.38
8804.17
8131.59
7895.17
7683.54
7547.21
7442.43
7418.83
7411.78
7603.75
7812.91
8479.38
7953.44
7670.65
7424.11
7236.74
7097.12
7012.05
7014.75
7087.71
7348.06
7641.59
7735.08
6974.16
6508.78
5850.85
5099.47
3132.47
1305.14
-376.806
-4243.95
-2622.32
7528.62
7117.69
6543.49
6101.36
5353.27
4440
2394.98
1638.1
593.483
-868.733
7584.54
7128.26
6761.44
6317.72
5909.38
5373.92
4652.95
4177.37
4027.27
3640.12
7387.63
7001.57
6624.15
6300.43
5964.08
5695.05
5508.7
5332.53
5375.95
5764.48
6169.35
5367.51
2443.6
3386.1
3579.38
3391.77
2508.96
1515.21
674.072
-2522.57
6578.05
5857.84
5247.69
4835.31
4550.98
3914
3336.76
1968.88
1213.39
250.924
7096.57
6657.42
5938.24
5416.61
4883.59
4512.15
4025.62
3436.3
2585.6
2019.69
6938.81
6416.07
5899.83
5408.44
4961.57
4586.92
4359.61
4116.7
3897.12
3665.24
5579.79
5278.28
5037.37
4957.18
4381.96
4071.5
3372.42
2663.4
1921.91
1367.4
6730.04
6201.2
7303.51
6071.63
5004.86
4397.05
3522.35
2884.62
2047.96
1469.34
6711.02
6388.03
5786.49
5133.66
4625.48
4004.1
3563.41
2688.04
2163.35
1425.68
6493.66
5907.96
5388.19
4781.01
4241.09
3759.59
3194.08
2728.96
2203.3
1842.84
7662.58
7731.69
9493.1
7874.02
6768.71
6041
5265.82
4604.08
3863.36
3324.34
7338.34
7636.05
7190.95
6744.36
6353.31
5742.06
5200.07
4181.5
3432.68
2768.47
7472.85
6851.78
6487.19
6186.03
5831.39
5717.82
5886.82
3806.44
2594.13
2071.11
6971.8
6240.71
5754.1
5520.09
4904.51
5238.9
2925.56
1044.35
715.566
761.903
)
;

boundaryField
{
    inlet
    {
        type            zeroGradient;
    }
    outlet
    {
        type            fixedValue;
        value           nonuniform 0();
    }
    bottom
    {
        type            zeroGradient;
    }
    top
    {
        type            symmetryPlane;
    }
    side1
    {
        type            symmetryPlane;
    }
    side2
    {
        type            symmetryPlane;
    }
    procBoundary6to5
    {
        type            processor;
        value           nonuniform List<scalar> 
20
(
8718.13
8586.36
8411.76
8197.72
7878.76
8089.56
7927.49
7810.66
7146.63
7180.3
7457.11
7452.4
7041.86
6944.13
7284.52
7062.86
7855.57
7762.93
7654.66
7771.63
)
;
    }
    procBoundary6to7
    {
        type            processor;
        value           nonuniform List<scalar> 
20
(
10592.4
9450.57
8586.82
7956.42
960.674
1197.64
3680.96
5943.73
-773.432
-341.457
805.476
3427.46
1201.19
835.973
637.801
1373.85
2933.84
2471.33
1413.67
625.303
)
;
    }
    procBoundary6to14
    {
        type            processor;
        value           nonuniform List<scalar> 
50
(
7768.64
7529.13
7227.3
6956.39
6795.07
6650.09
6591.82
6579.9
6646.67
6834.3
7167.51
6782.52
6416.12
6136.77
5877.34
5669.27
5535.62
5495.09
5543.36
5811.44
6726.56
6178.6
5688.84
5179.34
4793.15
4315.22
4123.03
4027.54
3859.03
3964.9
5948.87
5164.47
4509.05
3855.06
3014.29
2623.96
2516.08
4356.17
2975.88
2188.3
6292.04
4791.58
4009.07
3773.33
2766.41
702.537
24.6518
-386.966
-1914.56
-627.996
)
;
    }
}


// ************************************************************************* //
