/*--------------------------------*- C++ -*----------------------------------*\
| =========                 |                                                 |
| \\      /  F ield         | OpenFOAM: The Open Source CFD Toolbox           |
|  \\    /   O peration     | Version:  2.4.0                                 |
|   \\  /    A nd           | Web:      www.OpenFOAM.org                      |
|    \\/     M anipulation  |                                                 |
\*---------------------------------------------------------------------------*/
FoamFile
{
    version     2.0;
    format      ascii;
    class       surfaceScalarField;
    location    "0.03";
    object      phia;
}
// * * * * * * * * * * * * * * * * * * * * * * * * * * * * * * * * * * * * * //

dimensions      [0 3 -1 0 0 0 0];

internalField   nonuniform List<scalar> 
490
(
1.15492e-05
5.5939e-07
-1.32492e-07
1.21453e-05
6.23407e-07
-1.33798e-07
1.33738e-05
-3.78114e-08
-4.78817e-07
1.61097e-05
1.74413e-07
-6.39837e-07
2.07322e-05
3.14238e-07
-1.22597e-06
2.29425e-05
4.1613e-07
-1.48354e-06
1.88257e-05
3.08222e-07
-7.57148e-07
1.06607e-05
5.5316e-07
2.52161e-06
6.31524e-06
3.1315e-07
6.60432e-06
2.26525e-06
6.52392e-06
1.18733e-05
4.41113e-07
-2.34696e-07
1.24171e-05
-6.09819e-08
-2.29944e-07
1.34758e-05
-5.88435e-07
-4.07562e-07
1.60611e-05
1.40332e-07
-5.83807e-07
2.06786e-05
3.10467e-07
-1.11481e-06
2.22067e-05
-8.04861e-07
1.23118e-06
1.93131e-05
-8.00762e-07
-4.6806e-07
1.6799e-05
-9.56368e-07
7.10499e-07
1.13997e-05
-1.7537e-06
9.71955e-07
2.02496e-07
6.10703e-06
1.25082e-05
8.20236e-07
2.8773e-07
1.30676e-05
5.82002e-07
1.23951e-07
1.30297e-05
8.70115e-07
-3.98543e-07
1.2787e-05
1.63102e-06
2.2351e-06
1.12918e-05
1.72351e-06
3.26937e-06
1.26981e-05
-1.17013e-06
6.05738e-06
1.59359e-05
-1.29033e-06
3.92154e-06
1.64716e-05
-1.69188e-06
9.71675e-07
1.64552e-05
-1.7824e-06
8.63813e-07
-8.66236e-08
3.30847e-07
1.20968e-05
9.6638e-07
1.2681e-05
4.57504e-07
1.26821e-05
2.98025e-07
1.26428e-05
-5.30601e-08
1.36464e-05
2.15357e-07
1.45486e-05
4.80748e-07
1.54935e-05
5.26879e-07
1.61701e-05
5.03607e-07
1.91722e-06
3.22069e-07
-2.49784e-07
1.15432e-05
5.64908e-07
1.83224e-08
1.13066e-05
6.25215e-07
-1.32326e-07
1.09142e-05
1.25579e-07
-2.14436e-07
1.05875e-05
6.07744e-07
-2.36406e-07
1.22186e-05
6.34884e-07
-2.28079e-07
1.53471e-05
-7.86215e-07
2.91496e-07
1.6766e-05
-1.03213e-07
1.18399e-06
1.5915e-05
-5.24818e-08
1.03993e-06
1.50909e-05
1.25432e-07
7.43769e-07
4.26516e-07
8.93222e-07
1.17919e-05
6.0057e-07
-1.4003e-07
1.2196e-05
5.55588e-07
-1.11945e-07
1.16876e-05
-5.01374e-07
7.04506e-07
1.05799e-05
-5.11254e-07
6.73911e-07
1.04418e-05
-7.27862e-07
-6.72328e-08
1.38718e-05
-1.93964e-06
5.4104e-06
1.73805e-05
-1.02905e-06
7.66209e-07
1.7478e-05
-3.08362e-08
5.63748e-07
1.5924e-05
-6.09148e-07
-3.82783e-06
1.10041e-06
-1.06406e-06
1.04635e-05
9.88217e-07
8.55058e-07
1.16366e-05
9.25419e-07
9.39773e-07
1.17745e-05
4.08206e-07
7.54676e-07
1.01725e-05
5.05882e-07
3.41437e-06
9.84941e-06
-1.43491e-06
5.08379e-06
9.88014e-06
-1.44195e-06
6.1128e-06
1.34664e-05
-1.45013e-06
6.05144e-06
1.49416e-05
2.61378e-07
5.31909e-07
2.51866e-07
2.62934e-07
-1.51889e-06
1.82186e-06
-2.27534e-06
1.15659e-05
9.78564e-07
1.16943e-05
9.78588e-07
1.23825e-05
9.47348e-07
1.39458e-05
7.97737e-07
1.49549e-05
5.33512e-07
1.46579e-05
5.22896e-07
6.60736e-06
5.34429e-07
-7.16999e-06
3.01031e-07
-1.32104e-05
1.90944e-07
3.16049e-07
1.15438e-05
3.6837e-07
6.05367e-07
1.101e-05
6.37357e-07
4.61517e-07
1.04317e-05
1.38537e-06
6.00875e-07
1.03199e-05
1.50118e-06
6.1571e-07
1.143e-05
2.36081e-06
6.24695e-07
1.46335e-05
-4.47085e-08
7.61168e-07
1.65361e-05
6.72813e-09
1.07812e-06
1.43152e-05
2.44874e-07
-3.71074e-06
1.42251e-05
8.4984e-06
-4.33558e-06
1.0182e-06
-2.0103e-06
1.17953e-05
6.16658e-07
8.41764e-07
1.26779e-05
5.79603e-07
9.92747e-07
1.35061e-05
5.16332e-07
1.91156e-06
1.19016e-05
5.96297e-07
1.9407e-06
1.04108e-05
7.7804e-07
7.01575e-07
1.3625e-05
-1.8317e-06
3.08298e-06
1.65564e-05
-9.16767e-07
-3.92224e-06
-2.09329e-06
2.56604e-07
-4.10272e-06
-5.27945e-06
7.35094e-06
-8.49445e-06
-3.98291e-07
-5.79404e-06
1.12832e-05
9.94846e-07
1.41881e-06
1.26395e-05
9.43488e-07
1.61994e-06
1.3678e-05
7.72523e-07
1.95672e-06
1.27295e-05
7.03071e-07
2.01387e-06
1.081e-05
-7.85871e-07
3.03771e-06
9.88906e-06
-1.44131e-06
4.07876e-06
1.25092e-05
-1.44945e-06
1.82772e-06
1.34827e-05
1.16097e-07
-4.20457e-06
1.38177e-05
-4.85145e-07
-6.09139e-06
-1.23316e-06
-1.83502e-06
1.15652e-05
9.8106e-07
1.12319e-05
1.23078e-06
1.22456e-05
1.43417e-06
1.42641e-05
1.8095e-06
1.49456e-05
1.27719e-06
1.46861e-05
8.73615e-07
1.07692e-05
7.19812e-07
7.55931e-06
7.1526e-07
1.01317e-05
7.91407e-07
9.21166e-07
1.0146e-05
2.30568e-06
1.04825e-06
1.0131e-05
2.3459e-06
1.05185e-06
1.01257e-05
2.36187e-06
1.05132e-06
1.0122e-05
2.39037e-06
1.05035e-06
1.01203e-05
4.10894e-06
1.04962e-06
1.00195e-05
4.25728e-06
1.04939e-06
-5.54944e-06
1.02911e-05
9.62852e-07
-2.13814e-05
1.62879e-05
-4.34738e-06
-1.51492e-05
1.64375e-05
-4.01006e-06
1.28599e-05
-1.60665e-06
1.3543e-05
5.57964e-07
1.8534e-06
1.36423e-05
5.61229e-07
1.99596e-06
1.36134e-05
5.68702e-07
1.9922e-06
1.1907e-05
5.90731e-07
1.98004e-06
9.85673e-06
2.30495e-06
1.07864e-06
-5.98917e-06
2.4483e-06
8.45397e-07
-2.16104e-05
1.17863e-05
-8.52895e-06
-2.1754e-05
1.63631e-05
-8.61894e-06
-2.17352e-05
1.62692e-05
-8.61804e-06
8.6641e-06
-5.05667e-06
1.36493e-05
8.96197e-07
1.98215e-06
1.36945e-05
4.84521e-07
2.00916e-06
1.36946e-05
5.01461e-07
2.00959e-06
1.3693e-05
5.38456e-07
2.01002e-06
1.36691e-05
5.40345e-07
2.00866e-06
6.23135e-06
1.69097e-07
2.03176e-06
-1.11293e-05
3.80885e-06
-2.42535e-06
-2.08369e-05
8.34219e-06
-8.44691e-06
-1.6998e-06
8.23759e-06
-8.32502e-06
6.34348e-07
6.13225e-07
8.62933e-06
9.89097e-07
7.52606e-06
1.48493e-06
1.14573e-05
1.7237e-06
1.36903e-05
2.00924e-06
1.40371e-05
2.00794e-06
1.62226e-05
1.42329e-06
1.81756e-05
9.02302e-07
1.8312e-05
9.14371e-07
1.83496e-05
9.26552e-07
9.36404e-07
1.01419e-05
2.31968e-06
1.01317e-05
2.34454e-06
1.01264e-05
2.36074e-06
1.01222e-05
2.39295e-06
1.01203e-05
4.0953e-06
9.82658e-06
4.26349e-06
3.33758e-06
1.02339e-05
-2.01787e-06
9.29552e-06
-6.93359e-07
8.62927e-06
2.32898e-06
1.36184e-05
5.59987e-07
1.36362e-05
5.63707e-07
1.36026e-05
5.7239e-07
1.19068e-05
5.97913e-07
9.82609e-06
2.29594e-06
-6.01088e-06
2.46779e-06
-2.15902e-05
1.18269e-05
-2.1736e-05
1.63409e-05
-1.39808e-05
1.6221e-05
2.76083e-06
1.36797e-05
8.76076e-07
1.36944e-05
4.7615e-07
1.36946e-05
5.01453e-07
1.36928e-05
5.38445e-07
1.36801e-05
5.40939e-07
6.18849e-06
3.69659e-07
-1.11405e-05
3.87529e-06
-2.07077e-05
8.32593e-06
-2.0366e-06
8.20103e-06
6.56091e-07
8.39704e-06
7.46773e-06
1.14563e-05
1.36889e-05
1.38691e-05
1.60875e-05
1.82021e-05
1.8303e-05
1.83441e-05
)
;

boundaryField
{
    inlet
    {
        type            calculated;
        value           nonuniform 0();
    }
    outlet
    {
        type            calculated;
        value           nonuniform 0();
    }
    bottom
    {
        type            calculated;
        value           uniform 0;
    }
    top
    {
        type            symmetryPlane;
        value           uniform 0;
    }
    side1
    {
        type            symmetryPlane;
        value           uniform 0;
    }
    side2
    {
        type            symmetryPlane;
        value           nonuniform 0();
    }
    procBoundary6to5
    {
        type            processor;
        value           nonuniform List<scalar> 
20
(
-1.10214e-05
-1.09113e-05
-1.17769e-05
-1.0937e-05
-1.11189e-05
-1.21859e-05
-1.16443e-05
-1.0894e-05
-1.15665e-05
-1.21601e-05
-1.17618e-05
-1.1005e-05
-1.08675e-05
-1.29967e-05
-1.30917e-05
-1.09998e-05
-1.0857e-05
-1.30876e-05
-1.31353e-05
-1.08339e-05
)
;
    }
    procBoundary6to7
    {
        type            processor;
        value           nonuniform List<scalar> 
20
(
6.22954e-06
9.1366e-06
1.71002e-05
-3.0626e-06
1.72552e-05
1.58928e-05
-3.10313e-06
-8.57087e-06
1.78508e-05
1.40519e-05
1.7383e-05
1.61218e-05
5.21406e-07
-1.50987e-05
1.68978e-05
1.00217e-05
-2.29621e-07
-3.24325e-06
9.30008e-06
9.90759e-06
)
;
    }
    procBoundary6to14
    {
        type            processor;
        value           nonuniform List<scalar> 
50
(
-1.77236e-07
1.20616e-08
2.35981e-07
2.81668e-06
1.89413e-06
-8.22202e-07
-9.28526e-07
-7.35217e-07
-1.22059e-06
-8.5393e-08
1.15065e-06
1.16165e-06
-8.1492e-10
2.08379e-06
-9.26815e-07
-9.65331e-07
-1.03543e-06
-2.74275e-07
2.63419e-06
1.61344e-06
1.167e-06
8.72427e-07
4.66142e-07
4.45155e-07
-9.23517e-07
-9.6797e-07
-1.03844e-06
-4.66375e-07
1.77515e-06
1.51567e-06
5.65338e-07
1.51381e-07
1.68331e-07
2.42327e-07
2.71776e-07
-4.90998e-07
-3.77823e-07
3.91556e-07
4.0358e-07
3.88002e-07
5.43662e-07
1.43015e-07
1.68335e-07
2.42321e-07
2.72429e-07
-1.34981e-07
-3.35379e-07
4.16117e-07
4.08577e-07
3.92971e-07
)
;
    }
}


// ************************************************************************* //
