/*--------------------------------*- C++ -*----------------------------------*\
| =========                 |                                                 |
| \\      /  F ield         | OpenFOAM: The Open Source CFD Toolbox           |
|  \\    /   O peration     | Version:  2.4.0                                 |
|   \\  /    A nd           | Web:      www.OpenFOAM.org                      |
|    \\/     M anipulation  |                                                 |
\*---------------------------------------------------------------------------*/
FoamFile
{
    version     2.0;
    format      ascii;
    class       Cloud<softParticle>;
    location    "0.04/lagrangian/defaultCloud";
    object      positions;
}
// * * * * * * * * * * * * * * * * * * * * * * * * * * * * * * * * * * * * * //

6
(
(0.049241 0.00172778 0.00233982) 58
(0.0493955 0.000682037 0.00931813) 169
(0.0454354 0.000521807 0.0016528) 2
(0.0482472 0.000758774 0.00478251) 87
(0.0494112 0.0037634 0.0064023) 159
(0.0473358 0.000809149 0.00311558) 45
)


// ************************************************************************* //
