/*--------------------------------*- C++ -*----------------------------------*\
| =========                 |                                                 |
| \\      /  F ield         | OpenFOAM: The Open Source CFD Toolbox           |
|  \\    /   O peration     | Version:  2.4.0                                 |
|   \\  /    A nd           | Web:      www.OpenFOAM.org                      |
|    \\/     M anipulation  |                                                 |
\*---------------------------------------------------------------------------*/
FoamFile
{
    version     2.0;
    format      ascii;
    class       vectorField;
    location    "0.04/lagrangian/defaultCloud";
    object      U;
}
// * * * * * * * * * * * * * * * * * * * * * * * * * * * * * * * * * * * * * //

6((5.75984 -6.36001 -7.66528) (12.8542 -9.19275 28.484) (-6.44236 3.6047 7.25698) (-6.08131 8.63535 -4.29482) (24.5157 0.0680423 -14.3557) (14.8008 -16.0623 20.6958))

// ************************************************************************* //
