/*--------------------------------*- C++ -*----------------------------------*\
| =========                 |                                                 |
| \\      /  F ield         | OpenFOAM: The Open Source CFD Toolbox           |
|  \\    /   O peration     | Version:  2.4.0                                 |
|   \\  /    A nd           | Web:      www.OpenFOAM.org                      |
|    \\/     M anipulation  |                                                 |
\*---------------------------------------------------------------------------*/
FoamFile
{
    version     2.0;
    format      ascii;
    class       volVectorField;
    location    "0.12";
    object      A_Source;
}
// * * * * * * * * * * * * * * * * * * * * * * * * * * * * * * * * * * * * * //

dimensions      [1 -2 -2 0 0 0 0];

internalField   nonuniform List<vector> 
200
(
(2.44704e-93 -3.62044e-93 1.85308e-93)
(1.07659e-95 -1.5895e-95 8.15272e-96)
(4.73195e-98 -6.97175e-98 3.58338e-98)
(2.07794e-100 -3.0551e-100 1.57357e-100)
(9.11698e-103 -1.33762e-102 6.90404e-103)
(3.99679e-105 -5.85173e-105 3.02666e-105)
(1.75078e-107 -2.55797e-107 1.32582e-107)
(7.6635e-110 -1.11733e-109 5.80336e-110)
(3.35208e-112 -4.87708e-112 2.53844e-112)
(1.46521e-114 -2.12733e-114 1.10956e-114)
(1.39451e-94 -2.18548e-94 1.05602e-94)
(6.24149e-97 -9.77145e-97 4.72651e-97)
(2.79e-99 -4.36334e-99 2.11279e-99)
(1.24564e-101 -1.94605e-101 9.43292e-102)
(5.55499e-104 -8.66941e-104 4.20664e-104)
(2.47454e-106 -3.85786e-106 1.87391e-106)
(1.10116e-108 -1.71494e-108 8.3388e-109)
(4.8952e-111 -7.61575e-111 3.707e-111)
(2.17406e-113 -3.37877e-113 1.64636e-113)
(9.6464e-116 -1.4976e-115 7.30495e-116)
(4.1234e-96 -6.58743e-96 3.12254e-96)
(1.87756e-98 -2.99744e-98 1.42182e-98)
(8.53593e-101 -1.36178e-100 6.46403e-101)
(3.87489e-103 -6.17748e-103 2.93435e-103)
(1.7565e-105 -2.79831e-105 1.33015e-105)
(7.95139e-108 -1.26587e-107 6.02137e-108)
(3.59476e-110 -5.71889e-110 2.72221e-110)
(1.62312e-112 -2.58042e-112 1.22915e-112)
(7.31996e-115 -1.16291e-114 5.54321e-115)
(3.29728e-117 -5.23465e-117 2.49694e-117)
(8.31224e-98 -1.34075e-97 6.29463e-98)
(3.84977e-100 -6.20635e-100 2.91532e-100)
(1.7797e-102 -2.86762e-102 1.34772e-102)
(8.21279e-105 -1.32263e-104 6.21932e-105)
(3.78354e-107 -6.09001e-107 2.86517e-107)
(1.7402e-109 -2.79957e-109 1.31781e-109)
(7.99141e-112 -1.28496e-111 6.05168e-112)
(3.66435e-114 -5.88891e-114 2.77492e-114)
(1.67782e-116 -2.69498e-116 1.27057e-116)
(7.67154e-119 -1.23159e-118 5.80945e-119)
(5.54763e-95 -8.19063e-95 4.20107e-95)
(2.48377e-97 -3.65942e-97 1.88089e-97)
(1.11062e-99 -1.63288e-99 8.41039e-100)
(4.96011e-102 -7.27736e-102 3.75616e-102)
(2.21268e-104 -3.2396e-104 1.6756e-104)
(9.85981e-107 -1.44057e-106 7.46657e-107)
(4.38897e-109 -6.39909e-109 3.32365e-109)
(1.95174e-111 -2.83967e-111 1.478e-111)
(8.67085e-114 -1.25892e-113 6.5662e-114)
(3.84852e-116 -5.57598e-116 2.91438e-116)
(3.21628e-96 -5.03528e-96 2.4356e-96)
(1.46447e-98 -2.29031e-98 1.109e-98)
(6.65773e-101 -1.04013e-100 5.04172e-101)
(3.0222e-103 -4.71661e-103 2.28863e-103)
(1.36994e-105 -2.13576e-105 1.03742e-105)
(6.20133e-108 -9.65788e-108 4.6961e-108)
(2.8035e-110 -4.36157e-110 2.12301e-110)
(1.26582e-112 -1.96724e-112 9.58569e-113)
(5.70845e-115 -8.86239e-115 4.32285e-115)
(2.57131e-117 -3.98779e-117 1.94718e-117)
(9.67529e-98 -1.54462e-97 7.32683e-98)
(4.48054e-100 -7.14801e-100 3.39299e-100)
(2.07106e-102 -3.30175e-102 1.56836e-102)
(9.55623e-105 -1.52242e-104 7.23668e-105)
(4.40195e-107 -7.00794e-107 3.33347e-107)
(2.0244e-109 -3.22062e-109 1.53303e-109)
(9.29549e-112 -1.47779e-111 7.03922e-112)
(4.26184e-114 -6.7707e-114 3.22738e-114)
(1.95118e-116 -3.09763e-116 1.47757e-116)
(8.92043e-119 -1.41519e-118 6.7552e-119)
(1.98385e-99 -3.19824e-99 1.50231e-99)
(9.34173e-102 -1.50523e-101 7.07424e-102)
(4.38958e-104 -7.06919e-104 3.32411e-104)
(2.05842e-106 -3.31324e-106 1.55878e-106)
(9.63375e-109 -1.54984e-108 7.29538e-109)
(4.50032e-111 -7.23617e-111 3.40797e-111)
(2.0985e-113 -3.37246e-113 1.58914e-113)
(9.76836e-116 -1.56903e-115 7.39732e-116)
(4.53952e-118 -7.28774e-118 3.43766e-118)
(2.10616e-120 -3.37946e-120 1.59494e-120)
(6.45031e-97 -9.50328e-97 4.88465e-97)
(2.93834e-99 -4.32003e-99 2.22513e-99)
(1.33642e-101 -1.96074e-101 1.01204e-101)
(6.06929e-104 -8.88596e-104 4.59611e-104)
(2.7524e-106 -4.02133e-106 2.08432e-106)
(1.2465e-108 -1.81736e-108 9.43942e-109)
(5.63775e-111 -8.20248e-111 4.26932e-111)
(2.54668e-113 -3.69746e-113 1.92853e-113)
(1.149e-115 -1.66472e-115 8.70105e-116)
(5.1779e-118 -7.48627e-118 3.92109e-118)
(3.80375e-98 -5.94871e-98 2.88047e-98)
(1.76167e-100 -2.75221e-100 1.33407e-100)
(8.14395e-103 -1.27098e-102 6.16719e-103)
(3.75817e-105 -5.85901e-105 2.84596e-105)
(1.73134e-107 -2.69635e-107 1.3111e-107)
(7.9631e-110 -1.23886e-109 6.03024e-110)
(3.65684e-112 -5.68316e-112 2.76922e-112)
(1.67679e-114 -2.6032e-114 1.26979e-114)
(7.67761e-117 -1.1907e-116 5.81404e-117)
(3.51045e-119 -5.43855e-119 2.65837e-119)
(1.16393e-99 -1.85685e-99 8.81409e-100)
(5.4809e-102 -8.73779e-102 4.15054e-102)
(2.57547e-104 -4.10301e-104 1.95033e-104)
(1.20775e-106 -1.92273e-106 9.14594e-107)
(5.65259e-109 -8.99265e-109 4.28056e-109)
(2.64062e-111 -4.198e-111 1.99967e-111)
(1.23135e-113 -1.95621e-113 9.32467e-114)
(5.73197e-116 -9.09986e-116 4.34067e-116)
(2.66381e-118 -4.22601e-118 2.01723e-118)
(1.23593e-120 -1.95938e-120 9.35938e-121)
(2.42707e-101 -3.9107e-101 1.83795e-101)
(1.16182e-103 -1.87105e-103 8.79817e-104)
(5.54828e-106 -8.93051e-106 4.20156e-106)
(2.64351e-108 -4.25276e-108 2.00186e-108)
(1.25674e-110 -2.02073e-110 9.51695e-111)
(5.96199e-113 -9.58137e-113 4.51486e-113)
(2.82262e-115 -4.53379e-115 2.1375e-115)
(1.33371e-117 -2.14114e-117 1.00999e-117)
(6.29003e-120 -1.00927e-119 4.76327e-120)
(2.96102e-122 -4.74863e-122 2.2423e-122)
(5.0983e-99 -7.49549e-99 3.86081e-99)
(2.36238e-101 -3.46589e-101 1.78896e-101)
(1.09262e-103 -1.59966e-103 8.27413e-104)
(5.04455e-106 -7.37004e-106 3.8201e-106)
(2.32509e-108 -3.38983e-108 1.76073e-108)
(1.06992e-110 -1.55662e-110 8.10221e-111)
(4.91572e-113 -7.13687e-113 3.72254e-113)
(2.25513e-115 -3.26727e-115 1.70775e-115)
(1.03308e-117 -1.49361e-117 7.82321e-118)
(4.72589e-120 -6.81832e-120 3.57879e-120)
(3.05719e-100 -4.77612e-100 2.31513e-100)
(1.43983e-102 -2.24704e-102 1.09035e-102)
(6.76673e-105 -1.05493e-104 5.12426e-105)
(3.17366e-107 -4.94254e-107 2.40333e-107)
(1.48558e-109 -2.31116e-109 1.12499e-109)
(6.9409e-112 -1.07869e-111 5.25615e-112)
(3.23708e-114 -5.0255e-114 2.45135e-114)
(1.50709e-116 -2.33728e-116 1.14128e-116)
(7.0049e-119 -1.08522e-118 5.30462e-119)
(3.25055e-121 -5.03058e-121 2.46156e-121)
(9.51318e-102 -1.5166e-101 7.20407e-102)
(4.55414e-104 -7.25521e-104 3.44873e-104)
(2.17495e-106 -3.46249e-106 1.64703e-106)
(1.03632e-108 -1.64866e-108 7.84779e-109)
(4.92702e-111 -7.83283e-111 3.7311e-111)
(2.33752e-113 -3.71352e-113 1.77014e-113)
(1.10673e-115 -1.75699e-115 8.38097e-116)
(5.2297e-118 -8.29663e-118 3.96031e-118)
(2.46656e-120 -3.91033e-120 1.86786e-120)
(1.1612e-122 -1.83961e-122 8.79344e-123)
(2.01691e-103 -3.2481e-103 1.52735e-103)
(9.81249e-106 -1.57941e-105 7.43074e-106)
(4.76126e-108 -7.65968e-108 3.60557e-108)
(2.30441e-110 -3.70528e-110 1.74507e-110)
(1.11259e-112 -1.78801e-112 8.42535e-113)
(5.35908e-115 -8.60789e-115 4.05829e-115)
(2.5755e-117 -4.13467e-117 1.95036e-117)
(1.23505e-119 -1.9817e-119 9.35273e-120)
(5.91012e-122 -9.47809e-122 4.47558e-122)
(2.82238e-124 -4.5239e-124 2.13731e-124)
(3.09247e-101 -4.53687e-101 2.31894e-101)
(1.45729e-103 -2.13348e-103 1.0926e-103)
(6.85274e-106 -1.00115e-105 5.13697e-106)
(3.21587e-108 -4.68838e-108 2.4103e-108)
(1.50621e-110 -2.1913e-110 1.12872e-110)
(7.04141e-113 -1.02227e-112 5.27581e-113)
(3.28588e-115 -4.76047e-115 2.46156e-115)
(1.53071e-117 -2.213e-117 1.14652e-117)
(7.11883e-120 -1.02704e-119 5.3312e-120)
(3.30536e-122 -4.75871e-122 2.47494e-122)
(1.8853e-102 -2.9422e-102 1.4135e-102)
(9.02747e-105 -1.40735e-104 6.76721e-105)
(4.31233e-107 -6.71573e-107 3.2321e-107)
(2.05524e-109 -3.19734e-109 1.54015e-109)
(9.77362e-112 -1.5189e-111 7.32296e-112)
(4.638e-114 -7.20027e-114 3.47449e-114)
(2.19645e-116 -3.40631e-116 1.64517e-116)
(1.03815e-118 -1.60831e-118 7.77463e-119)
(4.89757e-121 -7.5794e-121 3.66715e-121)
(2.30622e-123 -3.56533e-123 1.72654e-123)
(5.96472e-104 -9.5023e-104 4.47131e-104)
(2.90234e-106 -4.62045e-106 2.17531e-106)
(1.4085e-108 -2.24073e-108 1.0555e-108)
(6.81804e-111 -1.0839e-110 5.10847e-111)
(3.29232e-113 -5.23031e-113 2.46639e-113)
(1.58607e-115 -2.51794e-115 1.18799e-115)
(7.62361e-118 -1.20943e-117 5.70925e-118)
(3.65638e-120 -5.79653e-120 2.73778e-120)
(1.74996e-122 -2.77231e-122 1.3101e-122)
(8.35826e-125 -1.3232e-124 6.25635e-125)
(1.28551e-105 -2.06913e-105 9.63492e-106)
(6.35524e-108 -1.02239e-107 4.76249e-108)
(3.13278e-110 -5.03717e-110 2.34725e-110)
(1.53999e-112 -2.47484e-112 1.15366e-112)
(7.5499e-115 -1.21267e-114 5.65497e-115)
(3.69186e-117 -5.92681e-117 2.7648e-117)
(1.80082e-119 -2.88948e-119 1.3484e-119)
(8.76306e-122 -1.40532e-121 6.56042e-122)
(4.25438e-124 -6.81914e-124 3.1845e-124)
(2.06081e-126 -3.30145e-126 1.54231e-126)
)
;

boundaryField
{
    inlet
    {
        type            zeroGradient;
    }
    outlet
    {
        type            zeroGradient;
    }
    bottom
    {
        type            zeroGradient;
    }
    top
    {
        type            symmetryPlane;
    }
    side1
    {
        type            symmetryPlane;
    }
    side2
    {
        type            symmetryPlane;
    }
    procBoundary5to4
    {
        type            processor;
        value           nonuniform List<vector> 
20
(
(9.98654e-91 -1.48015e-90 7.56254e-91)
(5.60733e-92 -8.79564e-92 4.24628e-92)
(1.63355e-93 -2.61128e-93 1.23705e-93)
(3.24498e-95 -5.23644e-95 2.45734e-95)
(2.23014e-92 -3.29849e-92 1.68883e-92)
(1.27422e-93 -1.99665e-93 9.64933e-94)
(3.77747e-95 -6.03417e-95 2.86058e-95)
(7.63416e-97 -1.23128e-96 5.78114e-97)
(2.55454e-94 -3.77034e-94 1.93449e-94)
(1.48495e-95 -2.32441e-95 1.12452e-95)
(4.4789e-97 -7.14962e-97 3.39175e-97)
(9.20746e-99 -1.48425e-98 6.97256e-99)
(1.98956e-96 -2.93026e-96 1.50664e-96)
(1.17631e-97 -1.83934e-97 8.90787e-98)
(3.60882e-99 -5.75666e-99 2.73286e-99)
(7.54448e-101 -1.21553e-100 5.71323e-101)
(1.18932e-98 -1.74794e-98 8.91954e-99)
(7.1505e-100 -1.11691e-99 5.36182e-100)
(2.2309e-101 -3.55613e-101 1.67257e-101)
(4.74196e-103 -7.63599e-103 3.55461e-103)
)
;
    }
    procBoundary5to6
    {
        type            processor;
        value           nonuniform List<vector> 
20
(
(2.43298e-117 -3.5272e-117 1.84243e-117)
(1.61863e-118 -2.51107e-118 1.22575e-118)
(5.59145e-120 -8.8724e-120 4.23425e-120)
(1.31461e-121 -2.10969e-121 9.9552e-122)
(6.45908e-119 -9.34445e-119 4.89129e-119)
(4.36025e-120 -6.7572e-120 3.3019e-120)
(1.5285e-121 -2.42371e-121 1.15749e-121)
(3.64635e-123 -5.8486e-123 2.76128e-123)
(8.78306e-121 -1.26798e-120 6.65117e-121)
(6.01553e-122 -9.3126e-122 4.5554e-122)
(2.13978e-123 -3.3906e-123 1.6204e-123)
(5.17898e-125 -8.3025e-125 3.9219e-125)
(8.10101e-123 -1.16704e-122 6.13468e-123)
(5.62823e-124 -8.70381e-124 4.26211e-124)
(2.03108e-125 -3.21609e-125 1.53808e-125)
(4.98664e-127 -7.98993e-127 3.77625e-127)
(5.72542e-125 -8.23057e-125 4.2865e-125)
(4.03451e-126 -6.23254e-126 3.02006e-126)
(1.47691e-127 -2.33694e-127 1.10537e-127)
(3.67785e-129 -5.88976e-129 2.75218e-129)
)
;
    }
    procBoundary5to13
    {
        type            processor;
        value           nonuniform List<vector> 
50
(
(2.36309e-100 -3.83623e-100 1.7895e-100)
(1.09415e-102 -1.77551e-102 8.28573e-103)
(5.12403e-105 -8.31072e-105 3.88029e-105)
(2.42201e-107 -3.92607e-107 1.83413e-107)
(1.15311e-109 -1.86804e-109 8.73219e-110)
(5.51889e-112 -8.93489e-112 4.17931e-112)
(2.6508e-114 -4.28874e-114 2.00738e-114)
(1.2759e-116 -2.06293e-116 9.66205e-117)
(6.14696e-119 -9.93216e-119 4.65493e-119)
(2.96136e-121 -4.78184e-121 2.24256e-121)
(5.67871e-102 -9.21502e-102 4.30033e-102)
(2.67296e-104 -4.33569e-104 2.02416e-104)
(1.27232e-106 -2.06273e-106 9.63491e-107)
(6.11155e-109 -9.90266e-109 4.62811e-109)
(2.95631e-111 -4.78721e-111 2.23873e-111)
(1.43728e-113 -2.32592e-113 1.08842e-113)
(7.01105e-116 -1.13383e-115 5.30928e-116)
(3.42641e-118 -5.53755e-118 2.59473e-118)
(1.67571e-120 -2.7064e-120 1.26897e-120)
(8.19304e-123 -1.32238e-122 6.20437e-123)
(6.99499e-104 -1.13463e-103 5.29711e-104)
(3.34665e-106 -5.4262e-106 2.53433e-106)
(1.61892e-108 -2.62357e-108 1.22596e-108)
(7.90164e-111 -1.27978e-110 5.9837e-111)
(3.88301e-113 -6.28517e-113 2.9405e-113)
(1.91746e-115 -3.10165e-115 1.45204e-115)
(9.49811e-118 -1.53538e-117 7.19266e-118)
(4.71269e-120 -7.613e-120 3.56879e-120)
(2.3394e-122 -3.77663e-122 1.77157e-122)
(1.16073e-124 -1.87261e-124 8.78988e-125)
(5.85223e-106 -9.48873e-106 4.43174e-106)
(2.84527e-108 -4.61137e-108 2.15465e-108)
(1.39847e-110 -2.26537e-110 1.05902e-110)
(6.93402e-113 -1.12259e-112 5.25095e-113)
(3.46097e-115 -5.59965e-115 2.6209e-115)
(1.73552e-117 -2.80614e-117 1.31426e-117)
(8.72822e-120 -1.41031e-119 6.60964e-120)
(4.39591e-122 -7.09814e-122 3.3289e-122)
(2.21453e-124 -3.57345e-124 1.677e-124)
(1.11483e-126 -1.79775e-126 8.4423e-127)
(3.7551e-108 -6.08592e-108 2.81426e-108)
(1.85495e-110 -3.00508e-110 1.38996e-110)
(9.26201e-113 -1.49971e-112 6.93915e-113)
(4.66459e-115 -7.54856e-115 3.49416e-115)
(2.36442e-117 -3.82386e-117 1.77085e-117)
(1.20385e-119 -1.94565e-119 9.01485e-120)
(6.14607e-122 -9.92647e-122 4.60162e-122)
(3.14165e-124 -5.07063e-124 2.35179e-124)
(1.60597e-126 -2.5903e-126 1.202e-126)
(8.20196e-129 -1.32204e-128 6.13781e-129)
)
;
    }
}


// ************************************************************************* //
