/*--------------------------------*- C++ -*----------------------------------*\
| =========                 |                                                 |
| \\      /  F ield         | OpenFOAM: The Open Source CFD Toolbox           |
|  \\    /   O peration     | Version:  2.4.0                                 |
|   \\  /    A nd           | Web:      www.OpenFOAM.org                      |
|    \\/     M anipulation  |                                                 |
\*---------------------------------------------------------------------------*/
FoamFile
{
    version     2.0;
    format      ascii;
    class       volSymmTensorField;
    location    "0.12";
    object      B;
}
// * * * * * * * * * * * * * * * * * * * * * * * * * * * * * * * * * * * * * //

dimensions      [0 2 -2 0 0 0 0];

internalField   nonuniform List<symmTensor> 
200
(
(1.4265e+21 -2.59808e+18 7.74629e+19 1.34055e+21 -1.57043e+19 1.40883e+21)
(1.14935e+21 -1.19761e+19 6.79207e+19 1.05315e+21 -3.36309e+19 1.20931e+21)
(3.58283e+20 -1.5807e+18 2.15932e+19 2.43124e+20 -4.26521e+18 4.00745e+20)
(5.50691e+20 -2.1165e+19 6.85893e+19 3.88791e+20 6.72204e+18 5.16591e+20)
(8.82193e+20 -2.04859e+19 1.39832e+20 6.9001e+20 6.34414e+18 8.2963e+20)
(1.15008e+21 -1.22309e+19 5.91332e+19 1.06654e+21 -1.37717e+19 1.13391e+21)
(1.71125e+21 -2.34749e+19 1.88089e+20 1.3643e+21 2.54218e+18 1.60022e+21)
(2.80234e+21 -4.68748e+19 1.65367e+20 2.41074e+21 -5.68542e+19 2.69602e+21)
(3.48457e+21 3.37339e+18 2.34146e+20 2.98594e+21 -4.75375e+19 3.34177e+21)
(5.70434e+21 -2.75665e+19 4.15713e+20 5.20285e+21 -8.02415e+19 5.67267e+21)
(6.73824e+20 -1.62614e+19 1.11266e+20 5.76402e+20 -6.70096e+19 6.48339e+20)
(1.14673e+21 3.50572e+19 8.14624e+19 1.05105e+21 -6.95899e+19 1.14934e+21)
(1.0409e+21 5.54762e+19 6.83899e+19 9.39822e+20 -3.2012e+19 1.06395e+21)
(1.49821e+21 7.58238e+19 8.12782e+19 1.28997e+21 -1.3678e+19 1.50067e+21)
(1.65975e+21 1.09142e+20 9.53732e+19 1.46828e+21 7.36906e+18 1.63742e+21)
(1.60736e+21 5.57693e+19 1.74304e+20 1.44233e+21 -4.83931e+19 1.56182e+21)
(2.28365e+21 -2.26117e+19 8.64575e+19 2.16492e+21 -3.32914e+19 2.26921e+21)
(3.86323e+21 3.31632e+19 2.01185e+20 3.33823e+21 -1.39275e+20 3.67023e+21)
(7.57845e+21 7.44319e+19 2.47463e+20 7.25136e+21 -1.11812e+20 7.49957e+21)
(5.10183e+21 -1.7837e+19 1.8971e+20 4.93869e+21 -8.45247e+19 5.05647e+21)
(1.94043e+21 -1.03836e+19 7.08446e+19 1.85711e+21 -3.81624e+19 1.86097e+21)
(3.81564e+21 -3.22208e+19 1.62972e+20 3.6418e+21 -9.27367e+19 3.65481e+21)
(4.33185e+21 -2.04344e+18 1.65993e+20 4.12904e+21 -7.63578e+19 4.23274e+21)
(4.54368e+21 -1.32098e+18 1.70607e+20 4.3201e+21 -7.40245e+19 4.48036e+21)
(1.76003e+21 2.05487e+19 9.89555e+19 1.67445e+21 -5.43808e+19 1.79046e+21)
(6.05007e+20 -2.81716e+18 1.0332e+20 5.5004e+20 -3.57043e+19 6.53799e+20)
(5.78282e+21 -9.55274e+19 1.38023e+20 5.57449e+21 -4.88367e+19 5.6542e+21)
(6.24699e+21 -5.40125e+19 1.91006e+20 6.16818e+21 -1.22805e+20 6.27133e+21)
(1.70405e+21 3.46457e+19 3.01561e+20 2.0132e+21 -2.12216e+20 2.07035e+21)
(3.15358e+21 -1.05337e+20 3.83882e+20 3.39372e+21 -1.36489e+20 3.45656e+21)
(5.3866e+20 -5.10339e+19 2.73325e+19 5.47139e+20 -3.082e+19 5.3769e+20)
(3.17581e+21 -1.20494e+20 4.87319e+19 3.12116e+21 -5.37347e+19 3.10175e+21)
(4.95008e+21 -1.45747e+20 8.69507e+19 4.84751e+21 -8.48978e+19 4.86217e+21)
(1.45776e+21 -7.25077e+19 6.27977e+19 1.48634e+21 -8.93265e+19 1.51799e+21)
(1.39188e+21 -7.97897e+19 5.00401e+19 1.4071e+21 -9.1435e+19 1.42541e+21)
(2.76771e+21 -2.15792e+20 9.06165e+19 2.47836e+21 -1.29655e+20 2.67892e+21)
(2.0762e+21 -1.02804e+20 4.1808e+19 2.02526e+21 -8.70352e+19 2.08886e+21)
(2.97382e+21 -9.69576e+19 6.46177e+19 3.06038e+21 -1.51236e+20 3.01423e+21)
(1.421e+21 -8.33354e+19 1.235e+20 1.42865e+21 -1.47367e+20 1.39357e+21)
(3.53711e+21 -2.55556e+20 1.52678e+20 3.4552e+21 -1.37292e+20 3.46045e+21)
(1.00121e+21 -5.70938e+19 1.06708e+20 7.22566e+20 -2.11659e+19 9.20192e+20)
(1.45315e+21 9.46355e+18 3.27156e+19 1.31202e+21 -2.46536e+19 1.45903e+21)
(3.89066e+20 4.85538e+19 -6.78205e+19 2.60906e+20 -8.26755e+18 3.68078e+20)
(2.04763e+20 3.34301e+19 -6.34778e+19 1.41654e+20 3.59842e+19 2.08208e+20)
(5.93024e+19 2.05219e+19 -4.03936e+18 2.63416e+19 1.44527e+19 7.94487e+19)
(3.24154e+20 3.90418e+19 9.9447e+18 1.79279e+20 3.69919e+18 2.85095e+20)
(4.52123e+20 7.35457e+18 3.28917e+18 3.31356e+20 7.07305e+18 4.30155e+20)
(1.09308e+21 1.11581e+19 1.20199e+19 8.35375e+20 1.36209e+19 1.01474e+21)
(3.06883e+21 8.32673e+19 5.78499e+19 2.7427e+21 5.16835e+19 2.97589e+21)
(2.61828e+21 5.93576e+19 4.80976e+19 2.2603e+21 -1.67431e+19 2.45805e+21)
(2.34185e+20 5.5726e+18 8.18812e+18 1.77587e+20 -1.45466e+19 2.11221e+20)
(6.94876e+20 6.2397e+18 9.44397e+19 4.69132e+20 -9.92403e+19 6.1448e+20)
(1.73844e+21 4.63954e+19 6.16834e+19 1.52403e+21 -3.21049e+19 1.66006e+21)
(2.23524e+21 7.10169e+19 9.21684e+18 1.95146e+21 1.98867e+19 2.09739e+21)
(1.37502e+21 1.52453e+19 -6.83691e+19 1.06879e+21 1.50279e+19 1.20109e+21)
(8.63292e+20 -5.12886e+18 1.32349e+19 7.2806e+20 -1.98239e+19 8.16896e+20)
(1.11014e+21 -7.31411e+18 2.0551e+19 9.98745e+20 -2.6225e+19 1.03883e+21)
(4.57307e+21 9.30471e+19 9.82888e+19 4.06167e+21 5.17153e+19 4.37787e+21)
(1.22616e+21 2.76603e+19 -1.50194e+18 1.11803e+21 1.68168e+18 1.20837e+21)
(3.17896e+20 1.74513e+20 5.50556e+19 2.34246e+20 -3.67184e+17 6.6826e+20)
(3.54576e+20 -3.31559e+19 -2.18959e+19 2.98062e+20 -2.18239e+19 3.26815e+20)
(2.38624e+20 -1.93952e+19 1.84272e+18 1.84862e+20 -1.6833e+19 2.06468e+20)
(8.33365e+20 -3.13974e+19 3.15231e+19 6.83956e+20 -3.77229e+19 7.36377e+20)
(4.70766e+20 -2.14298e+19 1.12307e+19 3.4515e+20 -1.73402e+19 3.97593e+20)
(1.50621e+21 -1.464e+19 -3.59227e+19 1.3129e+21 -8.18388e+18 1.38822e+21)
(3.35745e+21 -2.30564e+19 -6.72088e+19 3.15639e+21 -3.20635e+19 3.16853e+21)
(7.84655e+21 -7.33783e+19 1.25101e+19 7.72089e+21 -7.84394e+18 7.75903e+21)
(3.90361e+21 -1.89728e+20 2.96141e+19 3.76287e+21 2.96636e+18 3.82885e+21)
(-9.70482e+19 2.04045e+19 -6.1618e+19 4.3109e+20 -1.30268e+20 6.0417e+20)
(2.50369e+20 -2.2118e+19 4.17775e+18 3.65042e+20 -2.65219e+19 3.77434e+20)
(4.62151e+20 -3.10717e+19 -1.45645e+18 4.59322e+20 -2.47006e+18 4.59608e+20)
(4.72003e+20 -8.26305e+19 1.03584e+18 4.74129e+20 7.334e+18 4.79213e+20)
(2.61729e+20 -3.74954e+19 4.28956e+18 2.51012e+20 8.16747e+18 2.62123e+20)
(2.79482e+20 -5.50934e+19 2.18119e+18 2.48535e+20 1.14165e+19 2.56823e+20)
(3.69601e+20 -8.58033e+19 1.89726e+18 2.91939e+20 -2.65487e+19 2.835e+20)
(3.94307e+21 -1.39306e+20 -3.7748e+18 3.85212e+21 -1.40996e+19 3.85569e+21)
(3.6676e+21 -4.11387e+20 7.28816e+18 3.41318e+21 6.64043e+19 3.56221e+21)
(9.91106e+20 -4.0321e+19 -1.73491e+18 1.07055e+21 -2.40736e+18 1.02951e+21)
(8.39084e+20 -2.44151e+19 -1.88202e+17 9.89121e+20 -4.09323e+19 8.85832e+20)
(1.33154e+21 -1.91496e+20 8.61148e+19 1.20313e+21 -7.43437e+19 1.25193e+21)
(1.77163e+21 -1.57546e+19 7.95946e+19 1.73321e+21 -1.40214e+19 1.80552e+21)
(5.1379e+21 1.91837e+19 7.21744e+18 5.0769e+21 -5.61408e+19 5.54536e+21)
(1.15993e+21 6.78867e+19 -2.39576e+20 1.0891e+21 6.52789e+19 1.0737e+21)
(5.55108e+20 -3.40225e+18 -1.37156e+19 4.18417e+20 3.44119e+19 4.12544e+20)
(4.97196e+20 -6.35009e+18 2.45889e+19 4.14483e+20 -1.73737e+17 4.62988e+20)
(7.55703e+20 -6.17523e+18 2.56054e+19 6.44157e+20 6.76966e+18 7.25698e+20)
(1.20614e+21 4.30879e+17 3.15846e+19 1.02569e+21 -8.376e+18 1.13891e+21)
(1.61171e+21 2.52867e+19 7.88832e+19 1.39154e+21 3.2248e+19 1.53977e+21)
(1.15898e+21 7.6131e+17 1.78588e+19 1.01543e+21 4.5264e+18 1.08787e+21)
(2.27494e+21 3.5167e+18 1.61999e+20 1.22622e+21 1.21083e+20 1.53118e+21)
(5.58997e+20 -8.44505e+18 2.1657e+19 4.36959e+20 -3.78672e+19 5.28859e+20)
(1.51043e+21 3.53319e+19 4.41761e+19 1.43933e+21 -6.37103e+19 1.49668e+21)
(1.37532e+21 1.39539e+20 2.26373e+19 1.14976e+21 -3.2372e+18 1.34864e+21)
(5.51977e+20 3.30817e+19 -1.17644e+20 3.71846e+20 2.31069e+19 4.7075e+20)
(1.50141e+20 -4.7348e+19 -2.39566e+19 4.11059e+19 1.45525e+19 1.08992e+20)
(4.59393e+20 1.42006e+19 1.28778e+19 3.16605e+20 -1.341e+19 4.16549e+20)
(9.58103e+20 5.33116e+19 5.12154e+19 7.14256e+20 -4.1626e+19 8.41282e+20)
(1.43807e+21 -7.02642e+16 3.24082e+19 1.2368e+21 2.00983e+18 1.33692e+21)
(1.51586e+21 3.33357e+19 2.64751e+19 1.1231e+21 5.57291e+19 1.22967e+21)
(2.52716e+21 2.96889e+18 3.38081e+18 2.35013e+21 2.15391e+19 2.44986e+21)
(8.878e+20 4.68365e+18 -1.19307e+19 8.28785e+20 -4.77089e+18 8.64746e+20)
(5.40917e+20 9.16754e+18 3.03955e+18 4.87471e+20 -1.79356e+19 5.25656e+20)
(3.78975e+20 2.48085e+19 2.05377e+19 3.03052e+20 -2.97876e+19 3.69209e+20)
(7.54535e+20 6.41105e+18 1.71948e+19 6.1253e+20 -1.84272e+19 7.08587e+20)
(2.72183e+21 -6.74795e+19 -3.27609e+19 2.47933e+21 -8.24973e+18 2.57792e+21)
(5.92575e+20 -3.04413e+19 -5.41345e+19 5.16967e+20 -3.84581e+19 5.77427e+20)
(1.98739e+20 -1.0825e+19 -2.68331e+18 1.73681e+20 -5.0029e+19 2.6214e+20)
(5.46447e+20 -5.34067e+19 4.78838e+19 4.41475e+20 8.4566e+19 3.59355e+20)
(5.76033e+20 -6.95605e+19 5.0199e+19 4.90899e+20 7.26325e+17 5.71318e+20)
(3.63297e+20 -1.41007e+20 8.93933e+19 2.0686e+20 -8.37171e+19 3.6428e+20)
(7.65642e+19 3.75908e+18 -8.43159e+18 9.01705e+19 -1.45075e+18 9.20402e+19)
(5.84611e+19 -1.42633e+19 -3.48779e+18 9.6324e+19 5.86319e+18 9.45206e+19)
(1.5816e+20 -3.0532e+19 2.37363e+18 1.90322e+20 -3.48933e+18 1.89469e+20)
(6.52971e+20 -5.75615e+19 5.87717e+17 6.27997e+20 -7.4187e+18 6.38795e+20)
(2.45779e+21 -1.16834e+20 -2.22706e+19 2.39945e+21 -2.84925e+19 2.43126e+21)
(4.1642e+20 -3.581e+19 -1.0144e+19 3.8954e+20 -1.14679e+19 4.14691e+20)
(6.22381e+20 -4.01972e+18 -1.92326e+19 5.48433e+20 9.82061e+19 4.93762e+20)
(2.90877e+21 -1.42045e+20 4.76433e+19 2.80794e+21 2.60694e+19 2.81089e+21)
(1.44497e+21 -2.11276e+20 7.42122e+19 1.31912e+21 -2.53586e+19 1.35991e+21)
(1.71891e+21 -1.70145e+20 9.72356e+19 1.54607e+21 -7.70849e+19 1.70099e+21)
(2.58092e+22 6.66255e+19 5.1203e+20 2.55014e+22 -1.42858e+19 2.5632e+22)
(5.45035e+21 2.35532e+19 -4.63188e+19 5.29011e+21 -1.63057e+20 5.31213e+21)
(5.87656e+21 -7.41261e+19 -4.07316e+20 6.02729e+21 1.84123e+20 5.8182e+21)
(9.79966e+20 -6.68855e+19 9.58185e+19 9.10605e+20 1.53491e+19 6.78424e+20)
(2.35328e+21 -2.28027e+19 8.44931e+19 2.29144e+21 -1.1353e+19 2.31108e+21)
(9.77561e+20 -1.26201e+19 4.47616e+19 9.25929e+20 -7.58508e+18 9.5477e+20)
(1.10102e+21 1.51194e+19 6.35817e+19 1.02052e+21 5.32615e+17 1.04887e+21)
(6.44431e+20 1.60204e+19 3.90568e+19 5.9334e+20 6.67968e+18 6.29453e+20)
(5.99396e+20 -3.89068e+19 -8.24517e+18 5.6462e+20 9.00018e+19 4.69969e+20)
(1.15699e+21 2.63596e+18 6.88384e+19 1.03595e+21 2.61672e+19 1.07163e+21)
(1.87867e+20 -3.25998e+19 1.32648e+19 1.45281e+20 -4.7949e+19 1.91274e+20)
(4.36702e+21 -1.2838e+19 8.1505e+19 4.15895e+21 -2.31534e+20 4.28218e+21)
(8.94347e+20 3.45221e+19 4.53465e+19 5.94344e+20 2.69085e+19 7.51174e+20)
(1.2783e+21 -1.40683e+20 -9.47261e+18 8.02939e+20 2.40927e+20 9.82621e+20)
(2.06832e+21 -1.23624e+20 8.6388e+19 1.66786e+21 5.20408e+19 1.71903e+21)
(3.50876e+21 -1.49144e+19 3.92272e+19 3.33342e+21 -2.79251e+19 3.37304e+21)
(9.23023e+20 1.40782e+19 5.27846e+19 7.95135e+20 -2.28558e+19 8.49174e+20)
(1.15509e+21 6.72963e+19 -4.0102e+19 1.39798e+21 1.85061e+19 1.10703e+21)
(6.2778e+20 3.71982e+19 2.25055e+19 4.41039e+20 5.72233e+19 5.12447e+20)
(2.31491e+21 -1.61859e+20 -4.46869e+19 2.30656e+21 5.48992e+19 2.22743e+21)
(3.833e+20 -1.78383e+19 -1.98113e+19 3.42576e+20 -4.97704e+18 3.69711e+20)
(1.75304e+20 -2.3125e+18 -1.44061e+19 1.44417e+20 -1.09196e+19 1.66905e+20)
(6.63562e+20 -4.86016e+18 1.29811e+19 5.38447e+20 -4.64129e+19 6.06783e+20)
(2.29075e+21 -2.93286e+19 4.46788e+18 2.093e+21 -3.08573e+19 2.17899e+21)
(3.77447e+21 -1.22686e+20 -5.54817e+19 3.38956e+21 -2.01193e+19 3.51974e+21)
(3.06958e+21 -8.92119e+19 1.35516e+19 2.77681e+21 2.00941e+18 2.92121e+21)
(5.22643e+21 2.1069e+20 -1.803e+20 5.65924e+21 2.42491e+20 5.02545e+21)
(3.52831e+20 -1.19849e+20 8.93422e+18 2.74965e+20 -2.05243e+19 3.34499e+20)
(5.13301e+21 -5.201e+20 2.34953e+20 4.67915e+21 1.22112e+20 4.49835e+21)
(6.05088e+20 -8.5696e+19 7.20494e+19 4.20936e+20 1.40346e+19 5.14822e+20)
(3.11194e+20 -1.29851e+19 -1.16914e+19 3.00823e+20 5.7625e+18 3.0604e+20)
(1.19177e+20 -1.94722e+19 -2.97192e+19 9.98154e+19 4.39464e+18 1.26571e+20)
(1.4519e+20 -2.35566e+19 -1.45462e+19 1.40791e+20 -4.63433e+18 1.53497e+20)
(1.16256e+21 -8.5469e+19 -2.05835e+19 1.08051e+21 -4.07016e+19 1.12072e+21)
(1.62338e+21 -1.12464e+20 -1.18817e+19 1.49138e+21 -2.81111e+19 1.55703e+21)
(3.07168e+21 3.50464e+20 -3.47789e+20 3.12799e+21 1.99787e+20 2.98486e+21)
(1.04798e+21 -9.61796e+19 -3.91585e+19 9.14893e+20 -2.02256e+19 9.61931e+20)
(5.87859e+21 -1.08258e+21 3.05099e+20 4.10066e+21 4.27379e+20 4.81847e+21)
(1.86137e+21 -1.2623e+20 5.62103e+19 1.66047e+21 -1.87007e+19 1.73566e+21)
(6.96021e+20 -5.38453e+20 1.65293e+20 5.47576e+20 7.39485e+19 4.33242e+20)
(5.99475e+21 1.85011e+20 5.4821e+20 5.55823e+21 -5.35581e+19 5.31246e+21)
(5.38074e+22 1.94357e+20 -4.76622e+20 5.25391e+22 -9.24565e+19 5.1501e+22)
(3.41934e+22 -8.50298e+20 -6.05527e+20 3.51908e+22 3.44362e+20 3.49835e+22)
(9.76376e+21 -4.28731e+20 3.52401e+20 1.0901e+22 2.48225e+20 1.12052e+22)
(2.86278e+22 7.93706e+19 5.83369e+20 2.80083e+22 -9.3214e+19 2.80053e+22)
(1.10989e+22 -1.2157e+19 1.51221e+19 1.04099e+22 -1.97081e+19 1.05431e+22)
(6.4185e+21 -9.35432e+19 2.43394e+20 5.78103e+21 7.07317e+19 5.92386e+21)
(3.26726e+21 1.12012e+20 1.19642e+20 4.3213e+21 -6.82071e+19 3.8106e+21)
(8.62157e+21 -1.65324e+20 -2.1205e+19 9.14114e+21 1.67205e+20 8.70141e+21)
(2.42624e+22 -3.92358e+20 1.60545e+20 2.40906e+22 1.26932e+19 2.39614e+22)
(1.37038e+21 -5.77334e+19 1.15867e+19 1.24194e+21 -2.82342e+19 1.29384e+21)
(2.33008e+21 -9.27679e+19 7.10172e+19 1.97529e+21 -9.24414e+19 2.13425e+21)
(1.7751e+22 -3.28517e+20 6.59931e+19 1.58109e+22 2.19766e+20 1.63325e+22)
(1.85956e+22 8.19566e+19 -1.87546e+20 1.73844e+22 7.83799e+20 1.70705e+22)
(2.30399e+21 -1.01031e+21 7.77623e+19 3.35945e+21 1.27867e+20 3.23035e+21)
(3.80643e+20 -7.13824e+20 4.53056e+20 1.1525e+21 -3.72771e+19 1.08692e+21)
(4.84096e+22 2.09411e+20 -2.59803e+20 5.1815e+22 -6.0143e+20 4.89897e+22)
(-1.81274e+19 -5.77796e+19 -5.20164e+19 2.34021e+19 4.61061e+19 1.08774e+20)
(5.52285e+21 -2.34298e+21 7.9896e+20 3.81098e+21 -1.61212e+20 3.59667e+21)
(2.62076e+21 -2.59602e+20 -1.06674e+19 2.43628e+21 5.99493e+19 2.34595e+21)
(2.39703e+20 -1.6536e+19 -3.80866e+18 2.14837e+20 -1.38655e+19 1.97264e+20)
(2.78235e+20 -2.71314e+19 2.18373e+18 2.58498e+20 -6.56808e+18 2.56585e+20)
(9.57972e+20 -5.32951e+19 2.90864e+19 8.51295e+20 -3.59391e+19 8.87313e+20)
(1.43245e+22 -1.43321e+20 2.07615e+19 1.36178e+22 -3.23204e+19 1.37759e+22)
(1.25466e+22 -1.97809e+20 6.01037e+19 1.17876e+22 3.51481e+19 1.19467e+22)
(3.67887e+22 1.83935e+21 -1.13411e+21 3.94765e+22 -2.07405e+20 3.82716e+22)
(6.34493e+21 -2.74958e+20 -4.41957e+20 7.50457e+21 7.37373e+20 8.11225e+21)
(4.41664e+22 -7.17065e+21 3.58813e+21 4.15501e+22 -8.87143e+20 4.2131e+22)
(8.9722e+20 -5.14154e+19 2.37449e+19 4.58074e+20 1.92497e+20 6.82889e+20)
(5.20566e+21 -2.78043e+21 1.08588e+21 4.92314e+21 -8.82266e+20 2.53347e+21)
(1.76486e+19 -4.54789e+18 2.38366e+18 -3.87206e+19 4.9923e+18 2.87101e+19)
(1.99407e+20 -2.33185e+19 -2.10071e+18 2.14957e+20 -1.78324e+18 2.13063e+20)
(4.8894e+20 -6.2398e+19 -9.82634e+18 4.85327e+20 -6.4436e+18 5.012e+20)
(7.02096e+20 -1.31162e+20 -1.03986e+19 5.85888e+20 -6.67943e+19 6.85803e+20)
(1.81977e+21 4.67398e+20 -4.4982e+20 2.32001e+21 -6.46305e+19 2.3747e+21)
(3.19127e+21 -1.74161e+20 -1.51617e+20 3.11462e+21 1.30576e+20 3.35535e+21)
(1.25977e+22 -1.03867e+21 6.75317e+20 1.19281e+21 1.09005e+21 1.07047e+22)
(4.87217e+21 -1.4208e+20 3.08141e+19 4.41256e+21 1.7847e+20 4.68235e+21)
(1.28156e+21 -1.28296e+20 2.76226e+19 1.00139e+21 -2.30184e+19 1.19344e+21)
(1.19291e+21 -3.37136e+20 -1.84381e+19 7.83846e+20 1.36325e+20 1.07241e+21)
)
;

boundaryField
{
    inlet
    {
        type            calculated;
        value           nonuniform 0();
    }
    outlet
    {
        type            calculated;
        value           nonuniform 0();
    }
    bottom
    {
        type            calculated;
        value           nonuniform List<symmTensor> 
40
(
(7.49128e+08 -5.59467e+07 2.76628e+09 -1.10164e+09 -4.53408e+08 8.9013e+08)
(3.33676e+08 -1.73226e+08 1.99318e+09 -7.04126e+08 -1.30217e+09 2.48869e+08)
(1.32697e+09 -2.18296e+08 3.26631e+09 -4.24768e+08 -1.346e+09 -3.61257e+08)
(-2.93957e+08 -1.21802e+09 1.72827e+09 -9.15777e+07 -1.58773e+09 -4.54565e+08)
(2.4598e+08 -1.82783e+08 2.19182e+09 -1.22226e+09 -5.24973e+08 2.43352e+09)
(3.38623e+08 5.58834e+08 2.12724e+09 -1.18658e+09 -1.79385e+09 9.58196e+08)
(1.7034e+09 -3.97983e+08 4.08062e+09 -4.43851e+08 -2.0233e+09 -4.6158e+07)
(9.54687e+08 -2.20989e+09 1.90767e+09 -4.76916e+07 -1.90753e+09 -5.92619e+08)
(2.71205e+08 -1.84429e+07 1.3113e+09 -1.07241e+09 -2.23922e+08 8.96336e+08)
(3.64917e+08 8.36595e+08 1.88329e+09 -1.1594e+09 -1.01655e+09 1.31926e+09)
(1.67917e+09 -3.1717e+07 5.059e+09 -1.46874e+09 -2.06318e+09 9.73626e+08)
(1.26001e+09 -2.52888e+09 3.0469e+09 -5.19831e+08 -3.14877e+09 -2.0789e+08)
(6.79048e+08 -2.37177e+08 1.98589e+09 -1.13522e+09 -1.19079e+07 4.79358e+08)
(8.46505e+08 8.8113e+08 1.71669e+09 -1.57337e+09 -9.52158e+08 1.05932e+09)
(1.60463e+09 -1.85775e+07 5.06956e+09 -1.53978e+09 -2.1648e+09 2.17417e+09)
(-1.10979e+09 -1.47998e+09 2.90136e+09 -5.26324e+08 -3.69815e+09 7.08394e+08)
(6.83445e+08 -1.95513e+08 2.70036e+09 -1.15071e+09 -2.2331e+08 -3.60321e+07)
(8.44483e+08 1.26868e+09 2.05308e+09 -1.38121e+09 -6.10608e+08 7.93086e+08)
(2.7066e+08 3.63754e+08 4.82052e+09 -1.24441e+09 -2.16342e+09 2.15718e+09)
(-4.63741e+08 -1.36707e+09 1.84318e+09 -2.02942e+08 -3.06037e+09 5.54239e+08)
(7.84183e+08 -2.70944e+08 2.84105e+09 -1.06642e+09 -4.34475e+08 9.36844e+08)
(7.22404e+08 5.33623e+08 2.58011e+09 -8.56676e+08 -9.62626e+08 2.62275e+08)
(-3.55881e+08 -4.28553e+07 4.08768e+09 -1.19205e+09 -1.27603e+09 1.29105e+09)
(1.02623e+09 -2.19443e+09 2.24491e+09 -1.91625e+09 -2.80356e+09 7.34154e+08)
(1.22789e+09 -1.87778e+08 3.13894e+09 -1.54734e+09 -3.61423e+08 1.01613e+08)
(1.02429e+09 -4.28622e+08 2.75932e+09 -1.22623e+09 -1.29958e+09 1.10597e+09)
(2.20497e+09 -1.73965e+09 5.04745e+09 -1.58904e+09 -2.23631e+09 4.6312e+08)
(-1.76797e+08 -2.1554e+09 2.13204e+09 -1.24483e+09 -3.44152e+09 3.99827e+08)
(1.6578e+09 -4.84135e+08 3.6925e+09 -2.38674e+09 -6.74933e+08 1.2655e+09)
(2.09292e+09 2.80176e+08 2.88114e+09 -2.34252e+09 -2.48801e+09 1.02072e+08)
(5.60718e+08 -8.32277e+08 5.98557e+09 -6.53706e+08 -3.4151e+09 1.53133e+09)
(-5.49896e+08 -1.39093e+09 2.07881e+09 6.92005e+08 -3.65547e+09 -1.2142e+08)
(1.84195e+09 3.00785e+07 4.27139e+09 -2.60397e+09 -9.1398e+08 4.49299e+08)
(2.02182e+09 7.78244e+08 4.27536e+09 -1.3981e+09 -2.39281e+09 5.70979e+08)
(-2.55839e+09 2.78108e+08 5.05196e+09 -7.67407e+07 -2.77886e+09 6.85114e+07)
(1.89564e+08 -6.9278e+08 2.2579e+09 2.53227e+08 -2.44643e+09 1.06408e+08)
(1.44689e+09 -1.95895e+08 5.49739e+09 -2.11684e+09 -7.23228e+08 1.83497e+09)
(1.24473e+09 -2.73746e+08 4.85546e+09 -1.25898e+09 -2.3831e+09 4.61776e+08)
(-1.50452e+09 -7.77131e+08 5.1605e+09 2.67144e+08 -2.07529e+09 9.06756e+08)
(6.5143e+08 -2.12311e+09 2.57388e+09 -2.91339e+07 -2.06124e+09 1.96877e+08)
)
;
    }
    top
    {
        type            symmetryPlane;
    }
    side1
    {
        type            symmetryPlane;
    }
    side2
    {
        type            symmetryPlane;
    }
    procBoundary5to4
    {
        type            processor;
        value           nonuniform List<symmTensor> 
20
(
(3.63303e+19 -2.0029e+19 7.22132e+19 -4.75016e+19 -1.03776e+19 1.37772e+19)
(1.47444e+19 2.53126e+18 2.37725e+19 -2.25971e+19 -1.50091e+19 5.82255e+17)
(5.3653e+19 -2.22736e+19 4.20053e+19 -3.05756e+19 -2.13209e+19 -8.75145e+18)
(-3.26308e+18 -2.84996e+19 2.39737e+19 2.79729e+18 -2.48725e+19 -5.74241e+18)
(2.84048e+19 -5.33678e+18 6.99144e+18 -3.93962e+19 -3.9845e+18 9.55725e+18)
(1.42379e+19 -7.28905e+18 -6.70943e+18 -3.65779e+19 -1.37102e+19 6.21433e+18)
(1.15472e+19 -1.93709e+19 -1.86842e+19 -1.38902e+19 -1.12192e+19 6.4145e+18)
(2.25034e+18 -2.11761e+19 -3.58126e+18 -8.05067e+18 -8.96391e+18 2.0971e+18)
(3.14388e+19 -2.02642e+19 3.20895e+19 -5.79542e+19 -1.09321e+19 1.94833e+19)
(1.3879e+19 -1.30531e+19 -1.8792e+18 -3.28518e+19 -3.43557e+18 8.71175e+18)
(7.7188e+19 -2.16996e+19 -3.56884e+19 -9.14951e+19 -6.26395e+18 1.63575e+19)
(1.06072e+19 -1.89649e+19 -6.57855e+18 -1.18321e+19 -4.60907e+17 2.01425e+18)
(-7.26723e+19 -5.31989e+19 1.46767e+20 -1.0623e+20 -2.08111e+19 2.29783e+17)
(3.06352e+18 -3.3437e+19 -2.98012e+19 -3.27482e+19 -2.09846e+19 4.96166e+18)
(2.18167e+19 -2.83661e+19 -1.30178e+19 -1.85966e+19 -7.86352e+18 -2.30657e+17)
(1.19397e+19 -6.0538e+19 -4.43372e+19 -8.56517e+18 2.02531e+19 -5.53916e+18)
(2.43096e+20 7.8481e+18 1.7943e+20 -2.27387e+20 -8.71796e+18 -9.43509e+19)
(5.14534e+19 -1.97571e+20 -3.66786e+19 -5.93711e+19 -4.08308e+19 -5.39184e+19)
(3.75049e+19 -2.94457e+19 1.46903e+19 7.27217e+17 -2.36589e+19 -1.7888e+19)
(-1.24903e+19 -3.75063e+19 -1.6846e+19 1.90491e+19 -1.06329e+19 5.38218e+18)
)
;
    }
    procBoundary5to6
    {
        type            processor;
        value           nonuniform List<symmTensor> 
20
(
(1.25802e+20 1.50934e+19 4.12383e+20 -3.69452e+20 -6.65749e+19 1.92627e+20)
(8.77507e+19 -7.64532e+18 4.61867e+20 -1.7409e+20 -1.52206e+20 2.18012e+20)
(-1.27535e+20 -2.53076e+20 3.61775e+20 -6.91527e+19 -2.21254e+20 1.22517e+20)
(1.90525e+20 -6.39825e+20 3.49757e+20 -2.34084e+20 -3.68141e+20 1.05638e+20)
(4.98784e+20 1.69034e+20 2.36261e+20 -3.73084e+20 1.0933e+20 1.27602e+20)
(-1.17902e+19 3.11899e+19 5.98167e+19 -1.15591e+20 -1.22354e+19 3.05271e+19)
(-1.05385e+20 -7.7341e+19 1.87094e+20 -1.13178e+20 -9.42231e+19 1.15982e+20)
(3.00514e+19 -7.41788e+19 2.48671e+19 -3.06497e+17 -1.48775e+19 1.09528e+19)
(5.44682e+20 -1.86245e+19 8.24226e+19 -3.27077e+20 -3.71568e+19 -3.27833e+19)
(4.94626e+20 -5.25557e+19 -4.94454e+19 -3.0768e+20 -6.6734e+19 -1.65997e+20)
(6.22753e+19 -8.84023e+19 3.83061e+19 -9.63718e+19 -1.49236e+19 8.93482e+19)
(1.02498e+20 -2.79649e+20 2.12792e+20 -1.20841e+20 -6.27921e+19 -1.2834e+19)
(2.86528e+20 -6.35254e+19 1.56074e+20 -3.06345e+20 -3.19042e+19 -7.44003e+19)
(-4.00046e+19 -3.01344e+20 -3.90149e+19 -2.81307e+20 2.26859e+20 -5.5859e+19)
(-3.25244e+19 -2.55951e+20 6.74846e+19 1.72447e+20 7.07912e+19 -1.00954e+20)
(4.73943e+19 -2.1871e+20 9.87998e+19 -4.98542e+19 -5.55203e+19 -1.53535e+19)
(6.95938e+19 -2.11974e+20 2.52023e+20 8.06934e+18 2.2288e+19 -1.79663e+20)
(2.16374e+20 -4.85298e+20 5.94765e+19 1.06046e+20 3.47443e+19 -1.14292e+20)
(3.02709e+20 -3.00701e+20 9.31757e+18 -1.52867e+20 5.67422e+19 -1.68493e+20)
(2.70758e+20 -2.85595e+21 5.18203e+20 -8.01601e+20 -8.27759e+20 -5.06424e+20)
)
;
    }
    procBoundary5to13
    {
        type            processor;
        value           nonuniform List<symmTensor> 
50
(
(6.65802e+18 -4.99505e+19 1.97843e+19 7.43919e+18 -2.61187e+19 -6.16512e+18)
(-1.08891e+18 -7.70104e+19 1.14608e+19 3.57758e+17 -3.85059e+19 -8.79669e+18)
(-2.29849e+19 -1.16072e+20 1.83906e+19 2.00431e+19 -7.58123e+19 -1.21326e+19)
(-1.58752e+19 -5.19371e+19 1.77155e+19 3.48667e+19 -7.04308e+19 -5.95914e+18)
(5.98026e+19 -1.39079e+20 2.28606e+19 -3.68627e+18 -1.07491e+20 -6.28156e+18)
(7.49691e+19 -1.00232e+20 2.17895e+19 -7.73622e+19 -8.75798e+19 -4.11171e+18)
(-1.59164e+18 -2.8839e+18 4.48544e+19 1.6648e+19 -1.55015e+20 8.32382e+18)
(-8.48409e+19 4.55589e+17 1.73508e+19 8.08322e+19 -9.87299e+19 -2.37199e+18)
(-6.14249e+18 -6.23383e+19 1.51519e+19 3.27862e+19 -1.12728e+20 -9.51937e+18)
(2.08295e+19 -2.19022e+20 2.54628e+19 -3.95191e+19 -1.02531e+20 -6.21113e+18)
(-1.33357e+19 -3.80622e+19 2.43472e+18 -1.73366e+18 5.53023e+16 3.88924e+18)
(-2.07307e+18 -3.48346e+19 -5.56697e+15 2.83075e+18 6.48427e+18 1.82251e+18)
(9.82042e+18 -3.49734e+19 2.58422e+18 -1.47699e+19 1.11214e+19 4.10109e+18)
(1.60605e+18 -1.06486e+19 9.79142e+18 -1.64848e+18 3.22924e+19 2.39871e+18)
(-3.11204e+18 -1.84705e+19 3.37405e+18 1.82483e+18 3.33745e+18 -1.17999e+17)
(1.4128e+19 -1.66788e+20 1.1852e+19 -4.1928e+19 2.17656e+19 -1.52444e+19)
(-1.2764e+19 -5.27474e+19 -5.22669e+18 4.41124e+19 1.2642e+19 -1.08368e+19)
(-3.10001e+19 -2.2406e+19 -2.05625e+19 9.98274e+19 1.35803e+18 -1.09317e+19)
(-7.78362e+17 -5.74005e+19 -1.68685e+18 1.10928e+19 -5.89391e+18 -2.3005e+19)
(5.78231e+19 -9.69297e+19 -1.64925e+18 -1.4256e+19 -4.64065e+19 -1.08842e+19)
(-2.56614e+19 -2.25365e+18 1.14622e+18 1.61649e+19 3.86034e+18 6.1342e+17)
(-1.90677e+19 -2.193e+19 1.36645e+17 1.44023e+19 8.10607e+18 3.53193e+18)
(-8.11978e+18 -2.1811e+19 -1.50728e+18 1.03063e+19 1.19828e+19 -1.42742e+18)
(-3.0742e+18 -6.61654e+19 -9.32586e+18 9.11555e+18 1.19824e+19 -4.54653e+18)
(-9.1188e+17 -4.96057e+19 -8.61173e+18 9.3818e+18 -1.50451e+18 -5.43469e+18)
(2.2579e+18 -7.79293e+19 -5.09148e+19 7.3307e+19 1.12115e+19 -3.80568e+19)
(1.87144e+19 -1.27429e+19 4.71541e+18 -3.27834e+18 2.94955e+19 -2.43033e+19)
(-2.18146e+18 -1.39816e+20 4.06733e+18 9.81239e+18 4.12226e+19 -3.40433e+19)
(5.09909e+19 -2.81747e+20 2.46567e+19 3.48418e+19 -4.78253e+19 -9.07868e+18)
(1.10198e+20 -2.00994e+20 6.38523e+19 -1.47952e+20 1.25862e+19 -4.91683e+19)
(-2.83639e+19 -5.63702e+19 -1.79621e+19 3.53838e+19 8.38459e+18 5.18026e+18)
(-1.46688e+19 -1.96641e+19 -1.09589e+19 9.64516e+18 1.68475e+19 -2.9778e+18)
(-4.64239e+19 -6.07334e+19 -4.54758e+19 4.76197e+19 1.44973e+19 6.34396e+18)
(-5.97631e+19 -1.18866e+20 -4.25516e+19 4.85483e+19 8.51382e+18 -1.15414e+19)
(-6.23371e+19 -1.14546e+20 -1.38507e+20 1.18608e+20 1.14142e+20 -1.94537e+19)
(1.62319e+20 -1.15083e+20 -2.84639e+19 9.71444e+19 7.52383e+19 7.4327e+17)
(1.86622e+20 -2.00538e+19 -6.97246e+19 -1.00912e+21 4.7037e+20 -6.55119e+19)
(8.55622e+19 -1.53387e+20 6.84289e+18 3.17858e+18 1.31437e+19 2.10588e+18)
(1.32577e+20 -1.74982e+20 -2.81331e+19 -2.10825e+20 1.26377e+20 -5.70789e+19)
(1.06813e+20 -1.91826e+20 8.216e+19 -6.55501e+19 -5.46393e+18 1.75505e+19)
(-2.4843e+19 -1.86855e+19 -1.08682e+19 1.32762e+19 4.08437e+18 -8.07194e+17)
(-6.31155e+19 -1.84889e+19 -4.03849e+18 4.8678e+19 2.26412e+19 9.30685e+18)
(-8.75538e+19 -1.44195e+20 -2.56017e+19 8.31512e+19 1.71375e+19 5.74863e+18)
(-1.91249e+20 4.97734e+18 -8.16742e+19 1.48942e+20 -4.11114e+18 4.96893e+19)
(6.76838e+19 -2.82213e+19 -7.86368e+19 2.24169e+20 8.5934e+19 1.24651e+20)
(3.21738e+20 9.34628e+20 -3.61651e+20 -2.69967e+21 8.27181e+20 4.54105e+20)
(3.03772e+20 -1.71824e+20 -5.58081e+19 -4.96879e+19 2.07291e+20 2.07995e+20)
(3.8406e+20 -1.31423e+20 -3.19401e+19 -7.48315e+20 1.11723e+20 1.57844e+20)
(2.64456e+20 -3.9005e+20 -3.98975e+19 -2.09738e+20 2.29396e+20 2.38758e+20)
(1.65438e+20 -2.57498e+20 3.29399e+19 -3.74715e+20 -2.1386e+19 8.07868e+19)
)
;
    }
}


// ************************************************************************* //
