/*--------------------------------*- C++ -*----------------------------------*\
| =========                 |                                                 |
| \\      /  F ield         | OpenFOAM: The Open Source CFD Toolbox           |
|  \\    /   O peration     | Version:  2.4.0                                 |
|   \\  /    A nd           | Web:      www.OpenFOAM.org                      |
|    \\/     M anipulation  |                                                 |
\*---------------------------------------------------------------------------*/
FoamFile
{
    version     2.0;
    format      ascii;
    class       volScalarField;
    location    "0.12";
    object      p;
}
// * * * * * * * * * * * * * * * * * * * * * * * * * * * * * * * * * * * * * //

dimensions      [1 -1 -2 0 0 0 0];

internalField   nonuniform List<scalar> 
200
(
5.89765e+23
5.90738e+23
5.91833e+23
5.93799e+23
5.95811e+23
5.98887e+23
6.03757e+23
6.09794e+23
6.16583e+23
6.23671e+23
5.88494e+23
5.89728e+23
5.90985e+23
5.92429e+23
5.9416e+23
5.96963e+23
6.00954e+23
6.0487e+23
6.10748e+23
6.17638e+23
5.87507e+23
5.88819e+23
5.8975e+23
5.90733e+23
5.9192e+23
5.93893e+23
5.9777e+23
6.00294e+23
6.02569e+23
6.08346e+23
5.85439e+23
5.87171e+23
5.87862e+23
5.88218e+23
5.8911e+23
5.90381e+23
5.92277e+23
5.95583e+23
5.98636e+23
6.02698e+23
5.89528e+23
5.90566e+23
5.91407e+23
5.92845e+23
5.95124e+23
5.98364e+23
6.02654e+23
6.0772e+23
6.14993e+23
6.23844e+23
5.87757e+23
5.89412e+23
5.90839e+23
5.9261e+23
5.94717e+23
5.97378e+23
6.00648e+23
6.04015e+23
6.07842e+23
6.13685e+23
5.86088e+23
5.87617e+23
5.8904e+23
5.90432e+23
5.9267e+23
5.95889e+23
5.97767e+23
5.99308e+23
6.01258e+23
6.05681e+23
5.8415e+23
5.85291e+23
5.86454e+23
5.87709e+23
5.89334e+23
5.917e+23
5.93239e+23
5.94959e+23
5.97466e+23
6.00734e+23
5.88632e+23
5.89448e+23
5.896e+23
5.91363e+23
5.94744e+23
5.98996e+23
6.04181e+23
6.10882e+23
6.18932e+23
6.29919e+23
5.86873e+23
5.88107e+23
5.89035e+23
5.90306e+23
5.9276e+23
5.95575e+23
5.99295e+23
6.04549e+23
6.10602e+23
6.1928e+23
5.85025e+23
5.86237e+23
5.87482e+23
5.89097e+23
5.90899e+23
5.92346e+23
5.9465e+23
5.98194e+23
6.02205e+23
6.07975e+23
5.83041e+23
5.83963e+23
5.85193e+23
5.86577e+23
5.87556e+23
5.88326e+23
5.89912e+23
5.93036e+23
5.9564e+23
5.99057e+23
5.9073e+23
5.89965e+23
5.88744e+23
5.88325e+23
5.9311e+23
6.00313e+23
6.06687e+23
6.13655e+23
6.23165e+23
6.35843e+23
5.86732e+23
5.87736e+23
5.8851e+23
5.89753e+23
5.9259e+23
5.96507e+23
6.00863e+23
6.06738e+23
6.16072e+23
6.26501e+23
5.84748e+23
5.85468e+23
5.86802e+23
5.88555e+23
5.89514e+23
5.90306e+23
5.91281e+23
5.96083e+23
6.05146e+23
6.15153e+23
5.82785e+23
5.83203e+23
5.83762e+23
5.84615e+23
5.84826e+23
5.84441e+23
5.85141e+23
5.87803e+23
5.93441e+23
6.00433e+23
5.91565e+23
5.92524e+23
5.91268e+23
5.90885e+23
5.95132e+23
6.08676e+23
6.14366e+23
6.19238e+23
6.29914e+23
6.45889e+23
5.87793e+23
5.88691e+23
5.90693e+23
5.91568e+23
5.9026e+23
5.91677e+23
6.09483e+23
6.13206e+23
6.26133e+23
6.4321e+23
5.84868e+23
5.8562e+23
5.87207e+23
5.87853e+23
5.86767e+23
5.85464e+23
5.88274e+23
5.98083e+23
6.13466e+23
6.34997e+23
5.81737e+23
5.82056e+23
5.82181e+23
5.81679e+23
5.79991e+23
5.78418e+23
5.75748e+23
5.86628e+23
5.95894e+23
6.08626e+23
)
;

boundaryField
{
    inlet
    {
        type            zeroGradient;
    }
    outlet
    {
        type            fixedValue;
        value           nonuniform 0();
    }
    bottom
    {
        type            zeroGradient;
    }
    top
    {
        type            symmetryPlane;
    }
    side1
    {
        type            symmetryPlane;
    }
    side2
    {
        type            symmetryPlane;
    }
    procBoundary5to4
    {
        type            processor;
        value           nonuniform List<scalar> 
20
(
5.87939e+23
5.86947e+23
5.85876e+23
5.8383e+23
5.87561e+23
5.85893e+23
5.84641e+23
5.8298e+23
5.869e+23
5.85509e+23
5.8409e+23
5.82461e+23
5.87998e+23
5.85755e+23
5.84149e+23
5.82272e+23
5.90489e+23
5.87623e+23
5.8442e+23
5.81574e+23
)
;
    }
    procBoundary5to6
    {
        type            processor;
        value           nonuniform List<scalar> 
20
(
6.2972e+23
6.24325e+23
6.14669e+23
6.06876e+23
6.34897e+23
6.22784e+23
6.12974e+23
6.04961e+23
6.45468e+23
6.32486e+23
6.16935e+23
6.03758e+23
6.5062e+23
6.37632e+23
6.25961e+23
6.08843e+23
6.69718e+23
6.621e+23
6.48674e+23
6.23907e+23
)
;
    }
    procBoundary5to13
    {
        type            processor;
        value           nonuniform List<scalar> 
50
(
5.82549e+23
5.83515e+23
5.8432e+23
5.84735e+23
5.84995e+23
5.85493e+23
5.86326e+23
5.87635e+23
5.90123e+23
5.92355e+23
5.81475e+23
5.82134e+23
5.82622e+23
5.83407e+23
5.84303e+23
5.85429e+23
5.87163e+23
5.88349e+23
5.89571e+23
5.91677e+23
5.80951e+23
5.81518e+23
5.82194e+23
5.83008e+23
5.83696e+23
5.84042e+23
5.84432e+23
5.85621e+23
5.87232e+23
5.88469e+23
5.80696e+23
5.8096e+23
5.81149e+23
5.81145e+23
5.80986e+23
5.80298e+23
5.79021e+23
5.81458e+23
5.83348e+23
5.85957e+23
5.80236e+23
5.80277e+23
5.80022e+23
5.79212e+23
5.77131e+23
5.71942e+23
5.73349e+23
5.76812e+23
5.82402e+23
5.8613e+23
)
;
    }
}


// ************************************************************************* //
