/*--------------------------------*- C++ -*----------------------------------*\
| =========                 |                                                 |
| \\      /  F ield         | OpenFOAM: The Open Source CFD Toolbox           |
|  \\    /   O peration     | Version:  2.4.0                                 |
|   \\  /    A nd           | Web:      www.OpenFOAM.org                      |
|    \\/     M anipulation  |                                                 |
\*---------------------------------------------------------------------------*/
FoamFile
{
    version     2.0;
    format      ascii;
    class       surfaceScalarField;
    location    "0.12";
    object      phib;
}
// * * * * * * * * * * * * * * * * * * * * * * * * * * * * * * * * * * * * * //

dimensions      [0 3 -1 0 0 0 0];

internalField   nonuniform List<scalar> 
490
(
-348550
66041
-19834.6
-360768
76549.1
-64331.4
-363738
45325.4
-42355.2
-403415
52769.3
-13092.1
-445656
49339.4
-7098.68
-474879
49332.2
-20109.4
-541827
80251.5
-13303.4
-626858
106886
-21854.7
-733980
129123
-22001.6
128837
-58556.7
-276719
83267.5
-1551.51
-293627
115310
-21852.3
-319308
113279
-42272.9
-352478
138661
-52722.3
-410985
147394
-39547.7
-445909
105921
-21663.9
-456592
131559
-40624.6
-613475
281855
-18085.7
-707437
261664
-38579.1
206681
-5228.21
-565857
131418
24921.7
-635265
160547
24170.1
-730166
212951
-4770.2
-807613
255130
-39021.7
-826291
223286
-57214.5
-827844
159742
-52268.3
-939495
252395
-9184.68
-926399
308031
-39272.6
-841982
183876
-6628.92
133996
-26800.9
-332510
19112.2
-354381
29262.8
-399937
23454.7
-384572
-4682.13
-322788
-12529.7
-403372
-21187.5
-424835
-19353.2
-337033
-3269.73
-362732
2158.17
1152.67
-282149
59483
-33048.3
-323018
79845.6
-103307
-361158
40202
-44418
-362842
10468.9
-21876.3
-350700
5696.03
-24937.2
-400406
60227.7
-30630.6
-419759
47143.4
-41093.7
-505759
109042
-44897.1
-596319
142330
-73771.6
166017
-80257.7
-285980
89886.8
-5045.34
-319431
114811
-23367.3
-389320
119519
-51701
-501669
120834
-50737.7
-607398
91078.6
-19201.7
-629681
88197.5
-27350.7
-684934
99484.1
-37712.1
-862780
332535
-63732.6
-958121
310186
-111094
182551
-98221.7
-377142
120522
18780.4
-412818
152168
22488.9
-466567
162536
5962.72
-537581
169141
-16315.5
-613661
139351
-29407.4
-739691
137098
24861.7
-938270
244548
44330.2
-966302
356447
-35153
-812606
212865
-63003.5
127734
-65665.4
-245109
24241.8
-233411
21097.5
-220155
15272.3
-237989
2877.85
-270570
6024.76
-321243
26366.4
-382309
26552.1
-283423
6924.88
-253416
-1793.89
4296.31
-362867
66434.9
-86559.2
-243216
91764
-314722
-307623
18130.5
1858.97
-350525
12806.8
8218.8
-392830
43958.4
-26591.2
-445878
66786.6
-44369.2
-528969
88732.6
-46735.5
-582353
65282.8
-56795.3
-686009
93549.5
-63665.6
77936.6
-53018.9
-284685
128008
-20606.4
-305007
133469
-44750.2
-353274
106155
-91458.1
-389897
57726.4
-59035
-396379
68702.3
-37463.1
-465133
165805
-57615.2
-499245
138324
-53191.9
-594326
164413
-67782.2
-716632
172013
-67251
171516
-100019
-446729
211763
-3181.97
-465618
174900
-54.4345
-510638
174930
-17792.2
-551783
132009
-49452.9
-650609
187980
-49859.6
-702401
257314
-14854.8
-664479
163126
-18393.9
-717114
159569
22326.3
-727389
192356
-73072.8
199715
-75386.6
-349281
2162
-309195
10740.7
-276697
12003.5
-283642
7022.99
-304402
12594
-315840
21190.3
-370782
67416
-402091
27985.7
-459553
16404.1
-26053.1
-403961
90385.1
-100509
-427148
46835.8
-338371
-454542
-28934.5
58187.6
-557494
-13503.4
124674
-560332
11616.6
-35369.9
-579534
31280.7
-56448.2
-646289
69401.9
-49382.2
-665842
51872.9
-89114.8
-691310
-4895.06
-33302.8
61613.4
-52162.9
-232678
98397.8
-28927.3
-281633
95121.1
-44080.5
-362872
61413.2
-100567
-418512
41885.5
-58784.7
-516172
62723.5
9090.71
-676775
149732
-15463.3
-721193
130751
-70123.3
-687053
-39387.2
-10662.4
-767291
62591.4
-54499.9
38704
-79236.3
-213872
137675
-13801.2
-238395
133039
-13448.8
-298764
125149
-21159.4
-384807
131689
-53212.6
-537269
190298
-24972.2
-603370
209348
-8370.32
-593889
-45768.5
148645
-607982
-15724.7
12756.1
-686517
78079.5
-10026
103580
-77593.4
-151911
11874.2
-155248
7129.02
-160796
7281.63
-188870
16586.4
-194896
17210.1
-210646
82438.4
-262604
84884.9
-408132
44135.4
-449291
1916.09
3800
-1.05177e+06
56942.6
-1.36456e+06
-25582.7
-1.12946e+06
-176910
-957388
-47401.9
-1.03896e+06
46204.4
-1.25641e+06
160999
-1.37634e+06
70552.1
-1.32268e+06
-142776
-1.17596e+06
-180023
-48249.1
-303926
104284
-453126
79537.5
-819949
89345.8
-917935
-8200.55
-857554
-5085.68
-837015
124996
-417218
-419368
-453599
-117058
-513748
-174374
-41434.7
-164572
119268
-203157
104674
-279057
144087
-515411
174940
-721214
175745
-501701
-102887
-303676
-468747
-308624
-99354.4
-403572
-89451.1
-61438.9
-91978.2
-73328.2
-67835.1
-37806.3
57580.9
148639
-217626
-201978
-284262
)
;

boundaryField
{
    inlet
    {
        type            fixedValue;
        value           nonuniform 0();
    }
    outlet
    {
        type            calculated;
        value           nonuniform 0();
    }
    bottom
    {
        type            fixedValue;
        value           uniform 0;
    }
    top
    {
        type            symmetryPlane;
        value           nonuniform List<scalar> 
40
(
-3.23174e-19
-1.77498e-19
-2.46911e-19
-2.14868e-19
-3.39209e-19
-1.25077e-19
-1.25735e-19
-1.27806e-19
-5.47981e-19
-2.0091e-19
-1.31459e-19
-1.46178e-19
-5.42911e-19
-2.21729e-19
-2.25039e-19
-2.30777e-19
-9.11217e-20
-2.69835e-19
-3.6927e-19
-1.26002e-19
-7.52773e-20
-6.08956e-20
-2.35085e-19
-8.81781e-20
-2.33188e-19
-2.81026e-20
-1.40313e-19
-6.01287e-20
-2.60803e-19
-3.9298e-20
-3.75019e-20
-4.60029e-20
-2.30781e-19
-3.03444e-20
-2.08785e-20
-4.68153e-20
-8.30292e-20
-3.39589e-20
-2.75029e-20
-3.15582e-20
)
;
    }
    side1
    {
        type            symmetryPlane;
        value           uniform 0;
    }
    side2
    {
        type            symmetryPlane;
        value           nonuniform 0();
    }
    procBoundary5to4
    {
        type            processor;
        value           nonuniform List<scalar> 
20
(
302344
261043
492785
326399
235879
259070
352648
235589
349943
238673
384936
395849
327526
232986
185214
137663
894321
227657
135787
81192.1
)
;
    }
    procBoundary5to6
    {
        type            processor;
        value           nonuniform List<scalar> 
20
(
-804260
-780053
-742496
-397960
-740635
-881661
-718925
-310348
-791184
-808415
-745866
-476010
-753780
-765164
-749186
-481016
-1.17988e+06
-599799
-461161
-318398
)
;
    }
    procBoundary5to13
    {
        type            processor;
        value           nonuniform List<scalar> 
50
(
118418
153154
235053
244447
174032
261513
293211
223499
207417
168071
124912
148635
157461
179416
153377
140218
259709
247367
186810
181523
187275
145172
145701
134808
202172
273928
177204
169818
231621
246520
142211
139989
135418
150200
191707
163851
-11279.4
113653
133727
105452
141928
93152.7
145875
161498
97568
-111507
-17596.9
-70867.2
-5251.35
-23502.3
)
;
    }
}


// ************************************************************************* //
