/*--------------------------------*- C++ -*----------------------------------*\
| =========                 |                                                 |
| \\      /  F ield         | OpenFOAM: The Open Source CFD Toolbox           |
|  \\    /   O peration     | Version:  2.4.0                                 |
|   \\  /    A nd           | Web:      www.OpenFOAM.org                      |
|    \\/     M anipulation  |                                                 |
\*---------------------------------------------------------------------------*/
FoamFile
{
    version     2.0;
    format      ascii;
    class       volVectorField;
    location    "0.16";
    object      A_Source;
}
// * * * * * * * * * * * * * * * * * * * * * * * * * * * * * * * * * * * * * //

dimensions      [1 -2 -2 0 0 0 0];

internalField   nonuniform List<vector> 
200
(
(-5.7653e-106 -6.74094e-107 -2.80087e-106)
(-3.0144e-108 -3.52379e-109 -1.46444e-108)
(-1.61497e-110 -1.88745e-111 -7.84574e-111)
(-8.79283e-113 -1.0274e-113 -4.27168e-113)
(-4.83064e-115 -5.64307e-116 -2.3468e-115)
(-2.66328e-117 -3.11051e-118 -1.29386e-117)
(-1.46785e-119 -1.71398e-120 -7.13104e-120)
(-8.06664e-122 -9.41735e-123 -3.91889e-122)
(-4.41327e-124 -5.15127e-125 -2.14403e-124)
(-2.40152e-126 -2.80261e-127 -1.16669e-126)
(-3.50228e-108 -4.09739e-109 -1.70146e-108)
(-1.80895e-110 -2.11603e-111 -8.78812e-111)
(-9.40485e-113 -1.09996e-113 -4.56901e-113)
(-4.93145e-115 -5.76664e-116 -2.39577e-115)
(-2.60888e-117 -3.05013e-118 -1.26743e-117)
(-1.39139e-119 -1.62637e-120 -6.75956e-120)
(-7.46954e-122 -8.72918e-123 -3.62881e-122)
(-4.02887e-124 -4.70728e-125 -1.95728e-124)
(-2.17919e-126 -2.54559e-127 -1.05868e-126)
(-1.17994e-128 -1.37806e-129 -5.73233e-129)
(-1.86422e-110 -2.1821e-111 -9.05664e-111)
(-9.84222e-113 -1.1519e-113 -4.78149e-113)
(-5.18091e-115 -6.06278e-116 -2.51696e-115)
(-2.72519e-117 -3.18861e-118 -1.32394e-117)
(-1.43502e-119 -1.6788e-120 -6.97155e-120)
(-7.57488e-122 -8.86021e-123 -3.67998e-122)
(-4.01143e-124 -4.69127e-125 -1.94881e-124)
(-2.13188e-126 -2.49273e-127 -1.0357e-126)
(-1.13689e-128 -1.32906e-129 -5.52317e-129)
(-6.0807e-131 -7.10714e-132 -2.95409e-131)
(-9.12132e-113 -1.05843e-113 -4.43127e-113)
(-4.92447e-115 -5.71264e-116 -2.39238e-115)
(-2.64463e-117 -3.067e-118 -1.2848e-117)
(-1.41423e-119 -1.63961e-120 -6.87054e-120)
(-7.53912e-122 -8.73807e-123 -3.66261e-122)
(-4.01106e-124 -4.64765e-125 -1.94863e-124)
(-2.132e-126 -2.46972e-127 -1.03576e-126)
(-1.13316e-128 -1.31233e-129 -5.50505e-129)
(-6.02648e-131 -6.97774e-132 -2.92775e-131)
(-3.20843e-133 -3.71407e-134 -1.5587e-133)
(-1.53797e-107 -1.79795e-108 -7.47169e-108)
(-8.16168e-110 -9.53937e-111 -3.96506e-110)
(-4.43764e-112 -5.18554e-113 -2.15587e-112)
(-2.45168e-114 -2.86421e-115 -1.19106e-114)
(-1.36651e-116 -1.59607e-117 -6.6387e-117)
(-7.64207e-119 -8.92387e-120 -3.71262e-119)
(-4.27142e-121 -4.98681e-122 -2.07512e-121)
(-2.38004e-123 -2.77811e-124 -1.15626e-123)
(-1.31997e-125 -1.54045e-126 -6.41261e-126)
(-7.27971e-128 -8.49411e-129 -3.53659e-128)
(-9.48802e-110 -1.10986e-110 -4.60942e-110)
(-4.97227e-112 -5.81549e-113 -2.4156e-112)
(-2.62246e-114 -3.0667e-115 -1.27403e-114)
(-1.39474e-116 -1.6307e-117 -6.77582e-117)
(-7.48281e-119 -8.74707e-120 -3.63526e-119)
(-4.04654e-121 -4.72924e-122 -1.96587e-121)
(-2.20236e-123 -2.57337e-124 -1.06994e-123)
(-1.2041e-125 -1.40665e-126 -5.84971e-126)
(-6.60067e-128 -7.70932e-129 -3.2067e-128)
(-3.62153e-130 -4.22894e-131 -1.75939e-130)
(-5.12634e-112 -5.99964e-113 -2.49045e-112)
(-2.74549e-114 -3.2128e-115 -1.3338e-114)
(-1.46576e-116 -1.71502e-117 -7.12087e-117)
(-7.81808e-119 -9.1463e-120 -3.79814e-119)
(-4.17381e-121 -4.88217e-122 -2.0277e-121)
(-2.2333e-123 -2.61189e-124 -1.08497e-123)
(-1.19867e-125 -1.40162e-126 -5.82329e-126)
(-6.45541e-128 -7.547e-129 -3.13613e-128)
(-3.48797e-130 -4.07698e-131 -1.6945e-130)
(-1.88989e-132 -2.2086e-133 -9.18135e-133)
(-2.54538e-114 -2.95287e-115 -1.23658e-114)
(-1.39375e-116 -1.6164e-117 -6.77105e-117)
(-7.58987e-119 -8.7997e-120 -3.68727e-119)
(-4.1148e-121 -4.76929e-122 -1.99903e-121)
(-2.22345e-123 -2.57636e-124 -1.08018e-123)
(-1.19886e-125 -1.38876e-126 -5.82421e-126)
(-6.4569e-128 -7.47772e-129 -3.13685e-128)
(-3.47684e-130 -4.02552e-131 -1.6891e-130)
(-1.87304e-132 -2.16812e-133 -9.09948e-133)
(-1.00995e-134 -1.16881e-135 -4.90649e-135)
(-2.10128e-109 -2.45608e-110 -1.02083e-109)
(-1.13169e-111 -1.32251e-112 -5.49792e-112)
(-6.24414e-114 -7.29531e-115 -3.03349e-114)
(-3.50025e-116 -4.08853e-117 -1.70047e-116)
(-1.97919e-118 -2.31129e-119 -9.61519e-119)
(-1.12264e-120 -1.31073e-121 -5.45396e-121)
(-6.36314e-123 -7.42762e-124 -3.09131e-123)
(-3.59471e-125 -4.19522e-126 -1.74636e-125)
(-2.02084e-127 -2.35799e-128 -9.81755e-128)
(-1.1295e-129 -1.3177e-130 -5.48726e-130)
(-1.31634e-111 -1.53955e-112 -6.39495e-112)
(-6.99865e-114 -8.18428e-115 -3.40004e-114)
(-3.74425e-116 -4.37785e-117 -1.81901e-116)
(-2.01965e-118 -2.36099e-119 -9.81174e-119)
(-1.09879e-120 -1.28424e-121 -5.33806e-121)
(-6.02466e-123 -7.04002e-124 -2.92687e-123)
(-3.32407e-125 -3.88345e-126 -1.61488e-125)
(-1.84209e-127 -2.15161e-128 -8.94914e-128)
(-1.02336e-129 -1.19506e-130 -4.97163e-130)
(-5.68922e-132 -6.64238e-133 -2.7639e-132)
(-7.21849e-114 -8.44702e-115 -3.50685e-114)
(-3.92142e-116 -4.58823e-117 -1.90508e-116)
(-2.12317e-118 -2.48387e-119 -1.03146e-118)
(-1.14826e-120 -1.34315e-121 -5.57842e-121)
(-6.21467e-123 -7.26837e-124 -3.01918e-123)
(-3.37059e-125 -3.94143e-126 -1.63748e-125)
(-1.83343e-127 -2.14355e-128 -8.90706e-128)
(-1.00053e-129 -1.16955e-130 -4.86073e-130)
(-5.47718e-132 -6.4012e-133 -2.66089e-132)
(-3.00631e-134 -3.51278e-135 -1.46051e-134)
(-3.63699e-116 -4.21812e-117 -1.7669e-116)
(-2.01965e-118 -2.34166e-119 -9.81174e-119)
(-1.11517e-120 -1.29258e-121 -5.41764e-121)
(-6.12897e-123 -7.10194e-124 -2.97754e-123)
(-3.35676e-125 -3.88853e-126 -1.63076e-125)
(-1.83417e-127 -2.12415e-128 -8.91068e-128)
(-1.00094e-129 -1.15887e-130 -4.86269e-130)
(-5.46018e-132 -6.32018e-133 -2.65263e-132)
(-2.9795e-134 -3.44799e-135 -1.44749e-134)
(-1.62708e-136 -1.88251e-137 -7.90458e-137)
(-1.94711e-111 -2.27551e-112 -9.45933e-112)
(-1.06407e-113 -1.24328e-114 -5.16938e-114)
(-5.95672e-116 -6.95836e-117 -2.89386e-116)
(-3.38743e-118 -3.9561e-119 -1.64566e-118)
(-1.94279e-120 -2.2684e-121 -9.43833e-121)
(-1.11754e-122 -1.30455e-123 -5.42919e-123)
(-6.42234e-125 -7.49547e-126 -3.12006e-125)
(-3.67788e-127 -4.29156e-128 -1.78676e-127)
(-2.09552e-129 -2.44471e-130 -1.01803e-129)
(-1.18682e-131 -1.38434e-132 -5.76574e-132)
(-1.23835e-113 -1.44813e-114 -6.0161e-114)
(-6.67858e-116 -7.80882e-117 -3.24455e-116)
(-3.62373e-118 -4.23631e-119 -1.76046e-118)
(-1.98209e-120 -2.31674e-121 -9.62928e-121)
(-1.09334e-122 -1.27768e-123 -5.31161e-123)
(-6.07726e-125 -7.10039e-126 -2.95242e-125)
(-3.3987e-127 -3.97002e-128 -1.65113e-127)
(-1.90877e-129 -2.22915e-130 -9.27309e-130)
(-1.07449e-131 -1.25457e-132 -5.22003e-132)
(-6.05183e-134 -7.06463e-135 -2.94007e-134)
(-6.89117e-116 -8.06285e-117 -3.34783e-116)
(-3.79664e-118 -4.44162e-119 -1.84446e-118)
(-2.08433e-120 -2.4381e-121 -1.0126e-120)
(-1.14281e-122 -1.33659e-123 -5.55193e-123)
(-6.26944e-125 -7.33139e-126 -3.04578e-125)
(-3.44608e-127 -4.02913e-128 -1.67416e-127)
(-1.89945e-129 -2.22043e-130 -9.22778e-130)
(-1.05021e-131 -1.22744e-132 -5.10205e-132)
(-5.82395e-134 -6.8055e-135 -2.82936e-134)
(-3.23779e-136 -3.78272e-137 -1.57297e-136)
(-3.52259e-118 -4.08435e-119 -1.71132e-118)
(-1.98347e-120 -2.2991e-121 -9.63596e-121)
(-1.11029e-122 -1.28658e-123 -5.39393e-123)
(-6.18513e-125 -7.16511e-126 -3.00483e-125)
(-3.43299e-127 -3.97577e-128 -1.6678e-127)
(-1.90068e-129 -2.20058e-130 -9.23379e-130)
(-1.05081e-131 -1.21629e-132 -5.10498e-132)
(-5.80639e-134 -6.71912e-135 -2.82083e-134)
(-3.20893e-136 -3.7125e-137 -1.55894e-136)
(-1.77452e-138 -2.05255e-139 -8.62086e-139)
(-1.38241e-113 -1.6153e-114 -6.63936e-114)
(-7.66472e-116 -8.95415e-117 -3.68058e-116)
(-4.35291e-118 -5.08403e-119 -2.08991e-118)
(-2.51093e-120 -2.93197e-121 -1.20534e-120)
(-1.46053e-122 -1.70503e-123 -7.00994e-123)
(-8.51909e-125 -9.943e-126 -4.08813e-125)
(-4.96343e-127 -5.7918e-128 -2.38145e-127)
(-2.88111e-129 -3.36128e-130 -1.38212e-129)
(-1.66359e-131 -1.94047e-132 -7.9792e-132)
(-9.54653e-134 -1.11334e-134 -4.57813e-134)
(-8.92499e-116 -1.04353e-116 -4.28573e-116)
(-4.88193e-118 -5.70726e-119 -2.34389e-118)
(-2.68621e-120 -3.13982e-121 -1.28948e-120)
(-1.48978e-122 -1.74104e-123 -7.15032e-123)
(-8.33118e-125 -9.73434e-126 -3.99797e-125)
(-4.69409e-127 -5.48352e-128 -2.25223e-127)
(-2.66065e-129 -3.10742e-130 -1.27637e-129)
(-1.51424e-131 -1.76813e-132 -7.26295e-132)
(-8.63657e-134 -1.00825e-134 -4.14179e-134)
(-4.92782e-136 -5.7516e-137 -2.36281e-136)
(-5.03934e-118 -5.89534e-119 -2.41946e-118)
(-2.81544e-120 -3.29326e-121 -1.35151e-120)
(-1.56711e-122 -1.83283e-123 -7.52145e-123)
(-8.70992e-125 -1.01854e-125 -4.17971e-125)
(-4.84293e-127 -5.66245e-128 -2.32364e-127)
(-2.6976e-129 -3.15357e-130 -1.2941e-129)
(-1.50657e-131 -1.7609e-132 -7.22616e-132)
(-8.43885e-134 -9.86163e-135 -4.04698e-134)
(-4.74038e-136 -5.53851e-137 -2.27295e-136)
(-2.66914e-138 -3.11791e-139 -1.27961e-138)
(-2.61319e-120 -3.02912e-121 -1.25442e-120)
(-1.49183e-122 -1.72877e-123 -7.16014e-123)
(-8.46518e-125 -9.80668e-126 -4.06225e-125)
(-4.77946e-127 -5.53523e-128 -2.29318e-127)
(-2.68817e-129 -3.11235e-130 -1.28957e-129)
(-1.50792e-131 -1.74537e-132 -7.23261e-132)
(-8.44514e-134 -9.77245e-135 -4.04999e-134)
(-4.72651e-136 -5.46802e-137 -2.2663e-136)
(-2.64535e-138 -3.05966e-139 -1.2682e-138)
(-1.48126e-140 -1.71289e-141 -7.10013e-141)
)
;

boundaryField
{
    inlet
    {
        type            zeroGradient;
    }
    outlet
    {
        type            zeroGradient;
    }
    bottom
    {
        type            zeroGradient;
    }
    top
    {
        type            symmetryPlane;
    }
    side1
    {
        type            symmetryPlane;
    }
    side2
    {
        type            symmetryPlane;
    }
    procBoundary29to21
    {
        type            processor;
        value           nonuniform List<vector> 
50
(
(-9.97578e-103 -1.16527e-103 -4.84637e-103)
(-5.13815e-105 -6.00086e-106 -2.49619e-105)
(-2.63578e-107 -3.07782e-108 -1.2805e-107)
(-1.34711e-109 -1.57278e-110 -6.54447e-110)
(-6.86254e-112 -8.01082e-113 -3.33392e-112)
(-3.48631e-114 -4.06899e-115 -1.6937e-114)
(-1.76715e-116 -2.06215e-117 -8.58505e-117)
(-8.9417e-119 -1.04325e-119 -4.344e-119)
(-4.51867e-121 -5.2711e-122 -2.19523e-121)
(-2.28145e-123 -2.66085e-124 -1.10836e-123)
(-2.65279e-104 -3.09819e-105 -1.28877e-104)
(-1.38673e-106 -1.61929e-107 -6.73695e-107)
(-7.21821e-109 -8.4273e-110 -3.50671e-109)
(-3.74255e-111 -4.36873e-112 -1.81818e-111)
(-1.93376e-113 -2.25693e-114 -9.39447e-114)
(-9.96214e-116 -1.16251e-116 -4.83975e-116)
(-5.11971e-118 -5.97333e-119 -2.48723e-118)
(-2.62603e-120 -3.06334e-121 -1.27576e-120)
(-1.345e-122 -1.56869e-123 -6.53419e-123)
(-6.88145e-125 -8.02439e-126 -3.34311e-125)
(-3.61314e-106 -4.21903e-107 -1.75531e-106)
(-1.91674e-108 -2.23778e-109 -9.31179e-109)
(-1.01227e-110 -1.18162e-111 -4.91776e-111)
(-5.32406e-113 -6.21376e-114 -2.5865e-113)
(-2.78998e-115 -3.25567e-116 -1.35541e-115)
(-1.45744e-117 -1.70043e-118 -7.08046e-118)
(-7.59353e-120 -8.85806e-121 -3.68905e-120)
(-3.94804e-122 -4.60469e-123 -1.91802e-122)
(-2.04933e-124 -2.38974e-125 -9.95594e-125)
(-1.06245e-126 -1.23869e-127 -5.16153e-127)
(-3.33781e-108 -3.89684e-109 -1.62156e-108)
(-1.79659e-110 -2.09714e-111 -8.72809e-111)
(-9.62503e-113 -1.12333e-113 -4.67598e-113)
(-5.1343e-115 -5.99124e-116 -2.49432e-115)
(-2.72828e-117 -3.18312e-118 -1.32544e-117)
(-1.44494e-119 -1.68555e-120 -7.01971e-120)
(-7.63122e-122 -8.90045e-123 -3.70735e-122)
(-4.02114e-124 -4.68912e-125 -1.95353e-124)
(-2.11507e-126 -2.46597e-127 -1.02753e-126)
(-1.11095e-128 -1.29502e-129 -5.39717e-129)
(-2.36263e-110 -2.75784e-111 -1.13475e-110)
(-1.29015e-112 -1.50571e-113 -6.19548e-113)
(-7.01075e-115 -8.18075e-116 -3.36611e-115)
(-3.79255e-117 -4.42475e-118 -1.82064e-117)
(-2.04336e-119 -2.38359e-120 -9.80771e-120)
(-1.09707e-121 -1.27952e-122 -5.26484e-122)
(-5.8726e-124 -6.84813e-125 -2.81781e-124)
(-3.13593e-126 -3.65621e-127 -1.50445e-126)
(-1.67129e-128 -1.94822e-129 -8.01663e-129)
(-8.89336e-131 -1.0365e-131 -4.26515e-131)
)
;
    }
    procBoundary29to28
    {
        type            processor;
        value           nonuniform List<vector> 
20
(
(-8.15066e-103 -9.52746e-104 -3.95971e-103)
(-3.38469e-105 -3.9588e-106 -1.64433e-105)
(-1.44987e-107 -1.69695e-108 -7.04367e-108)
(-6.45657e-110 -7.49454e-111 -3.13669e-110)
(-2.16603e-104 -2.5315e-105 -1.05229e-104)
(-9.12303e-107 -1.06688e-107 -4.4321e-107)
(-3.96369e-109 -4.6385e-110 -1.92562e-109)
(-1.79059e-111 -2.07792e-112 -8.69896e-112)
(-2.94825e-106 -3.44513e-107 -1.4323e-106)
(-1.25936e-108 -1.47252e-109 -6.11817e-109)
(-5.54915e-111 -6.49296e-112 -2.69585e-111)
(-2.54282e-113 -2.95008e-114 -1.23534e-113)
(-2.72186e-108 -3.18005e-109 -1.32232e-108)
(-1.17893e-110 -1.37826e-111 -5.72742e-111)
(-5.26749e-113 -6.16252e-114 -2.55902e-113)
(-2.44798e-115 -2.83932e-116 -1.18926e-115)
(-1.92543e-110 -2.24918e-111 -9.24776e-111)
(-8.45551e-113 -9.88361e-114 -4.06051e-113)
(-3.83044e-115 -4.48065e-116 -1.83917e-115)
(-1.80519e-117 -2.09322e-118 -8.66612e-118)
)
;
    }
    procBoundary29to30
    {
        type            processor;
        value           nonuniform List<vector> 
20
(
(-1.17814e-129 -1.37537e-130 -5.72358e-130)
(-7.85486e-132 -9.17574e-133 -3.816e-132)
(-4.62909e-134 -5.41045e-135 -2.24888e-134)
(-2.50822e-136 -2.90355e-137 -1.21853e-136)
(-3.57957e-131 -4.17815e-132 -1.73901e-131)
(-2.41831e-133 -2.82455e-134 -1.17485e-133)
(-1.44374e-135 -1.6872e-136 -7.01389e-136)
(-7.92342e-138 -9.16986e-139 -3.84931e-138)
(-5.56668e-133 -6.49649e-134 -2.70437e-133)
(-3.81065e-135 -4.45011e-136 -1.85127e-135)
(-2.30452e-137 -2.69275e-138 -1.11957e-137)
(-1.28099e-139 -1.48212e-140 -6.22324e-140)
(-5.86234e-135 -6.84043e-136 -2.84801e-135)
(-4.0657e-137 -4.74725e-138 -1.97518e-137)
(-2.49038e-139 -2.9095e-140 -1.20986e-139)
(-1.4019e-141 -1.62158e-142 -6.81063e-142)
(-4.72599e-137 -5.51358e-138 -2.26633e-137)
(-3.32039e-139 -3.8764e-140 -1.59201e-139)
(-2.05986e-141 -2.40618e-142 -9.8747e-142)
(-1.17422e-143 -1.35786e-144 -5.62812e-144)
)
;
    }
}


// ************************************************************************* //
