/*--------------------------------*- C++ -*----------------------------------*\
| =========                 |                                                 |
| \\      /  F ield         | OpenFOAM: The Open Source CFD Toolbox           |
|  \\    /   O peration     | Version:  2.4.0                                 |
|   \\  /    A nd           | Web:      www.OpenFOAM.org                      |
|    \\/     M anipulation  |                                                 |
\*---------------------------------------------------------------------------*/
FoamFile
{
    version     2.0;
    format      ascii;
    class       volVectorField;
    location    "0.01";
    object      gradp;
}
// * * * * * * * * * * * * * * * * * * * * * * * * * * * * * * * * * * * * * //

dimensions      [1 -2 -2 0 0 0 0];

internalField   nonuniform List<vector> 
40
(
(-3.51254e+20 -1.05825e+20 -1.46199e+21)
(-4.51756e+20 -1.2871e+20 -1.0369e+21)
(-5.7235e+20 -7.33851e+19 -7.48996e+20)
(-3.95721e+20 -2.29524e+19 -5.1748e+20)
(-2.74515e+20 -3.64056e+19 -3.86208e+20)
(-1.74037e+20 -3.85015e+20 -1.12903e+21)
(-3.86876e+20 -2.97189e+20 -8.34964e+20)
(-3.60835e+20 -2.06065e+20 -6.17955e+20)
(-3.21762e+20 -1.48721e+20 -4.64243e+20)
(-3.11394e+20 -1.48286e+20 -3.57051e+20)
(3.84329e+20 -6.47164e+20 -9.78388e+20)
(-9.38559e+19 -4.08789e+20 -6.95627e+20)
(-2.75414e+20 -2.86028e+20 -4.94293e+20)
(-2.80162e+20 -2.37279e+20 -3.48735e+20)
(-1.90815e+20 -1.83004e+20 -2.37287e+20)
(6.62566e+20 -3.81165e+20 -7.75388e+20)
(3.35395e+20 -3.41153e+20 -4.86046e+20)
(-1.78155e+19 -2.48507e+20 -3.26567e+20)
(-1.15712e+20 -1.91168e+20 -2.37017e+20)
(-7.44468e+19 -1.45343e+20 -1.79357e+20)
(8.63023e+20 2.49207e+20 -6.9834e+20)
(8.25856e+20 1.11169e+20 -4.77831e+20)
(3.23335e+20 5.52866e+19 -2.99086e+20)
(9.46001e+19 3.79228e+19 -1.97929e+20)
(3.0922e+19 -5.16413e+18 -1.45861e+20)
(9.3144e+20 2.47972e+20 -4.76444e+20)
(4.38014e+20 1.17165e+20 -3.27907e+20)
(1.76844e+20 3.38502e+19 -2.18666e+20)
(-2.63014e+19 3.15724e+18 -1.59882e+20)
(-7.57508e+19 -3.022e+19 -1.26335e+20)
(1.02719e+21 -2.37247e+20 -3.02723e+20)
(3.97613e+20 -1.0764e+20 -2.1886e+20)
(9.53203e+19 -9.58578e+19 -1.49139e+20)
(-3.35403e+19 -8.79995e+19 -1.03005e+20)
(-5.16537e+19 -6.41705e+19 -7.20695e+19)
(1.80017e+21 -3.84028e+20 -2.20246e+20)
(7.20793e+20 -2.54563e+20 -1.39688e+20)
(2.16124e+20 -1.47507e+20 -9.98094e+19)
(3.70731e+19 -9.10179e+19 -6.6582e+19)
(-1.04529e+19 -5.84014e+19 -5.2064e+19)
)
;

boundaryField
{
    inlet
    {
        type            zeroGradient;
    }
    outlet
    {
        type            zeroGradient;
    }
    bottom
    {
        type            zeroGradient;
    }
    top
    {
        type            symmetryPlane;
    }
    side1
    {
        type            symmetryPlane;
    }
    side2
    {
        type            symmetryPlane;
    }
    procBoundary69to5
    {
        type            processor;
        value           nonuniform List<vector> 
20
(
(-1.89612e+21 -2.83529e+20 -1.59587e+21)
(-1.45573e+21 -2.11923e+20 -1.2132e+21)
(-1.3388e+21 -1.54378e+20 -9.86121e+20)
(-1.06632e+21 -4.7257e+19 -7.42656e+20)
(-6.98787e+20 -5.18167e+19 -5.36999e+20)
(-1.85527e+21 -5.25795e+20 -1.60981e+21)
(-1.19743e+21 -4.28866e+20 -1.14603e+21)
(-1.00946e+21 -3.73675e+20 -8.51101e+20)
(-8.61197e+20 -2.66834e+20 -6.26834e+20)
(-7.62069e+20 -2.68494e+20 -4.49687e+20)
(-1.51843e+21 -8.03078e+20 -1.4108e+21)
(-1.15149e+21 -6.65908e+20 -1.03916e+21)
(-1.01473e+21 -5.6208e+20 -7.89831e+20)
(-8.55958e+20 -4.51561e+20 -5.89008e+20)
(-6.73938e+20 -3.4848e+20 -4.14814e+20)
(-9.32639e+20 -9.64365e+20 -1.13713e+21)
(-7.15435e+20 -7.58255e+20 -7.6726e+20)
(-5.8077e+20 -5.58649e+20 -5.32598e+20)
(-4.33998e+20 -3.88687e+20 -3.82237e+20)
(-3.5194e+20 -2.50104e+20 -2.60497e+20)
)
;
    }
    procBoundary69to68
    {
        type            processor;
        value           nonuniform List<vector> 8((-3.50168e+20 -2.17318e+20 -1.89913e+21) (-9.58218e+19 -6.6498e+20 -1.70581e+21) (6.35831e+20 -8.2709e+20 -1.49113e+21) (8.34154e+20 -2.91241e+20 -1.34005e+21) (8.86984e+20 7.69602e+19 -8.57292e+20) (2.13695e+21 3.50831e+19 -6.73368e+20) (2.1471e+21 -5.42004e+20 -4.19753e+20) (2.51772e+21 -4.27314e+20 -4.95189e+20));
    }
    procBoundary69to70
    {
        type            processor;
        value           nonuniform List<vector> 8((-2.66501e+20 -4.13923e+19 -2.89446e+20) (-2.58646e+20 -1.06871e+20 -2.49768e+20) (-1.11925e+20 -1.18806e+20 -1.54271e+20) (-5.43348e+19 -1.2205e+20 -1.30302e+20) (-2.40141e+19 -1.54136e+19 -1.0248e+20) (-3.92876e+19 -3.81306e+19 -8.62433e+19) (-1.56962e+19 -5.53506e+19 -5.95173e+19) (-7.52919e+18 -4.28992e+19 -4.65839e+19));
    }
    procBoundary69to85
    {
        type            processor;
        value           nonuniform List<vector> 10((2.84507e+20 -6.3696e+19 -6.15678e+20) (1.71459e+20 -1.52268e+20 -3.80819e+20) (2.45552e+19 -1.59175e+20 -2.37329e+20) (-7.38327e+19 -1.26995e+20 -1.62692e+20) (-5.25774e+19 -1.1396e+20 -1.17473e+20) (1.37269e+21 -1.64945e+20 -3.04513e+20) (8.70656e+20 -1.53977e+20 -1.64741e+20) (4.2241e+20 -8.61171e+19 -8.60136e+19) (1.44671e+20 -5.44142e+19 -4.04111e+19) (4.45837e+19 -3.68644e+19 -1.77312e+19));
    }
}


// ************************************************************************* //
