/*--------------------------------*- C++ -*----------------------------------*\
| =========                 |                                                 |
| \\      /  F ield         | OpenFOAM: The Open Source CFD Toolbox           |
|  \\    /   O peration     | Version:  2.4.0                                 |
|   \\  /    A nd           | Web:      www.OpenFOAM.org                      |
|    \\/     M anipulation  |                                                 |
\*---------------------------------------------------------------------------*/
FoamFile
{
    version     2.0;
    format      ascii;
    class       surfaceScalarField;
    location    "0.01";
    object      phib;
}
// * * * * * * * * * * * * * * * * * * * * * * * * * * * * * * * * * * * * * //

dimensions      [0 3 -1 0 0 0 0];

internalField   nonuniform List<scalar> 
82
(
-43023.9
10344.4
50358.9
-14473.7
6001.08
27826.7
5493.89
8159.5
24876.9
8419.86
10454.9
18809.3
8190.95
14444.4
-62520.6
19432.4
29681.7
-3444.35
11565.2
24561.3
24156.9
52596.5
55137.6
26363.1
54284.7
54939.8
32228.9
26671.7
-100653
22661.8
18017
-70280.1
18509.4
12989.6
-25178.1
55406.7
40305.2
-3121.08
40298.9
54297.9
20757.4
39052.5
-148345
15820.7
-112918
13298
-56001.7
17194.5
-30492.5
15486.3
15682.7
-178012
-22910.1
-130667
-19518.5
-88791.9
-16998.2
-56300.5
-13682
-4738.44
-136825
-1335.92
-125116
-6666.06
-82224.4
-4751.99
-42307.3
1340.69
3844.74
-132706
11596.4
-140187
13805.2
-128739
24104.4
-103656
30556
20741
-157376
-145253
-123309
-98295
)
;

boundaryField
{
    inlet
    {
        type            fixedValue;
        value           nonuniform 0();
    }
    outlet
    {
        type            calculated;
        value           nonuniform 0();
    }
    bottom
    {
        type            fixedValue;
        value           nonuniform 0();
    }
    top
    {
        type            symmetryPlane;
        value           nonuniform List<scalar> 
20
(
-2.27548e-16
-2.40888e-16
-2.14786e-16
-1.23777e-16
-1.44367e-16
-3.94854e-16
-4.19449e-16
-3.13012e-16
-3.00995e-16
-4.91859e-16
-1.46432e-15
-8.42694e-16
-3.89516e-16
-4.07207e-16
-2.85074e-15
-1.1348e-15
-3.32419e-16
-4.39079e-16
-3.6747e-15
-1.83603e-15
)
;
    }
    side1
    {
        type            symmetryPlane;
        value           uniform 0;
    }
    side2
    {
        type            symmetryPlane;
        value           nonuniform 0();
    }
    procBoundary69to5
    {
        type            processor;
        value           nonuniform List<scalar> 
20
(
-76915.5
-62378
-53004
-32190.2
-36568.9
-72567.1
-89201.7
-127176
-100976
-46231.9
-53978.8
-50306.4
-88217.4
-62369.1
-36190
-44903.6
-39243.8
-36823.7
-35282.5
-28223.5
)
;
    }
    procBoundary69to68
    {
        type            processor;
        value           nonuniform List<scalar> 8(59236.2 96318 133385 214461 251281 144932 137791 179978);
    }
    procBoundary69to70
    {
        type            processor;
        value           nonuniform List<scalar> 8(22353.4 21885.1 5487.35 -26134.3 -37117.6 -24218.7 -81500.6 -68658.1);
    }
    procBoundary69to85
    {
        type            processor;
        value           nonuniform List<scalar> 10(-14371.7 9028.46 18119.4 34585.7 28939.7 4815.36 14980.2 19354.3 21028.8 6786.84);
    }
}


// ************************************************************************* //
