/*--------------------------------*- C++ -*----------------------------------*\
| =========                 |                                                 |
| \\      /  F ield         | OpenFOAM: The Open Source CFD Toolbox           |
|  \\    /   O peration     | Version:  2.4.0                                 |
|   \\  /    A nd           | Web:      www.OpenFOAM.org                      |
|    \\/     M anipulation  |                                                 |
\*---------------------------------------------------------------------------*/
FoamFile
{
    version     2.0;
    format      ascii;
    class       volVectorField;
    location    "0.09";
    object      gradp;
}
// * * * * * * * * * * * * * * * * * * * * * * * * * * * * * * * * * * * * * //

dimensions      [1 -2 -2 0 0 0 0];

internalField   nonuniform List<vector> 
200
(
(-9.28863e+12 2.22195e+14 -5.92981e+13)
(2.21011e+13 2.29992e+14 -5.91962e+13)
(3.3548e+13 2.40984e+14 -6.63758e+13)
(-3.35883e+13 2.14848e+14 -6.59304e+13)
(-5.8504e+13 2.04618e+14 -5.74882e+13)
(-4.23746e+13 2.2635e+14 -5.47423e+13)
(-3.58642e+13 2.5867e+14 -5.25881e+13)
(-2.1065e+13 2.92021e+14 -4.83234e+13)
(-1.27334e+13 3.21934e+14 -4.49559e+13)
(3.46306e+13 3.52915e+14 -3.73074e+13)
(3.93668e+12 1.92864e+14 -5.61889e+13)
(-3.62391e+12 1.86417e+14 -5.68392e+13)
(-3.90249e+13 1.57167e+14 -5.36967e+13)
(-5.42961e+13 1.39448e+14 -4.6798e+13)
(-2.88188e+13 1.49511e+14 -4.47426e+13)
(-1.30196e+13 1.54438e+14 -4.36735e+13)
(1.38973e+13 1.6772e+14 -4.00718e+13)
(4.63768e+13 1.88778e+14 -4.02427e+13)
(6.30966e+13 2.13366e+14 -3.72154e+13)
(8.90538e+13 2.47765e+14 -3.34298e+13)
(-2.21829e+13 1.42252e+14 -5.03995e+13)
(-4.92932e+13 1.26602e+14 -4.64098e+13)
(-6.039e+13 1.12659e+14 -4.53097e+13)
(-4.89008e+13 1.12208e+14 -4.30553e+13)
(-2.85237e+13 1.08665e+14 -4.17472e+13)
(-5.95651e+12 1.05894e+14 -3.85984e+13)
(3.28147e+13 1.10638e+14 -3.52935e+13)
(7.02268e+13 1.12476e+14 -3.32501e+13)
(1.05241e+14 1.2322e+14 -3.08638e+13)
(1.22565e+14 1.39131e+14 -2.72179e+13)
(-2.73636e+13 5.85649e+13 -4.44576e+13)
(-6.28096e+13 5.59745e+13 -4.2785e+13)
(-6.78122e+13 5.18067e+13 -4.43525e+13)
(-6.22846e+13 5.22634e+13 -4.45092e+13)
(-4.14482e+13 4.51148e+13 -4.15568e+13)
(-9.07328e+12 4.58011e+13 -3.88259e+13)
(2.70616e+13 4.35564e+13 -3.46654e+13)
(7.15404e+13 4.29246e+13 -3.13222e+13)
(1.16408e+14 4.42132e+13 -2.67564e+13)
(1.57757e+14 4.85079e+13 -2.33252e+13)
(-8.96234e+12 2.44655e+14 -1.56107e+14)
(-5.47338e+11 2.59192e+14 -1.54635e+14)
(1.19985e+13 2.66158e+14 -1.64869e+14)
(-5.14822e+12 2.63912e+14 -1.59241e+14)
(-2.27023e+13 2.70163e+14 -1.49215e+14)
(-2.66941e+13 2.8582e+14 -1.38653e+14)
(-1.53235e+13 3.07823e+14 -1.33798e+14)
(3.35808e+12 3.39116e+14 -1.25421e+14)
(2.25178e+13 3.73837e+14 -1.18249e+14)
(4.23953e+13 4.15666e+14 -1.02162e+14)
(1.85565e+12 2.07102e+14 -1.25179e+14)
(4.351e+12 2.06875e+14 -1.28947e+14)
(-6.89284e+12 1.90873e+14 -1.24582e+14)
(-2.56429e+13 1.76048e+14 -1.15878e+14)
(-1.88204e+13 1.74696e+14 -1.07055e+14)
(1.92696e+12 1.80269e+14 -1.05038e+14)
(2.48757e+13 1.95391e+14 -9.67578e+13)
(5.55172e+13 2.12895e+14 -9.43064e+13)
(8.48981e+13 2.35913e+14 -8.56541e+13)
(1.10308e+14 2.63908e+14 -7.67936e+13)
(-9.41575e+12 1.61022e+14 -1.07888e+14)
(-3.30056e+13 1.49089e+14 -1.01028e+14)
(-4.96556e+13 1.2761e+14 -9.88302e+13)
(-3.75009e+13 1.1587e+14 -9.22092e+13)
(-1.42614e+13 1.13762e+14 -9.10735e+13)
(1.46953e+13 1.1365e+14 -8.37587e+13)
(4.9929e+13 1.19289e+14 -7.87877e+13)
(8.44018e+13 1.26749e+14 -7.27661e+13)
(1.24544e+14 1.39955e+14 -6.85879e+13)
(1.56518e+14 1.55299e+14 -5.86506e+13)
(-2.20114e+13 6.8072e+13 -9.58127e+13)
(-6.24734e+13 6.17742e+13 -8.93673e+13)
(-7.33297e+13 5.33381e+13 -8.72e+13)
(-5.33383e+13 4.99371e+13 -8.9292e+13)
(-2.32617e+13 4.54193e+13 -8.36231e+13)
(1.29793e+13 4.5437e+13 -7.99419e+13)
(5.10736e+13 4.45613e+13 -7.03791e+13)
(9.68491e+13 4.60093e+13 -6.71e+13)
(1.41998e+14 5.0785e+13 -5.71651e+13)
(1.807e+14 5.47362e+13 -4.99557e+13)
(-4.57751e+12 3.43256e+14 -1.5657e+14)
(-5.93538e+12 3.54787e+14 -1.70039e+14)
(1.88084e+13 3.4434e+14 -1.64908e+14)
(1.65045e+13 3.64082e+14 -1.74111e+14)
(7.37756e+12 3.49893e+14 -1.52606e+14)
(6.95876e+12 3.76517e+14 -1.55836e+14)
(6.48014e+12 3.90068e+14 -1.43331e+14)
(2.86912e+13 4.26245e+14 -1.4848e+14)
(6.16942e+13 4.59016e+14 -1.4177e+14)
(9.8205e+13 4.94964e+14 -1.4043e+14)
(-8.12152e+12 2.70015e+14 -1.20423e+14)
(-1.71582e+12 2.72188e+14 -1.23635e+14)
(2.79639e+12 2.62828e+14 -1.30342e+14)
(1.79018e+12 2.46699e+14 -1.20089e+14)
(5.8692e+12 2.42537e+14 -1.171e+14)
(1.99326e+13 2.42269e+14 -1.0709e+14)
(4.82376e+13 2.55736e+14 -1.08429e+14)
(8.19086e+13 2.73025e+14 -1.02708e+14)
(1.19137e+14 2.92824e+14 -1.03564e+14)
(1.47002e+14 3.17383e+14 -9.28856e+13)
(-2.32722e+11 1.89238e+14 -9.81551e+13)
(-2.03091e+13 1.89929e+14 -1.0118e+14)
(-3.21689e+13 1.72471e+14 -9.58333e+13)
(-2.40792e+13 1.54746e+14 -9.59327e+13)
(-1.48216e+12 1.46157e+14 -8.97004e+13)
(3.33578e+13 1.46047e+14 -9.11632e+13)
(6.7991e+13 1.52844e+14 -8.34969e+13)
(1.02866e+14 1.56006e+14 -8.59002e+13)
(1.50411e+14 1.68803e+14 -7.56158e+13)
(1.91906e+14 1.82072e+14 -7.2078e+13)
(-6.73845e+12 7.7885e+13 -9.61254e+13)
(-3.52491e+13 7.46321e+13 -8.59671e+13)
(-6.75713e+13 7.0415e+13 -8.53449e+13)
(-5.08386e+13 5.69309e+13 -8.08076e+13)
(-1.15277e+13 5.70353e+13 -8.36913e+13)
(3.33077e+13 5.19081e+13 -7.31311e+13)
(6.81555e+13 5.70103e+13 -7.50843e+13)
(1.13825e+14 5.19904e+13 -6.97336e+13)
(1.71269e+14 6.24897e+13 -6.82377e+13)
(2.03405e+14 6.24198e+13 -5.80934e+13)
(-5.20626e+13 4.23332e+14 -5.93494e+13)
(-2.72304e+13 4.47033e+14 -6.11451e+13)
(-1.03404e+12 4.47647e+14 -6.78933e+13)
(3.42205e+13 4.18405e+14 -7.65893e+13)
(3.57801e+13 4.52104e+14 -8.81741e+13)
(2.9839e+12 4.20296e+14 -9.56302e+13)
(8.21336e+12 4.88811e+14 -1.04612e+14)
(8.35573e+12 5.10716e+14 -1.05175e+14)
(4.82802e+13 5.59977e+14 -1.08376e+14)
(9.23103e+13 5.98412e+14 -1.07048e+14)
(-8.42325e+12 3.00566e+14 -6.56958e+13)
(-2.73919e+13 3.17049e+14 -6.70507e+13)
(4.45353e+12 3.01393e+14 -7.00384e+13)
(1.67325e+13 3.01134e+14 -7.57366e+13)
(2.27782e+13 2.75345e+14 -7.66693e+13)
(2.96747e+13 2.83745e+14 -8.09791e+13)
(3.88963e+13 2.91126e+14 -8.10726e+13)
(7.1085e+13 3.13023e+14 -8.36765e+13)
(1.1633e+14 3.41759e+14 -8.26694e+13)
(1.5532e+14 3.73271e+14 -8.43409e+13)
(-1.90957e+13 1.99898e+14 -7.21154e+13)
(-2.5576e+13 2.09357e+14 -6.98275e+13)
(-3.28641e+13 1.99606e+14 -7.10038e+13)
(-1.78755e+13 1.78721e+14 -7.00028e+13)
(1.00111e+12 1.67217e+14 -7.29159e+13)
(3.45462e+13 1.67983e+14 -7.26615e+13)
(6.67704e+13 1.7264e+14 -7.4974e+13)
(1.09622e+14 1.79508e+14 -7.29587e+13)
(1.68775e+14 1.96477e+14 -7.15225e+13)
(2.00098e+14 2.10966e+14 -6.96455e+13)
(1.04951e+13 7.13195e+13 -8.10833e+13)
(-2.79759e+13 8.61149e+13 -7.74304e+13)
(-5.68194e+13 7.01195e+13 -7.20472e+13)
(-4.80468e+13 7.41373e+13 -7.08372e+13)
(1.3033e+12 5.50338e+13 -6.91385e+13)
(4.05216e+13 7.42884e+13 -6.92226e+13)
(6.19455e+13 5.80215e+13 -7.11239e+13)
(1.18758e+14 7.18759e+13 -6.37634e+13)
(1.79246e+14 6.25899e+13 -6.09686e+13)
(2.25776e+14 7.71114e+13 -6.21306e+13)
(-1.03239e+13 3.27165e+14 4.11517e+11)
(-3.3276e+13 3.39135e+14 1.34548e+13)
(-3.06129e+13 3.39515e+14 -1.47774e+12)
(-4.8394e+13 3.69567e+14 4.21143e+12)
(-5.35533e+13 3.98187e+14 -2.72948e+13)
(-4.56415e+13 4.53976e+14 -2.37053e+13)
(-2.40647e+13 4.97882e+14 -4.24902e+13)
(1.66447e+13 5.50776e+14 -3.37922e+13)
(5.57006e+13 5.89248e+14 -3.98999e+13)
(9.03106e+13 6.31178e+14 -3.14733e+13)
(-1.24573e+13 2.4959e+14 -1.42628e+13)
(-1.56122e+13 2.58296e+14 -1.55234e+13)
(-2.49985e+13 2.57852e+14 -1.05816e+13)
(-1.94288e+13 2.57237e+14 -2.47271e+13)
(-1.09068e+13 2.6695e+14 -2.1882e+13)
(5.84213e+12 2.79019e+14 -3.52537e+13)
(3.96056e+13 3.03156e+14 -2.93297e+13)
(7.67986e+13 3.24571e+14 -3.5032e+13)
(1.17011e+14 3.5179e+14 -2.75442e+13)
(1.54947e+14 3.77228e+14 -3.48192e+13)
(7.08836e+12 1.64618e+14 -3.14485e+13)
(-1.67521e+13 1.73322e+14 -2.3266e+13)
(-3.27298e+13 1.69257e+14 -2.8691e+13)
(-3.01982e+13 1.62585e+14 -2.3224e+13)
(-9.98991e+12 1.58206e+14 -3.25419e+13)
(2.67722e+13 1.64858e+14 -2.66587e+13)
(6.704e+13 1.68762e+14 -3.49713e+13)
(1.13911e+14 1.87867e+14 -2.65745e+13)
(1.61013e+14 2.03524e+14 -3.36308e+13)
(2.08045e+14 2.17609e+14 -2.90002e+13)
(4.95069e+12 6.35363e+13 -3.6313e+13)
(-6.33359e+12 6.24675e+13 -3.80456e+13)
(-4.64729e+13 6.87455e+13 -2.95498e+13)
(-4.15306e+13 5.55959e+13 -3.48124e+13)
(-6.36095e+12 6.30793e+13 -2.75134e+13)
(2.69543e+13 5.74104e+13 -3.72074e+13)
(8.56248e+13 6.31704e+13 -3.17532e+13)
(1.46322e+14 6.67029e+13 -2.98076e+13)
(1.76494e+14 7.93758e+13 -2.31396e+13)
(2.21153e+14 7.44437e+13 -3.06676e+13)
)
;

boundaryField
{
    inlet
    {
        type            zeroGradient;
    }
    outlet
    {
        type            zeroGradient;
    }
    bottom
    {
        type            zeroGradient;
    }
    top
    {
        type            symmetryPlane;
    }
    side1
    {
        type            symmetryPlane;
    }
    side2
    {
        type            symmetryPlane;
    }
    procBoundary24to16
    {
        type            processor;
        value           nonuniform List<vector> 
50
(
(-1.16573e+13 1.8459e+14 -7.02264e+13)
(-4.12024e+13 2.05664e+14 -7.50896e+13)
(-8.73822e+12 2.55768e+14 -6.94307e+13)
(1.84358e+13 2.99513e+14 -7.74629e+13)
(-5.18231e+13 3.22413e+14 -8.57086e+13)
(-1.21124e+14 3.66856e+14 -8.08421e+13)
(-1.17445e+14 4.09134e+14 -7.07928e+13)
(-8.01522e+13 4.46204e+14 -6.96767e+13)
(-5.86898e+13 4.78237e+14 -6.96546e+13)
(-1.09912e+14 5.0174e+14 -7.26495e+13)
(-2.72195e+13 2.52781e+14 -2.00842e+14)
(-3.86559e+13 2.85586e+14 -2.06944e+14)
(-1.63328e+13 2.94813e+14 -1.8918e+14)
(-3.36536e+13 3.3648e+14 -2.09149e+14)
(-6.26364e+13 3.6012e+14 -1.97852e+14)
(-7.3393e+13 4.15899e+14 -1.98892e+14)
(-8.17156e+13 4.58693e+14 -1.78882e+14)
(-7.65099e+13 5.11517e+14 -1.78196e+14)
(-6.82028e+13 5.55071e+14 -1.7133e+14)
(-3.5807e+13 5.98531e+14 -1.65575e+14)
(-3.11854e+13 4.07325e+14 -2.32096e+14)
(-3.88502e+12 4.34004e+14 -2.41036e+14)
(-1.57931e+13 4.58797e+14 -2.43773e+14)
(-9.3146e+12 4.29112e+14 -2.16647e+14)
(-1.89999e+13 5.07409e+14 -2.30813e+14)
(-6.04193e+13 4.82395e+14 -1.91137e+14)
(-5.12182e+13 5.89579e+14 -2.21546e+14)
(-5.59855e+13 6.16337e+14 -2.09958e+14)
(-1.83021e+13 6.88593e+14 -2.19902e+14)
(2.17922e+13 7.34851e+14 -2.07102e+14)
(-5.58257e+13 5.64415e+14 -5.56392e+13)
(-7.60226e+13 6.38306e+14 -5.72681e+13)
(6.17094e+13 6.60584e+14 -6.70225e+13)
(7.81872e+12 7.06997e+14 -7.91648e+13)
(1.89966e+13 7.01075e+14 -1.06854e+14)
(-4.37382e+13 8.55814e+14 -1.29391e+14)
(-1.41942e+14 7.96871e+14 -1.48456e+14)
(-7.12478e+13 9.07913e+14 -1.61509e+14)
(-5.90618e+13 9.08322e+14 -1.64065e+14)
(-1.47562e+12 9.67094e+14 -1.69475e+14)
(-3.63981e+13 4.1075e+14 4.58417e+13)
(-4.03117e+13 4.48189e+14 5.19128e+13)
(-8.58623e+13 5.05227e+14 5.70014e+13)
(-1.36774e+14 5.72116e+14 5.79668e+12)
(-1.79724e+14 6.84736e+14 1.18161e+13)
(-1.93546e+14 7.61052e+14 -5.63034e+13)
(-1.53995e+14 8.6673e+14 -3.49989e+13)
(-1.05934e+14 9.23428e+14 -6.00696e+13)
(-4.37932e+13 9.8332e+14 -4.58384e+13)
(4.81313e+12 1.01488e+15 -5.52982e+13)
)
;
    }
    procBoundary24to25
    {
        type            processor;
        value           nonuniform List<vector> 
20
(
(1.00028e+14 4.21417e+14 -4.25294e+13)
(9.66508e+13 2.57333e+14 -3.05735e+13)
(1.46571e+14 1.57572e+14 -2.02537e+13)
(2.01116e+14 6.18092e+13 -1.9587e+13)
(4.0837e+13 4.46895e+14 -9.83821e+13)
(1.10782e+14 2.92974e+14 -6.75454e+13)
(1.78924e+14 1.7515e+14 -4.69189e+13)
(2.09409e+14 6.28759e+13 -4.29003e+13)
(1.18863e+14 5.2162e+14 -1.26171e+14)
(1.64668e+14 3.39674e+14 -8.94977e+13)
(2.14322e+14 1.97004e+14 -6.19968e+13)
(2.33426e+14 6.8239e+13 -5.41514e+13)
(1.18949e+14 6.38375e+14 -1.10843e+14)
(1.86957e+14 3.95653e+14 -8.01867e+13)
(2.28059e+14 2.31704e+14 -6.64789e+13)
(2.4651e+14 7.54285e+13 -5.54222e+13)
(1.16861e+14 6.64315e+14 -4.05248e+13)
(1.88967e+14 4.10657e+14 -2.76609e+13)
(2.42317e+14 2.36627e+14 -3.11474e+13)
(2.63006e+14 8.59297e+13 -2.45841e+13)
)
;
    }
}


// ************************************************************************* //
