/*--------------------------------*- C++ -*----------------------------------*\
| =========                 |                                                 |
| \\      /  F ield         | OpenFOAM: The Open Source CFD Toolbox           |
|  \\    /   O peration     | Version:  2.4.0                                 |
|   \\  /    A nd           | Web:      www.OpenFOAM.org                      |
|    \\/     M anipulation  |                                                 |
\*---------------------------------------------------------------------------*/
FoamFile
{
    version     2.0;
    format      ascii;
    class       volVectorField;
    location    "0.01";
    object      gradp;
}
// * * * * * * * * * * * * * * * * * * * * * * * * * * * * * * * * * * * * * //

dimensions      [1 -2 -2 0 0 0 0];

internalField   nonuniform List<vector> 
60
(
(1.65904e+19 -4.61393e+18 -4.9929e+18)
(1.34307e+19 -3.98585e+18 -3.48378e+18)
(9.93673e+18 -4.06659e+18 -2.08971e+18)
(5.69306e+18 -3.46873e+18 -1.30114e+18)
(3.07965e+18 -2.17331e+18 -9.25961e+17)
(1.43738e+19 -1.91149e+18 -5.06274e+18)
(1.04476e+19 -3.40293e+18 -3.82692e+18)
(7.33025e+18 -4.39009e+18 -1.74758e+18)
(7.52367e+18 -4.8229e+18 -1.24808e+18)
(6.52726e+18 -3.82039e+18 -1.17622e+18)
(9.35519e+18 -1.0442e+18 -3.76187e+18)
(8.47353e+18 -2.50839e+18 -2.59528e+18)
(7.09677e+18 -2.87894e+18 -1.62584e+18)
(6.83247e+18 -2.94317e+18 -1.14333e+18)
(8.10685e+18 -2.67207e+18 -1.05767e+18)
(9.02527e+18 -1.58533e+16 -3.27983e+18)
(6.7781e+18 -4.35385e+17 -2.48076e+18)
(6.46071e+18 -8.63567e+17 -2.03857e+18)
(7.93742e+18 -7.53418e+17 -1.54342e+18)
(8.58499e+18 -3.11095e+17 -8.78479e+17)
(1.81115e+19 -5.19709e+18 -6.01762e+18)
(1.72047e+19 -5.67514e+18 -5.53444e+18)
(1.31112e+19 -3.45131e+18 -3.84565e+18)
(7.69861e+18 -2.85112e+18 -2.73552e+18)
(4.93977e+18 -2.43094e+18 -1.64589e+18)
(1.364e+19 -1.5877e+18 -6.19447e+18)
(1.70692e+19 -2.33179e+18 -6.08397e+18)
(1.44962e+19 -2.67792e+18 -3.71332e+18)
(7.88936e+18 -2.45963e+18 -1.4349e+18)
(5.88562e+18 -1.81426e+18 -8.47659e+17)
(1.36844e+19 1.92756e+17 -5.57466e+18)
(1.50243e+19 4.36237e+17 -3.12412e+18)
(1.28555e+19 -2.14103e+18 -8.35388e+17)
(9.42592e+18 -2.43323e+18 3.25904e+17)
(7.36541e+18 -1.35157e+18 7.29814e+17)
(1.66404e+19 3.33711e+17 -5.63313e+18)
(1.24016e+19 5.02246e+17 -2.95382e+18)
(8.7573e+18 -9.77645e+17 -1.84366e+17)
(9.46828e+18 -1.54684e+18 8.35417e+17)
(9.62448e+18 -9.56462e+17 7.26381e+17)
(1.379e+19 -4.12056e+18 -3.11771e+18)
(2.0381e+19 -5.79169e+18 -3.09611e+18)
(1.88932e+19 -5.16266e+18 -2.12513e+18)
(1.27323e+19 -2.72983e+18 -1.2892e+18)
(9.32965e+18 -1.58568e+18 -5.52099e+17)
(1.14464e+19 -1.20277e+18 -2.94232e+18)
(1.83873e+19 4.53584e+17 -3.06073e+18)
(2.22073e+19 4.26333e+17 -2.53042e+18)
(1.66938e+19 7.53784e+16 -6.51028e+17)
(1.00336e+19 -1.9265e+16 2.20966e+17)
(2.17529e+19 -1.46062e+17 -2.87713e+18)
(2.36392e+19 2.49984e+18 -1.35525e+18)
(1.81368e+19 2.76739e+18 -1.84975e+17)
(1.18411e+19 6.89348e+17 2.9518e+17)
(8.12922e+18 -1.53601e+17 5.69776e+17)
(2.16758e+19 -1.09406e+17 -3.15408e+18)
(2.42142e+19 -1.62917e+17 -1.77098e+18)
(1.85863e+19 1.78068e+17 5.37345e+17)
(1.08518e+19 6.18029e+16 1.30058e+18)
(7.97831e+18 -3.16588e+17 9.69697e+17)
)
;

boundaryField
{
    inlet
    {
        type            zeroGradient;
    }
    outlet
    {
        type            zeroGradient;
    }
    bottom
    {
        type            zeroGradient;
    }
    top
    {
        type            symmetryPlane;
    }
    side1
    {
        type            symmetryPlane;
    }
    side2
    {
        type            symmetryPlane;
    }
    procBoundary121to57
    {
        type            processor;
        value           nonuniform List<vector> 
20
(
(8.4109e+18 -2.96033e+18 -2.86146e+18)
(7.91451e+18 -3.40458e+18 -1.20982e+18)
(6.12671e+18 -3.49416e+18 -4.17826e+16)
(3.97462e+18 -2.90107e+18 4.44785e+17)
(2.96539e+18 -1.99536e+18 2.68618e+17)
(7.42814e+18 -3.55735e+18 -2.18845e+18)
(6.46067e+18 -3.7534e+18 -1.20606e+18)
(6.24394e+18 -3.4201e+18 -7.94037e+17)
(6.061e+18 -2.71213e+18 -5.04011e+17)
(5.23345e+18 -1.60353e+18 -2.92583e+17)
(7.51359e+18 -2.6599e+18 -2.20757e+18)
(8.18901e+18 -1.71762e+18 -2.07173e+18)
(8.20924e+18 -1.67546e+18 -1.73011e+18)
(7.60777e+18 -1.96068e+18 -1.55915e+18)
(6.39758e+18 -1.82796e+18 -1.51903e+18)
(1.15274e+19 -4.37552e+17 -1.65943e+18)
(8.42955e+18 3.19008e+17 -2.14547e+18)
(5.75782e+18 -3.17281e+17 -2.33413e+18)
(5.75599e+18 -9.06704e+17 -1.98107e+18)
(7.01632e+18 -1.24317e+18 -1.31094e+18)
)
;
    }
    procBoundary121to105
    {
        type            processor;
        value           nonuniform List<vector> 
15
(
(1.1796e+19 -6.66553e+18 -3.66477e+18)
(9.35291e+18 -4.47852e+18 -2.40782e+18)
(6.29601e+18 -2.74235e+18 -1.77436e+18)
(3.7371e+18 -1.68051e+18 -1.2793e+18)
(2.6216e+18 -1.58123e+18 -9.03981e+17)
(1.8728e+19 -8.12098e+18 -6.50282e+18)
(1.35776e+19 -5.76974e+18 -4.95532e+18)
(8.84818e+18 -3.45141e+18 -3.02828e+18)
(5.84861e+18 -2.70892e+18 -1.89672e+18)
(4.23934e+18 -2.50828e+18 -1.21493e+18)
(1.71965e+19 -9.06601e+18 -3.61515e+18)
(2.04715e+19 -8.95201e+18 -2.98789e+18)
(1.60836e+19 -5.84293e+18 -1.46083e+18)
(9.53983e+18 -3.7914e+18 -7.26833e+17)
(6.80578e+18 -2.69144e+18 -3.07322e+17)
)
;
    }
    procBoundary121to120
    {
        type            processor;
        value           nonuniform List<vector> 
12
(
(1.40346e+19 -5.27473e+18 -6.51522e+18)
(1.48014e+19 2.14676e+17 -5.76813e+18)
(1.14204e+19 1.65862e+17 -4.52367e+18)
(1.52188e+19 -2.70423e+17 -4.07856e+18)
(1.74532e+19 -3.13116e+18 -4.6593e+18)
(1.44947e+19 -1.18258e+17 -5.16917e+18)
(1.41246e+19 -1.06396e+18 -6.99841e+18)
(1.80169e+19 -9.75748e+17 -6.90713e+18)
(8.45589e+18 -2.91665e+18 -1.74563e+18)
(1.01757e+19 -3.52791e+18 -2.37523e+18)
(2.0641e+19 -2.61487e+18 -3.87666e+18)
(2.02069e+19 -1.24367e+17 -3.34455e+18)
)
;
    }
    procBoundary121to122
    {
        type            processor;
        value           nonuniform List<vector> 
12
(
(2.94784e+18 -1.5159e+18 -6.8415e+17)
(4.66675e+18 -2.3093e+18 -1.04427e+18)
(7.23086e+18 -1.9143e+18 -8.40888e+17)
(7.63642e+18 -5.1435e+17 -7.28368e+17)
(4.73027e+18 -2.02798e+18 -7.82396e+17)
(5.66159e+18 -1.24682e+18 -3.3917e+17)
(6.01353e+18 -5.63799e+17 3.32894e+17)
(8.90722e+18 -4.17303e+17 6.45832e+17)
(6.95935e+18 -1.11592e+18 8.26343e+16)
(7.53699e+18 -5.24839e+17 6.45217e+17)
(5.63345e+18 -3.38301e+17 5.3387e+17)
(7.23029e+18 -1.36493e+16 7.86154e+17)
)
;
    }
}


// ************************************************************************* //
