/*--------------------------------*- C++ -*----------------------------------*\
| =========                 |                                                 |
| \\      /  F ield         | OpenFOAM: The Open Source CFD Toolbox           |
|  \\    /   O peration     | Version:  2.4.0                                 |
|   \\  /    A nd           | Web:      www.OpenFOAM.org                      |
|    \\/     M anipulation  |                                                 |
\*---------------------------------------------------------------------------*/
FoamFile
{
    version     2.0;
    format      ascii;
    class       volVectorField;
    location    "0.01";
    object      Ub;
}
// * * * * * * * * * * * * * * * * * * * * * * * * * * * * * * * * * * * * * //

dimensions      [0 1 -1 0 0 0 0];

internalField   nonuniform List<vector> 
60
(
(-3.58501e+09 1.3819e+09 1.97052e+09)
(-2.941e+09 1.15791e+09 1.36353e+09)
(-2.7631e+09 1.46869e+09 1.01915e+09)
(-3.1367e+09 1.72763e+09 8.18717e+08)
(-3.94323e+09 2.61969e+09 1.3202e+09)
(-2.3217e+09 5.89288e+08 1.98406e+09)
(-2.60166e+09 9.8242e+08 1.33031e+09)
(-2.83327e+09 1.7844e+09 8.6022e+08)
(-2.71479e+09 1.82646e+09 7.96931e+08)
(-2.37366e+09 2.02483e+09 6.81592e+08)
(-4.29062e+09 3.22778e+08 1.79407e+09)
(-4.18556e+09 7.51755e+08 1.11822e+09)
(-3.59074e+09 1.28385e+09 8.28224e+08)
(-2.81826e+09 1.0317e+09 4.86419e+08)
(-2.03548e+09 6.50854e+08 3.20477e+08)
(-2.35981e+09 5.16095e+07 7.47214e+08)
(-2.33126e+09 1.84937e+08 7.98399e+08)
(-1.93378e+09 3.66528e+08 6.8961e+08)
(-1.49258e+09 2.08283e+08 3.15801e+08)
(-1.29686e+09 8.02997e+07 1.65996e+08)
(-6.47053e+09 2.17899e+09 2.1753e+09)
(-5.74578e+09 1.62471e+09 1.3477e+09)
(-4.89826e+09 1.58563e+09 1.31985e+09)
(-4.53055e+09 1.79425e+09 1.46127e+09)
(-3.74869e+09 2.12843e+09 1.79342e+09)
(-4.5328e+09 5.57617e+08 2.18964e+09)
(-4.02374e+09 3.94923e+08 1.25233e+09)
(-3.76666e+09 5.88941e+08 9.32677e+08)
(-3.44414e+09 9.32523e+08 7.15176e+08)
(-2.43307e+09 1.01433e+09 4.53468e+08)
(-2.16584e+09 7.52161e+06 1.45898e+09)
(-1.84128e+09 -6.35978e+07 7.76807e+08)
(-1.62914e+09 2.14407e+08 4.52236e+08)
(-1.42517e+09 4.07618e+08 3.76746e+07)
(-1.36967e+09 2.45487e+08 -6.22641e+07)
(-1.66177e+09 -2.28054e+06 7.96088e+08)
(-1.58626e+09 -3.73539e+07 5.91453e+08)
(-1.43731e+09 1.21094e+08 2.64333e+08)
(-1.15012e+09 1.87313e+08 3.98594e+06)
(-9.7425e+08 1.52898e+08 -5.83815e+07)
(-6.28549e+09 1.56053e+09 1.12711e+09)
(-5.24463e+09 1.21733e+09 8.07718e+08)
(-4.23058e+09 8.64447e+08 6.98318e+08)
(-3.29797e+09 7.00279e+08 6.11992e+08)
(-2.62846e+09 5.88353e+08 5.21272e+08)
(-4.72449e+09 5.71927e+08 1.16034e+09)
(-3.63899e+09 7.22654e+07 5.55312e+08)
(-2.69479e+09 -6.23189e+06 4.06533e+08)
(-2.23806e+09 -2.9199e+07 1.98497e+08)
(-2.01775e+09 1.11556e+08 -4.73087e+07)
(-2.14117e+09 -2.51385e+07 3.8954e+08)
(-2.29387e+09 -3.1396e+08 1.7195e+08)
(-2.24376e+09 -2.50562e+08 6.37437e+07)
(-2.48995e+09 -1.28784e+08 -4.0053e+07)
(-2.56414e+09 6.77418e+06 -9.01054e+07)
(-1.40401e+09 4.01887e+06 3.14668e+08)
(-1.27404e+09 -9.44806e+06 1.81671e+08)
(-1.20744e+09 2.11077e+07 6.65574e+06)
(-1.21496e+09 5.41543e+06 -1.0604e+08)
(-1.30623e+09 5.07143e+07 -1.07545e+08)
)
;

boundaryField
{
    inlet
    {
        type            fixedValue;
        value           nonuniform 0();
    }
    outlet
    {
        type            zeroGradient;
    }
    bottom
    {
        type            fixedValue;
        value           nonuniform 0();
    }
    top
    {
        type            symmetryPlane;
    }
    side1
    {
        type            symmetryPlane;
    }
    side2
    {
        type            symmetryPlane;
    }
    procBoundary121to57
    {
        type            processor;
        value           nonuniform List<vector> 
20
(
(-3.74041e+09 1.70314e+09 1.72461e+09)
(-4.29163e+09 2.27526e+09 1.05951e+09)
(-5.24648e+09 2.84425e+09 4.27931e+08)
(-6.01911e+09 3.99578e+09 -7.91083e+07)
(-5.64492e+09 3.80705e+09 4.4094e+06)
(-5.58156e+09 2.63349e+09 1.61706e+09)
(-6.28776e+09 3.03555e+09 1.28696e+09)
(-5.89775e+09 2.75279e+09 9.75342e+08)
(-4.95302e+09 2.8015e+09 6.00043e+08)
(-3.76653e+09 1.98779e+09 3.66757e+08)
(-5.15796e+09 2.05761e+09 1.72447e+09)
(-3.56566e+09 1.48028e+09 1.05098e+09)
(-2.54161e+09 1.05818e+09 9.08437e+08)
(-2.10488e+09 8.00419e+08 5.76825e+08)
(-2.00036e+09 5.78124e+08 4.38908e+08)
(-1.9192e+09 2.23824e+08 4.88093e+08)
(-1.88829e+09 7.1209e+07 6.85446e+08)
(-1.83332e+09 2.35695e+08 9.5064e+08)
(-1.60509e+09 2.68696e+08 6.72741e+08)
(-1.29478e+09 2.43015e+08 3.03724e+08)
)
;
    }
    procBoundary121to105
    {
        type            processor;
        value           nonuniform List<vector> 
15
(
(-4.59421e+09 3.00552e+09 2.16259e+09)
(-4.49744e+09 2.26157e+09 1.46312e+09)
(-4.66146e+09 1.83261e+09 1.62194e+09)
(-4.96207e+09 1.83396e+09 1.83776e+09)
(-5.33792e+09 2.75065e+09 2.18786e+09)
(-8.21749e+09 3.77922e+09 3.07003e+09)
(-7.80032e+09 2.87454e+09 2.25008e+09)
(-7.46067e+09 2.45491e+09 2.27449e+09)
(-7.12072e+09 2.14709e+09 2.27798e+09)
(-6.09616e+09 2.91212e+09 2.32596e+09)
(-8.77803e+09 4.15996e+09 1.72454e+09)
(-6.52563e+09 3.33455e+09 1.33593e+09)
(-4.60608e+09 2.39935e+09 9.95165e+08)
(-3.58358e+09 1.85564e+09 7.55808e+08)
(-2.79658e+09 1.19655e+09 5.08823e+08)
)
;
    }
    procBoundary121to120
    {
        type            processor;
        value           nonuniform List<vector> 
12
(
(-4.86711e+09 1.60165e+09 2.47733e+09)
(-2.63679e+09 5.33345e+07 1.97405e+09)
(-4.29869e+09 -3.40086e+07 2.16246e+09)
(-2.21276e+09 1.33958e+08 6.88094e+08)
(-7.49154e+09 1.36101e+09 2.42915e+09)
(-5.0988e+09 2.38322e+08 2.03812e+09)
(-2.61083e+09 1.25083e+08 1.83927e+09)
(-1.8736e+09 1.62249e+08 9.18619e+08)
(-8.02074e+09 2.57206e+09 1.3677e+09)
(-5.77068e+09 2.20254e+09 1.03738e+09)
(-3.15492e+09 1.02277e+09 7.34237e+08)
(-1.70263e+09 1.80975e+08 4.51032e+08)
)
;
    }
    procBoundary121to122
    {
        type            processor;
        value           nonuniform List<vector> 
12
(
(-4.63956e+09 2.33072e+09 1.12791e+09)
(-1.9798e+09 1.60653e+09 6.1193e+08)
(-1.45537e+09 5.30781e+08 3.17718e+08)
(-1.11934e+09 7.64977e+07 1.02353e+08)
(-2.82767e+09 1.19411e+09 1.05896e+09)
(-1.59725e+09 4.907e+08 2.53248e+08)
(-1.1705e+09 7.46494e+07 -1.05062e+08)
(-7.43177e+08 7.56594e+07 -4.88249e+07)
(-2.14656e+09 3.8346e+08 2.03581e+08)
(-1.93135e+09 1.98553e+08 -8.48744e+07)
(-2.64476e+09 8.58465e+07 -1.68196e+08)
(-1.34603e+09 -3.12054e+07 -7.45651e+07)
)
;
    }
}


// ************************************************************************* //
