/*--------------------------------*- C++ -*----------------------------------*\
| =========                 |                                                 |
| \\      /  F ield         | OpenFOAM: The Open Source CFD Toolbox           |
|  \\    /   O peration     | Version:  2.4.0                                 |
|   \\  /    A nd           | Web:      www.OpenFOAM.org                      |
|    \\/     M anipulation  |                                                 |
\*---------------------------------------------------------------------------*/
FoamFile
{
    version     2.0;
    format      ascii;
    class       surfaceScalarField;
    location    "0.08";
    object      phib;
}
// * * * * * * * * * * * * * * * * * * * * * * * * * * * * * * * * * * * * * //

dimensions      [0 3 -1 0 0 0 0];

internalField   nonuniform List<scalar> 
490
(
0.74384
0.2187
0.120908
0.73289
0.111536
0.114066
0.754921
0.216726
0.108185
0.817805
0.133744
0.127327
0.721043
0.222217
0.13143
0.908132
0.183976
0.17883
0.634827
0.256336
0.191382
1.21714
0.126042
0.283971
0.926321
0.312466
0.245652
-0.0533137
0.423343
1.06907
-0.0384195
0.142007
1.07887
-0.0282782
0.130015
1.16656
-0.0160284
0.145067
1.18441
-0.0159125
0.1318
1.27543
-0.0215
0.152701
1.32267
-0.0452034
0.181936
1.40274
-0.0232286
0.199496
1.36752
-0.148634
0.309894
1.64315
-0.189317
0.226154
-0.303388
0.214983
1.2171
-0.334851
0.13749
1.29614
-0.238237
0.130918
1.31448
-0.176095
0.141722
1.32001
-0.155877
0.134432
1.37734
-0.228517
0.149694
1.4365
-0.259316
0.154949
1.50873
-0.287731
0.192272
1.51496
-0.342705
0.187845
1.5785
-0.479135
0.226279
-0.531029
0.134271
0.929314
0.066262
1.45042
0.143273
1.51492
0.134601
1.35571
0.125011
1.29595
0.133595
1.35688
0.158494
1.33481
0.250528
1.41149
0.18584
1.481
0.102496
0.136478
0.836988
0.0147528
0.235168
0.868491
0.133476
0.211574
0.962414
0.0784513
0.195317
1.07733
0.156247
0.185753
1.26162
0.106906
0.181744
1.35957
0.153224
0.187864
1.65207
0.156933
0.231282
1.70857
0.119361
0.25831
2.37035
-0.10116
0.313012
-0.025727
0.365912
1.06563
-0.0502194
0.213407
1.17834
-0.0468913
0.197679
1.23285
-0.0359231
0.204925
1.37105
-0.0389908
0.188842
1.47638
-0.0489789
0.203255
1.67024
-0.059791
0.201087
1.84954
-0.0356033
0.212737
2.08744
-0.0875697
0.27892
2.25557
-0.267185
0.224046
-0.335224
0.19594
1.2644
-0.13036
0.147239
1.28379
-0.127083
0.191719
1.36339
-0.131796
0.157989
1.4227
-0.150017
0.186153
1.53421
-0.176779
0.165983
1.61111
-0.209957
0.228214
1.78718
-0.228137
0.208738
1.94814
-0.288796
0.228109
2.13712
-0.382189
0.152303
-0.557258
0.13385
1.28504
0.158229
1.35924
0.126048
1.3674
0.160212
1.41561
0.119363
1.44756
0.15054
1.56493
0.164936
1.66873
0.34133
1.82543
0.168179
1.9424
0.161625
0.0491754
0.446959
-0.131412
0.555883
0.640677
-0.0202415
0.287276
0.794373
0.0604581
0.352854
0.978844
0.0834357
0.244193
1.23776
0.123521
0.235763
1.60882
0.107402
0.143001
1.76691
0.105055
0.218694
2.43536
-0.00134764
0.138037
2.48894
-0.020777
0.340632
-0.180007
0.194832
0.982119
-0.199966
0.166986
0.946717
-0.176386
0.389225
1.11646
-0.12224
0.217883
1.24871
-0.0938633
0.233888
1.46946
-0.0812871
0.187314
1.68655
-0.0918929
0.183292
1.96499
-0.088391
0.127744
2.26148
-0.183599
0.164681
2.69356
-0.25219
0.0233739
-0.334604
0.225108
1.15891
-0.22718
0.178388
1.24632
-0.207193
0.135117
1.26493
-0.20725
0.224387
1.39105
-0.1722
0.138371
1.50751
-0.173044
0.141279
1.72685
-0.182316
0.0993032
1.93988
-0.166552
0.0738624
2.17716
-0.249063
0.0562945
2.396
-0.352899
0.0341783
-0.358695
-0.109709
1.28786
0.0493587
1.30728
0.107808
1.39572
0.0738304
1.44758
0.0898671
1.54387
0.0699334
1.6258
0.117101
1.94944
0.0729696
2.06036
0.0415266
2.23306
0.013068
-0.0671862
-1.40259
-0.240298
0.0868488
-1.15511
-0.116014
0.528198
-0.545605
0.139544
0.06612
-0.153947
0.269318
0.341666
0.391001
0.450234
-0.0127231
0.843121
0.503342
0.191437
1.5769
0.5647
-0.11126
1.67048
0.557583
0.311518
2.67647
0.519622
0.0292397
0.549641
0.360022
-1.12171
-0.313092
0.596227
-0.585077
-0.343117
0.0796911
-0.327059
-0.236038
0.335447
0.221135
-0.075768
0.0307799
0.552516
0.029822
0.276346
1.10717
0.127136
0.00484313
1.43855
0.0944412
0.266625
2.07537
0.223926
-0.138487
2.12467
0.202215
0.291483
0.207917
-0.133743
0.21349
-0.363114
-0.0847474
0.0928536
-0.381762
0.294398
0.412341
-0.361424
0.0302852
0.587475
-0.263717
0.151187
0.922831
-0.197093
0.0328384
1.10172
-0.141022
0.188575
1.44491
-0.106886
-0.0680074
1.6339
-0.103767
0.194999
2.13277
-0.00407981
-0.258388
-0.0582616
0.199664
0.915762
0.0424262
0.965606
-0.0221819
0.960006
0.0503698
1.02383
0.0405908
1.11301
0.000579185
1.26949
0.0341104
1.39762
0.0400408
1.68761
-0.168868
1.77338
0.0979597
-0.430546
-2.30119
-0.212401
-1.57976
0.0944389
-1.04677
0.308677
-0.455491
0.674402
-0.0409712
0.866948
0.298598
1.1697
0.622844
1.17591
0.998692
1.37886
1.17479
1.18552
1.16959
-2.03314
-0.341619
-1.75725
-0.10176
-1.18387
0.0707488
-0.739041
0.26035
-0.0696028
0.473856
0.378799
0.72614
0.842355
0.978981
1.09599
0.986744
1.45674
1.11625
0.921477
-1.79457
-0.177946
-1.33871
-0.263229
-1.2408
0.00313164
-0.791516
-0.0377523
-0.48621
0.201388
0.25282
0.175684
0.681846
0.481948
1.24682
0.616771
1.41682
0.687851
0.770907
-0.48749
-0.672638
-0.394798
-0.324933
-0.0354625
0.129819
0.662192
0.911354
1.52071
)
;

boundaryField
{
    inlet
    {
        type            fixedValue;
        value           nonuniform 0();
    }
    outlet
    {
        type            calculated;
        value           nonuniform 0();
    }
    bottom
    {
        type            fixedValue;
        value           uniform 0;
    }
    top
    {
        type            symmetryPlane;
        value           nonuniform List<scalar> 
40
(
-2.38992e-15
-2.26639e-15
-3.13417e-15
-5.94758e-15
-2.73632e-15
-3.24718e-15
-3.8103e-15
-8.40879e-15
-3.9274e-15
-3.55081e-15
-5.03193e-15
-9.00334e-15
-4.49803e-15
-4.98206e-15
-5.44559e-15
-1.05182e-14
-5.5784e-15
-5.57738e-15
-6.69473e-15
-1.04227e-14
-6.06914e-15
-6.52337e-15
-7.42679e-15
-1.4625e-14
-7.06025e-15
-8.1911e-15
-8.01787e-15
-1.50339e-14
-6.49889e-15
-7.89201e-15
-1.01845e-14
-1.9146e-14
-5.33474e-15
-5.89077e-15
-9.24328e-15
-1.64417e-14
-4.54646e-15
-4.61479e-15
-6.78363e-15
-1.28259e-14
)
;
    }
    side1
    {
        type            symmetryPlane;
        value           nonuniform 0();
    }
    side2
    {
        type            symmetryPlane;
        value           nonuniform 0();
    }
    procBoundary11to3
    {
        type            processor;
        value           nonuniform List<scalar> 
50
(
-0.285238
-0.214653
-0.346942
-0.323955
-0.256885
-0.549894
-0.174413
-0.992328
-0.267296
-1.15059
-0.252767
-0.262486
-0.259507
-0.329587
-0.341513
-0.260205
-0.489331
-0.150204
-0.627979
0.10708
-0.0711568
-0.249179
-0.37169
-0.326346
-0.436457
-0.433593
-0.250556
-0.546832
-0.0604225
-0.504206
-0.0347245
-0.372386
-0.462319
-0.75845
-0.746696
-1.0039
-0.96852
-0.824648
-1.21422
-0.669176
-0.126834
-0.287663
-0.775548
-0.924016
-1.29419
-1.31783
-1.61142
-1.44319
-1.33238
-1.52743
)
;
    }
    procBoundary11to10
    {
        type            processor;
        value           nonuniform List<scalar> 
20
(
-0.79821
-0.953956
-1.05815
-0.9462
-0.713234
-1.07206
-1.194
-1.26734
-0.565106
-0.867144
-1.16285
-1.20921
2.14665
0.765266
0.0996681
-0.97381
2.72727
2.75858
1.54615
0.667041
)
;
    }
    procBoundary11to12
    {
        type            processor;
        value           nonuniform List<scalar> 
20
(
1.70688
1.67824
1.67187
1.59023
2.34643
2.58411
2.35957
2.09918
3.34423
2.81899
2.66365
2.43928
2.63082
2.82524
2.08957
2.18318
1.89266
1.57111
1.76706
1.45849
)
;
    }
    procBoundary11to19
    {
        type            processor;
        value           nonuniform List<scalar> 
50
(
-0.384226
-0.902614
-0.375198
-0.12168
-0.302351
-0.478741
-0.516189
-0.60523
-0.651138
-0.776733
-0.240025
-0.184057
-0.165573
-0.192571
-0.225675
-0.333773
-0.422736
-0.427838
-0.558289
-0.626734
-0.19696
-0.208373
-0.209305
-0.19457
-0.188724
-0.216412
-0.221834
-0.233325
-0.377049
-0.448546
-0.298133
-0.301616
-0.332363
-0.278262
-0.216919
-0.214518
-0.202085
-0.183357
-0.174749
-0.104695
-0.315071
-0.100263
-0.224338
-0.0670271
-0.0875027
0.0445128
-0.0103837
0.198741
0.176452
0.402586
)
;
    }
}


// ************************************************************************* //
