/*--------------------------------*- C++ -*----------------------------------*\
| =========                 |                                                 |
| \\      /  F ield         | OpenFOAM: The Open Source CFD Toolbox           |
|  \\    /   O peration     | Version:  2.4.0                                 |
|   \\  /    A nd           | Web:      www.OpenFOAM.org                      |
|    \\/     M anipulation  |                                                 |
\*---------------------------------------------------------------------------*/
FoamFile
{
    version     2.0;
    format      ascii;
    class       volVectorField;
    location    "0.11";
    object      U;
}
// * * * * * * * * * * * * * * * * * * * * * * * * * * * * * * * * * * * * * //

dimensions      [0 1 -1 0 0 0 0];

internalField   nonuniform List<vector> 
200
(
(-1.59519e+08 -8.54334e+07 -5.36503e+07)
(-1.03453e+08 -1.58321e+08 8.09795e+06)
(-1.20743e+08 -1.83923e+08 -6.80809e+07)
(-1.13676e+08 -2.15541e+08 -2.68345e+06)
(-1.58553e+08 -2.2515e+08 -6.56681e+07)
(-1.76528e+08 -2.32738e+08 2.17669e+07)
(-1.81237e+08 -2.24336e+08 -3.05562e+07)
(-2.08888e+08 -6.9025e+07 8.03123e+07)
(-1.86332e+08 8.62839e+07 9.4201e+07)
(-1.19846e+08 5.55168e+07 1.45885e+08)
(-2.534e+07 -1.75448e+08 1.5114e+07)
(-5.29498e+07 -1.72658e+08 -3.99121e+07)
(-2.5335e+07 -1.7022e+08 -1.54879e+07)
(-7.22892e+07 -1.78879e+08 -8.05136e+07)
(-6.91498e+07 -1.52768e+08 6.78943e+06)
(-1.20928e+08 -1.31811e+08 -9.90113e+07)
(-1.20222e+08 -1.03083e+08 6.67353e+06)
(-1.34098e+08 -9.12875e+07 -9.67184e+07)
(-1.05744e+08 -4.43198e+07 1.52941e+07)
(-7.61231e+07 1.7259e+07 -5.81072e+07)
(2.57584e+07 -2.26325e+08 -7.35917e+08)
(9.43208e+07 -1.15727e+08 2.32169e+07)
(2.90202e+07 -1.27383e+08 3.08758e+07)
(2.69739e+06 -1.01943e+08 -979729)
(-4.36359e+07 -1.20187e+08 -9.58204e+07)
(-4.38944e+07 -7.7831e+07 4.29587e+07)
(-8.50003e+07 -8.84365e+07 -1.2717e+08)
(-6.47388e+07 -4.3299e+07 1.02854e+07)
(-8.46544e+07 -1.66195e+07 -1.29699e+08)
(-2.83886e+07 278339 -2.83959e+07)
(2.96022e+07 4.87605e+07 4.75161e+07)
(1.02725e+07 -1.50514e+08 -5.08119e+08)
(5.3639e+07 -6.4325e+07 1.01478e+07)
(-1.38942e+07 -9.30528e+07 -3.8008e+07)
(-2.72453e+07 -4.44263e+07 4.03189e+07)
(-6.46266e+07 -6.66137e+07 -1.31136e+08)
(-5.10896e+07 -4.31622e+07 2.89002e+07)
(-7.49655e+07 -2.42935e+07 -1.42549e+08)
(-4.13533e+07 -1.56075e+06 1.55312e+07)
(-5.17074e+07 2.85039e+07 -1.31188e+08)
(-1.05786e+08 -2.19915e+07 3.34562e+07)
(-1.46444e+08 1.78929e+07 6.16068e+06)
(-1.23119e+08 -2.23592e+07 9.71904e+07)
(-1.54423e+08 -6.44357e+06 -1.17712e+07)
(-1.65165e+08 -4.01647e+07 6.34543e+07)
(-1.92198e+08 -1.81239e+07 -2.63736e+07)
(-1.7814e+08 2.79487e+06 9.34892e+07)
(-1.60068e+08 8.08948e+07 8.89257e+06)
(-1.17065e+08 1.03441e+08 1.09189e+08)
(-7.65785e+07 1.90982e+08 9.89012e+06)
(-1.26638e+08 -3.97453e+07 -8.08365e+07)
(-7.96735e+07 -2.04627e+07 9.22069e+07)
(-1.03477e+08 -2.11054e+06 -8.7517e+06)
(-6.59906e+07 1.5593e+06 9.67063e+07)
(-1.05777e+08 -2.45311e+07 -2.10448e+07)
(-8.70237e+07 -1.29084e+06 7.5536e+07)
(-1.25986e+08 -1.58652e+07 -5.66183e+07)
(-1.03179e+08 3.9227e+07 8.35075e+07)
(-8.91918e+07 -4.41065e+06 -1.10725e+08)
(-4.68086e+07 4.12989e+07 2.55093e+07)
(-1.78727e+06 1.38267e+06 2.82551e+07)
(-8.20614e+07 -1.06923e+08 -1.39332e+08)
(-2.69263e+07 -3.98147e+07 5.22135e+07)
(3.91518e+06 -8.17012e+07 7.8468e+07)
(4.25722e+06 9.4177e+06 1.49737e+07)
(-9.16557e+06 -8.00527e+07 4.93582e+06)
(-3.30559e+06 5.42654e+07 1.1066e+08)
(-3.56941e+07 -6.96584e+07 -1.09397e+08)
(-2.76192e+07 7.29059e+06 4.91897e+06)
(-6.79373e+07 -3.40651e+07 -1.90167e+08)
(-1.72246e+07 -1.1519e+08 -3.32043e+08)
(6.43472e+06 2.42592e+07 -3.63742e+07)
(-3.58681e+07 -8.11618e+07 -3.06202e+07)
(-2.52219e+07 2.05885e+07 1.88309e+07)
(6.73224e+06 -8.95677e+07 1.25239e+07)
(-3.87901e+06 4.20276e+07 5.87664e+07)
(-6.07148e+07 -5.62987e+07 -1.52506e+08)
(-4.40389e+07 2.01315e+07 4.92138e+07)
(-9.40852e+07 -2.41801e+07 -1.88567e+08)
(-6.98607e+07 3.32663e+07 3.01637e+07)
(-7.1956e+06 -4.84086e+07 3.26245e+07)
(2.30478e+07 2.0813e+07 -7.12861e+07)
(5.37775e+07 4.78163e+07 -1.03514e+08)
(2.13511e+07 -2.1783e+07 -2.67464e+07)
(-4.74374e+07 3.0537e+07 7.38421e+07)
(-5.90342e+07 -3.6899e+07 1.31719e+07)
(-6.67877e+07 1.07695e+08 7.37774e+07)
(-7.25634e+07 1.30043e+07 4.95905e+07)
(-6.50876e+07 1.6626e+08 1.09662e+08)
(-3.5591e+07 1.42489e+08 2.07743e+08)
(-2.40444e+07 -2.06876e+07 -1.71199e+07)
(-6.85703e+07 -8.37219e+07 6.64296e+07)
(-1.67689e+07 -4.06252e+07 -3.61968e+07)
(-2.16582e+07 -6.53414e+07 8.8406e+07)
(-1.82956e+07 -1.10818e+07 1.87259e+07)
(-3.98445e+07 5.11758e+06 6.31421e+07)
(1.48256e+07 1.41057e+07 5.10653e+07)
(1.36775e+07 6.0552e+07 5.80684e+07)
(-1.50416e+06 1.19378e+08 1.68882e+08)
(4.14875e+07 2.5972e+07 2.86058e+07)
(2.74556e+07 -1.09637e+08 -1.97065e+08)
(9.11152e+07 2.68859e+07 -7.03533e+07)
(1.15318e+07 -9.88045e+07 -9.70026e+06)
(4.29841e+07 -1.04012e+06 -1.02509e+08)
(6.67607e+07 -7.59614e+07 1.35871e+08)
(7.72012e+07 4.2545e+07 -2.50858e+07)
(6.89346e+07 -6.83954e+07 6.53732e+07)
(6.26103e+07 1.07011e+08 1.29879e+08)
(6.39199e+07 -3.75903e+07 -2.66271e+07)
(1.09082e+07 1.42572e+08 1.80486e+08)
(1.13902e+08 1.8106e+07 9.87768e+07)
(8.5867e+07 -1.09328e+08 -3.5622e+08)
(7.60573e+07 8.0228e+07 -1.77266e+08)
(7.39473e+07 -8.1683e+07 -2.52094e+07)
(7.05773e+07 5.25451e+07 -1.34276e+08)
(7.57306e+07 -9.70452e+07 5.7679e+07)
(5.22057e+07 1.20808e+08 9.75943e+07)
(2.68177e+07 -6.76274e+07 -6.72243e+07)
(-1.22442e+07 1.60497e+08 1.74691e+08)
(-5.57263e+07 -5.06441e+07 -2.18731e+08)
(1.46761e+08 -2.55362e+07 -2.12436e+08)
(3.09478e+07 -1.30231e+07 9.51195e+07)
(9.20178e+07 4.06364e+07 6.50009e+06)
(-1.9878e+08 -7.16192e+07 1.09021e+09)
(1.46918e+08 -7.62174e+07 9.80692e+07)
(7.05079e+07 -2.07513e+07 4.44547e+07)
(1.47795e+08 -3.7859e+07 -4.29302e+07)
(1.44034e+08 5.2086e+06 5.16408e+07)
(8.9002e+07 1.39029e+08 8.46358e+07)
(1.45453e+08 2.25945e+07 8.33023e+06)
(4.69166e+07 -1.34359e+08 2.07385e+07)
(1.50026e+08 -1.89855e+07 -6.43346e+07)
(5.28893e+07 -1.55824e+08 4.97098e+07)
(1.64206e+08 -5.5815e+07 -1.28398e+08)
(1.05244e+08 -9.02917e+07 1.11297e+08)
(1.36214e+08 -4.4852e+07 -3.27189e+08)
(1.2337e+08 -1.05801e+07 2.05157e+08)
(1.42529e+08 4.65611e+07 1.01578e+08)
(1.55148e+08 -1.95964e+07 -2.90245e+07)
(1.19577e+08 2.91208e+08 2.20534e+08)
(2.08508e+08 1.35761e+07 -4.51092e+07)
(1.53331e+08 -9.54283e+07 -1.36207e+08)
(2.03728e+08 2.106e+07 -1.07897e+08)
(1.12348e+08 -9.93716e+07 -2.88674e+07)
(1.81563e+08 1.57596e+07 -2.40926e+08)
(1.33269e+08 -7.01899e+07 1.38116e+08)
(1.85985e+08 2.59917e+07 -4.60761e+07)
(1.51533e+08 -6.76516e+07 -2.70249e+07)
(1.23025e+08 2.74796e+08 2.22447e+08)
(1.52796e+08 -3.8779e+07 -8.81195e+07)
(1.98973e+08 -1.46804e+08 -5.21778e+08)
(1.90192e+08 2.74568e+06 2.37273e+08)
(1.89344e+08 -1.04425e+08 -2.94581e+08)
(1.49986e+08 6.72636e+07 -2.16241e+08)
(1.29619e+08 -7.42431e+07 7.76991e+07)
(1.39961e+08 6.84371e+07 -2.14336e+08)
(1.09661e+08 -9.34246e+07 2.49871e+07)
(7.4737e+07 2.53125e+08 2.07814e+08)
(1.07051e+08 -8.31121e+07 -1.30881e+08)
(2.93376e+07 3.73064e+08 3.67364e+08)
(2.65271e+07 -7.00081e+07 5.56679e+08)
(4.12255e+07 -6.15388e+06 -1.46392e+08)
(-6.56952e+07 -2.67248e+07 1.38528e+09)
(3.84347e+08 6.25822e+07 1.07725e+08)
(2.76061e+08 -9.03249e+07 -1.35556e+08)
(2.43895e+08 -1.10526e+08 -3.174e+07)
(2.12452e+08 -9.65861e+07 -7.922e+07)
(1.5986e+08 -7.24656e+07 9.79775e+07)
(1.73361e+08 -1.17226e+08 -6.67556e+07)
(1.05665e+08 3.6539e+08 1.85281e+08)
(2.50995e+08 6.17364e+07 -1.59289e+08)
(1.59655e+08 -1.37658e+07 4.02665e+08)
(3.24186e+08 6.71778e+07 -4.46727e+07)
(2.24781e+08 -4.25174e+07 -3.87983e+07)
(2.55509e+08 1.27736e+07 -1.9969e+08)
(1.66561e+08 -2.25523e+07 9.86944e+07)
(1.8637e+08 -5.24462e+07 4.54269e+07)
(1.71029e+08 -1.16435e+08 -1.12518e+08)
(1.15714e+08 3.19036e+08 2.05123e+08)
(1.3825e+08 -2.64718e+06 -1.1692e+08)
(2.55578e+08 -3.84802e+07 -8.96479e+07)
(2.80041e+08 4.64645e+07 -3.74402e+07)
(2.38677e+08 -2.487e+07 -8.8615e+07)
(2.54377e+08 3.77434e+07 -1.48399e+08)
(1.73008e+08 -3.70555e+07 1.10278e+08)
(1.96808e+08 -6.38127e+06 -2.80343e+08)
(1.43416e+08 -5.35675e+07 7.69754e+07)
(1.24755e+08 2.12301e+08 1.96363e+08)
(1.37631e+08 -5.37338e+07 -1.39739e+08)
(1.27872e+08 4.96446e+08 4.86641e+08)
(1.80304e+08 -9.42363e+07 4.05886e+08)
(2.55041e+08 -1.24451e+08 -5.72163e+08)
(1.9983e+08 2.33214e+07 2.54524e+08)
(1.98421e+08 -6.18493e+07 -3.82279e+07)
(1.40883e+08 5.89726e+07 -2.56361e+08)
(1.19194e+08 -6.40852e+07 2.51688e+08)
(9.82909e+07 1.28007e+08 -1.01509e+07)
(1.15847e+08 -8.70994e+07 -1.49515e+08)
(6.27755e+07 4.80536e+08 4.49473e+08)
(1.57053e+08 1.30121e+07 -1.91063e+08)
)
;

boundaryField
{
    inlet
    {
        type            calculated;
        value           nonuniform 0();
    }
    outlet
    {
        type            calculated;
        value           nonuniform 0();
    }
    bottom
    {
        type            calculated;
        value           uniform (0 0 0);
    }
    top
    {
        type            symmetryPlane;
    }
    side1
    {
        type            symmetryPlane;
    }
    side2
    {
        type            symmetryPlane;
    }
    procBoundary14to6
    {
        type            processor;
        value           nonuniform List<vector> 
50
(
(-7.29864e+07 -1.06529e+08 -4.99653e+07)
(-7.89789e+07 -8.77745e+07 -6.83635e+07)
(-5.09216e+07 -1.835e+08 4.8369e+07)
(-2.8619e+06 -2.47801e+08 -6.00478e+07)
(1.06124e+07 -2.39001e+08 1.41858e+07)
(1.17847e+08 -1.6883e+08 -2.87529e+07)
(-2.77203e+08 2.9125e+08 2.52649e+08)
(6.1662e+08 -3.33725e+08 -2.97295e+07)
(-4.9969e+08 5.21084e+08 3.95093e+08)
(2.14636e+08 3.4058e+08 5.17112e+08)
(-3.67257e+07 -1.89454e+07 1.00448e+07)
(-3.02814e+07 -7.02158e+07 -6.15356e+07)
(-3.8622e+07 -1.65297e+07 -4.20752e+07)
(-6.15619e+07 -7.78642e+07 -2.67718e+07)
(-8.64064e+07 -4.54094e+07 -8.97957e+07)
(-1.28531e+08 -3.11571e+07 -1.9841e+07)
(-9.4759e+07 1.67566e+08 5.94983e+07)
(-3.03777e+08 2.16586e+08 1.9864e+07)
(-4.47672e+07 3.07595e+08 2.60056e+08)
(-1.02499e+08 2.06138e+08 1.95571e+08)
(1.87012e+08 4.21873e+07 -2.36153e+08)
(1.45981e+08 2.18444e+07 -1.64241e+07)
(2.07566e+08 9.10132e+07 -1.33893e+08)
(1.50627e+08 5.88501e+07 -349833)
(6.30029e+07 5.95923e+06 -9.07172e+07)
(7.63736e+07 4.60652e+07 -6.17205e+06)
(2.60698e+07 -1.18597e+08 -5.31723e+07)
(-6.45328e+07 1.22334e+08 2.33775e+07)
(-8.41103e+07 5.10212e+07 1.49029e+07)
(-3.49098e+07 2.47989e+08 1.61506e+08)
(2.62653e+08 -1.48847e+08 1.66114e+08)
(2.98176e+08 9.14974e+07 -1.26804e+08)
(1.3557e+08 3.4738e+07 -1.94747e+08)
(2.09909e+08 1.58391e+08 5.59404e+08)
(1.72597e+08 2.39673e+07 -2.46004e+07)
(1.87176e+08 -6.96953e+07 -5.78624e+07)
(1.82314e+08 8.60644e+07 5.94458e+07)
(1.13043e+08 -2.2322e+08 1.23625e+08)
(1.31956e+08 -1.51207e+07 5.43224e+07)
(8.52075e+07 2.36792e+08 6.97377e+07)
(2.32945e+08 -2.00239e+08 -6.82265e+08)
(1.17774e+08 -9.15167e+07 5.77654e+08)
(2.97055e+08 -8.90587e+06 2.30954e+08)
(2.34122e+08 -1.4182e+08 -1.22057e+08)
(2.69351e+08 -1.55654e+08 -4.75291e+07)
(2.31161e+08 -7.97811e+07 -5.13558e+07)
(2.00791e+08 -2.28757e+08 1.03322e+08)
(2.14569e+08 -1.66103e+08 -5.01073e+07)
(6.66362e+07 5.11022e+07 2.2949e+07)
(1.6073e+08 -9.02652e+07 -5.74302e+07)
)
;
    }
    procBoundary14to13
    {
        type            processor;
        value           nonuniform List<vector> 
20
(
(-1.54815e+08 -8.0287e+07 1.38154e+07)
(-1.07342e+08 -1.58987e+08 -1.87023e+08)
(1.84029e+07 -2.25924e+07 7.62213e+07)
(-4.05587e+07 -1.54756e+08 -5.93482e+08)
(-1.41677e+08 -2.73527e+07 -1.45085e+07)
(-7.69053e+07 -1.88727e+07 7.32994e+07)
(-6.2226e+07 -1.34935e+08 -3.59556e+08)
(3.50797e+07 2.5828e+07 1.06372e+08)
(-1.20188e+07 -6.06212e+07 -1.19042e+08)
(-9.25045e+07 -1.40284e+08 -1.00182e+08)
(7.59805e+07 7.42378e+06 4.52314e+06)
(1.01267e+08 -1.58818e+08 -5.69851e+08)
(6.49526e+07 -1.29566e+08 2.21004e+08)
(1.66402e+08 -1.40366e+07 -1.73361e+08)
(1.80397e+08 -1.35825e+08 -2.8999e+08)
(1.65637e+08 -7.43703e+07 2.49011e+08)
(1.54439e+08 -3.7379e+07 -2.64506e+08)
(1.87899e+08 -3.3977e+07 9.67792e+07)
(2.33357e+08 -2.336e+07 1.27712e+08)
(2.73996e+08 -1.49181e+08 -5.49237e+08)
)
;
    }
    procBoundary14to15
    {
        type            processor;
        value           nonuniform List<vector> 
20
(
(-9.45779e+07 2.25975e+08 3.38218e+07)
(-4.19802e+07 5.74526e+06 8.21648e+06)
(-3.52254e+07 2.60857e+06 -1.57001e+08)
(-1.33303e+06 3.67259e+07 -1.05411e+07)
(-3.74659e+07 1.0183e+08 3.61746e+07)
(-3.66801e+07 -6.04959e+06 -1.54724e+08)
(-2.73472e+07 2.75637e+07 -1.25047e+07)
(-9.80966e+07 7.30491e+06 -1.86214e+08)
(1.38228e+07 9.87811e+07 7.80652e+07)
(1.11989e+07 1.42508e+08 1.88363e+08)
(-2.36148e+07 -6.21743e+07 -2.10141e+08)
(-6.20476e+07 7.62631e+07 8.85165e+07)
(1.02808e+08 2.90463e+08 2.39031e+08)
(1.65957e+08 7.68053e+06 -5.12774e+07)
(6.07261e+07 3.39713e+08 3.42259e+08)
(6.60538e+07 -6.29226e+07 -1.92292e+08)
(1.42189e+08 3.05658e+07 -1.08869e+08)
(1.38713e+08 4.57444e+08 4.80265e+08)
(1.74211e+08 5.74732e+07 -1.86568e+08)
(1.82942e+08 4.16308e+08 4.59292e+08)
)
;
    }
    procBoundary14to22
    {
        type            processor;
        value           nonuniform List<vector> 
50
(
(-7.11233e+07 -5.94374e+07 -1.91877e+08)
(-5.8388e+07 4.46684e+07 -4.73887e+07)
(-7.83475e+07 -5.68847e+07 -1.26238e+08)
(-6.87537e+07 1.50973e+06 2.95854e+07)
(-7.56881e+07 -4.06416e+07 -1.49858e+08)
(-6.9547e+07 -1.6587e+07 3.86854e+07)
(-8.98719e+07 -9.21412e+06 -1.51177e+08)
(-5.85384e+07 -2.08957e+06 3.37959e+07)
(-8.20216e+07 1.18827e+07 -1.34778e+08)
(-3.76509e+07 3.38201e+06 3.69004e+07)
(-6.59324e+07 5.7816e+07 -2.62699e+07)
(-2.96484e+07 -7.52928e+07 -6.31261e+07)
(-6.24292e+07 9.06474e+07 -6.80816e+07)
(-6.76252e+07 -6.63967e+07 -1.42391e+08)
(-8.0135e+07 9.6662e+07 7.75893e+07)
(-1.04766e+08 -2.74683e+07 -1.76939e+08)
(-9.09477e+07 7.33171e+07 7.74187e+07)
(-1.28806e+08 -1.46527e+07 -1.8369e+08)
(-1.18917e+08 4.45811e+07 5.78374e+07)
(-1.48231e+08 1.60406e+07 -1.71606e+08)
(5.46838e+07 -1.37941e+08 -5.68093e+08)
(3.29029e+07 4.281e+07 4.73194e+07)
(8.22033e+07 -4.62946e+07 -2.08645e+07)
(-2.69751e+06 1.61842e+08 -8.58924e+07)
(8.50333e+06 -8.76031e+07 -1.11083e+08)
(-3.52692e+07 1.88095e+08 1.20113e+08)
(-6.56192e+07 -4.39754e+07 -1.74513e+08)
(-9.72587e+07 1.87831e+08 1.59375e+08)
(-1.14061e+08 -2.02288e+07 -2.2061e+08)
(-1.35967e+08 8.07279e+07 6.72338e+07)
(1.12537e+08 -8.21276e+07 3.38845e+08)
(1.49726e+08 -1.49093e+08 -6.07984e+08)
(1.02613e+08 3.37974e+07 4.85683e+07)
(1.17071e+08 -5.32117e+07 1.14643e+08)
(7.82462e+07 1.26678e+08 -2.50913e+08)
(4.65263e+07 -9.32763e+07 1.64765e+06)
(-1.18045e+07 2.89158e+08 2.17641e+08)
(3.45503e+07 -9.32797e+07 -1.62428e+08)
(-5.39134e+07 2.65188e+08 2.72972e+08)
(-2.04818e+07 -2.69505e+07 -2.04653e+08)
(2.24609e+08 -1.42349e+08 -5.92611e+08)
(1.17095e+08 -9.79503e+07 5.18244e+08)
(1.58567e+08 -8.46446e+07 -3.93124e+08)
(9.80261e+07 7.59508e+07 -9.79426e+07)
(9.01315e+07 -7.57516e+07 1.43138e+08)
(3.07416e+07 1.46752e+08 -1.21532e+08)
(6.52004e+07 -8.8027e+07 -8.46276e+07)
(-3.48086e+06 3.95254e+08 3.52712e+08)
(9.37998e+07 -697642 -1.90776e+08)
(8.91227e+07 3.89783e+08 3.77513e+08)
)
;
    }
}


// ************************************************************************* //
