/*--------------------------------*- C++ -*----------------------------------*\
| =========                 |                                                 |
| \\      /  F ield         | OpenFOAM: The Open Source CFD Toolbox           |
|  \\    /   O peration     | Version:  2.4.0                                 |
|   \\  /    A nd           | Web:      www.OpenFOAM.org                      |
|    \\/     M anipulation  |                                                 |
\*---------------------------------------------------------------------------*/
FoamFile
{
    version     2.0;
    format      ascii;
    class       volVectorField;
    location    "0.03";
    object      A_Source_unsmoothed;
}
// * * * * * * * * * * * * * * * * * * * * * * * * * * * * * * * * * * * * * //

dimensions      [1 -2 -2 0 0 0 0];

internalField   nonuniform List<vector> 
200
(
(0 0 0)
(0 0 0)
(-35683.9 -10257.4 -826.6)
(-0 -0 -0)
(-53081.5 -7205.64 10110.2)
(0 0 0)
(0 0 0)
(0 0 0)
(0 0 0)
(0 -0 -0)
(0 0 0)
(-0 -0 0)
(0 0 0)
(-12275 -5827.46 2840.69)
(0 0 0)
(0 0 0)
(0 0 0)
(0 0 0)
(0 -0 -0)
(0 0 0)
(0 0 0)
(-0 -0 -0)
(0 0 0)
(0 0 0)
(0 -0 0)
(0 0 0)
(0 0 0)
(0 -0 -0)
(0 0 0)
(0 0 0)
(0 0 0)
(0 0 0)
(0 -0 -0)
(0 0 0)
(0 0 0)
(0 0 0)
(-0 0 0)
(0 0 0)
(0 0 0)
(0 0 0)
(0 0 0)
(-0 -0 -0)
(-0 -0 -0)
(0 0 0)
(0 0 0)
(0 0 0)
(0 0 0)
(0 0 0)
(25918.8 -15605.9 3101.87)
(0 0 0)
(0 0 0)
(0 0 0)
(0 0 0)
(0 0 0)
(0 0 0)
(0 -0 -0)
(20142.3 -14351.6 32413.3)
(0 0 0)
(0 -0 0)
(0 0 0)
(-0 -0 -0)
(0 0 0)
(-0 -0 -0)
(0 0 0)
(0 0 0)
(0 0 0)
(0 0 0)
(0 0 0)
(0 0 0)
(0 0 0)
(0 0 0)
(0 0 0)
(0 0 0)
(0 0 0)
(0 0 0)
(0 0 0)
(0 0 0)
(0 0 0)
(0 0 0)
(0 0 0)
(0 0 0)
(0 0 0)
(0 0 0)
(0 0 0)
(-53245.4 -16842.5 -6697.47)
(0 0 0)
(0 0 0)
(0 0 0)
(0 -0 0)
(0 0 0)
(-0 -0 -0)
(-0 -0 0)
(0 0 0)
(0 0 0)
(0 0 0)
(0 0 0)
(0 -0 0)
(0 -0 0)
(0 0 0)
(0 0 -0)
(0 0 0)
(0 0 0)
(-1318.41 -6181.92 -3925.44)
(0 0 0)
(-0 -0 0)
(0 0 0)
(0 0 0)
(0 0 0)
(0 0 0)
(0 0 0)
(0 0 0)
(0 0 0)
(0 0 0)
(0 0 0)
(0 0 0)
(0 0 0)
(0 0 0)
(34449 -17056.5 18896.4)
(0 0 0)
(0 0 0)
(0 0 0)
(0 0 0)
(0 0 0)
(0 0 0)
(0 0 0)
(0 0 0)
(0 0 0)
(-41464.4 -4875.5 -2883.24)
(0 0 0)
(0 0 0)
(0 0 0)
(0 0 0)
(0 0 0)
(0 0 0)
(0 0 0)
(0 0 0)
(0 0 0)
(0 0 0)
(0 -0 -0)
(0 0 0)
(0 0 0)
(0 0 0)
(0 0 0)
(0 0 0)
(-0 0 0)
(0 0 0)
(-6352.87 -21316.6 -17338)
(0 0 0)
(-0 0 0)
(0 0 0)
(-0 0 0)
(0 0 0)
(0 0 0)
(0 0 0)
(0 0 0)
(0 0 0)
(0 0 0)
(0 0 0)
(-0 -0 0)
(0 -0 -0)
(0 0 0)
(0 0 0)
(0 0 0)
(0 0 0)
(0 0 0)
(0 0 0)
(0 0 0)
(0 0 0)
(0 0 0)
(0 0 0)
(0 0 0)
(0 0 0)
(0 0 0)
(0 0 0)
(0 0 0)
(0 0 0)
(0 0 0)
(0 0 0)
(0 0 0)
(0 0 0)
(0 0 0)
(-0 0 0)
(0 0 0)
(0 0 0)
(0 0 0)
(0 0 0)
(0 0 0)
(0 0 0)
(0 0 0)
(0 0 0)
(0 0 0)
(0 0 0)
(0 0 0)
(0 0 0)
(0 0 0)
(0 0 0)
(0 0 0)
(0 0 0)
(0 0 0)
(0 0 0)
)
;

boundaryField
{
    inlet
    {
        type            zeroGradient;
    }
    outlet
    {
        type            zeroGradient;
    }
    bottom
    {
        type            zeroGradient;
    }
    top
    {
        type            symmetryPlane;
    }
    side1
    {
        type            symmetryPlane;
    }
    side2
    {
        type            symmetryPlane;
    }
    procBoundary15to7
    {
        type            processor;
        value           uniform (0 0 0);
    }
    procBoundary15to14
    {
        type            processor;
        value           uniform (0 0 0);
    }
    procBoundary15to23
    {
        type            processor;
        value           uniform (0 0 0);
    }
}


// ************************************************************************* //
