/*--------------------------------*- C++ -*----------------------------------*\
| =========                 |                                                 |
| \\      /  F ield         | OpenFOAM: The Open Source CFD Toolbox           |
|  \\    /   O peration     | Version:  2.4.0                                 |
|   \\  /    A nd           | Web:      www.OpenFOAM.org                      |
|    \\/     M anipulation  |                                                 |
\*---------------------------------------------------------------------------*/
FoamFile
{
    version     2.0;
    format      ascii;
    class       volVectorField;
    location    "0.03";
    object      Ua;
}
// * * * * * * * * * * * * * * * * * * * * * * * * * * * * * * * * * * * * * //

dimensions      [0 1 -1 0 0 0 0];

internalField   nonuniform List<vector> 
200
(
(-8.31468 1.43782 -0.210382)
(-8.32253 1.44075 -0.211964)
(-8.32285 1.44272 -0.213011)
(-1.5722 0.335867 0.357388)
(-0.0306946 -0.229621 0.679959)
(-0.0303814 -0.229816 0.680086)
(-0.283671 -0.234466 0.710692)
(8.89196 -2.01181 0.938527)
(10.083 -2.23149 0.95988)
(10.0839 -2.2299 0.959014)
(3.90398 0.86558 -0.0551127)
(6.0252 0.766755 -0.0281762)
(8.90854 0.629933 0.00951631)
(13.2333 0.42397 0.066469)
(8.81461 0.206035 0.271002)
(5.0064 0.0629299 0.513129)
(-11.314 -0.285734 1.94148)
(-11.1788 -0.30295 1.93721)
(8.73184 -2.11153 1.02236)
(9.56061 -2.18604 0.983944)
(7.06112 0.803716 0.102521)
(8.73904 0.70237 0.0949807)
(10.7047 0.580041 0.0828851)
(13.2361 0.424038 0.066464)
(10.584 0.293228 0.189222)
(6.49057 0.153829 0.464549)
(-11.2474 -0.249923 1.93999)
(-8.63189 0.164033 1.82267)
(7.22198 -1.76991 1.09368)
(8.88793 -1.99987 1.01684)
(2.8853 16.7489 -7.76656)
(2.9135 16.3985 -7.60338)
(3.0513 15.7872 -7.31591)
(12.9668 0.845761 -0.136086)
(11.1419 0.651128 0.0784605)
(3.95092 8.78431 2.01683)
(3.75008 8.76173 2.01781)
(6.87674 2.6297 1.09917)
(7.03762 2.58459 1.10395)
(7.1464 2.58338 1.1137)
(6.43948 -0.302609 1.23183)
(-7.49809 1.26286 -0.106113)
(-7.17222 1.17159 -0.0603269)
(7.35306 -2.21128 1.8294)
(-2.46662 -0.0713102 0.778094)
(-6.41866 -0.178007 1.30143)
(-10.1744 -0.395923 1.8917)
(9.92512 -2.21605 0.96676)
(10.0834 -2.23244 0.960001)
(10.084 -2.2309 0.959219)
(5.56557 0.241277 1.0647)
(5.33395 1.24417 0.747527)
(7.94314 0.962907 0.52596)
(13.1207 0.400749 0.0851094)
(-6.82486 -0.156198 1.54223)
(-11.3829 -0.287026 1.94772)
(-11.3847 -0.287083 1.9479)
(-11.2267 -0.301377 1.94063)
(8.89112 -2.1265 1.01514)
(9.61687 -2.19164 0.981452)
(3.21972 2.87425 2.95965)
(3.21977 2.85289 2.97591)
(3.22092 2.8307 2.99165)
(5.20188 2.36644 2.39727)
(-4.61124 0.581467 1.91174)
(-11.3167 -0.250125 1.94424)
(-11.3268 -0.256085 1.94439)
(-8.09839 0.33878 1.83194)
(7.47063 -1.74298 1.0919)
(8.97629 -1.97625 1.01889)
(2.70911 16.8208 -7.79935)
(2.65313 16.479 -7.64232)
(2.57854 16.0212 -7.4314)
(2.65773 16.4708 -7.63703)
(3.23485 12.9123 -2.81071)
(3.69239 8.87375 2.0343)
(3.65244 8.52977 1.96708)
(6.67372 2.87218 1.22153)
(6.84013 2.85732 1.234)
(6.95309 2.86786 1.24762)
(7.27481 -0.393284 1.29908)
(7.32697 -0.377199 1.39189)
(-7.24581 0.559296 0.992466)
(-8.06422 0.42842 0.867594)
(-8.07634 0.430391 0.866739)
(-8.07625 0.430718 0.866659)
(-7.74358 1.51272 0.572459)
(-4.98928 7.27016 -1.21362)
(9.64141 -1.95259 0.896053)
(9.81504 -2.06978 0.924971)
(5.86546 0.0278668 1.34508)
(3.24197 2.71373 3.07208)
(3.22291 2.72709 3.07989)
(-2.27423 1.56758 1.95578)
(-8.07096 0.431399 0.868031)
(-9.00398 0.235094 1.16199)
(-11.3604 -0.262547 1.91323)
(-6.74248 1.99016 1.44857)
(8.21704 -1.56355 0.994847)
(9.21618 -1.85502 0.970049)
(3.22878 2.72777 3.08069)
(3.22839 2.7283 3.08106)
(3.22839 2.7283 3.08107)
(3.22804 2.72822 3.08099)
(2.52527 2.59274 2.93373)
(-8.3307 2.5226 -1.97083)
(-8.5055 2.60471 -2.14857)
(6.18018 4.82013 2.08801)
(6.25478 4.82844 2.11251)
(6.27668 4.828 2.12261)
(3.22671 2.7814 3.04015)
(3.22668 2.77476 3.04519)
(3.22673 2.76797 3.05012)
(3.22719 2.77518 3.04496)
(4.8762 3.93533 2.50405)
(6.33298 4.85078 2.13336)
(6.35057 4.84909 2.13758)
(6.36405 4.84782 2.14099)
(6.35074 4.8463 2.14744)
(6.33342 4.84433 2.15583)
(4.69251 -1.19517 1.52956)
(5.58156 -0.274204 0.0697882)
(-3.81258 0.440093 2.34692)
(-5.64115 0.384968 1.79057)
(-8.06869 0.44245 0.864292)
(-5.86933 6.39243 -0.932976)
(-5.43513 7.56138 -1.28371)
(-5.4313 7.56651 -1.28272)
(-5.42899 7.56508 -1.28239)
(-5.42599 7.56321 -1.28196)
(1.01413 -0.163487 1.08284)
(3.23259 2.70835 3.06228)
(3.22075 2.72644 3.07969)
(-2.37826 1.53744 1.9669)
(-8.28932 0.742313 0.369661)
(-9.5355 2.53259 -2.4693)
(-9.48965 2.60133 -2.46576)
(-5.55115 7.41988 -1.31762)
(-5.49808 7.48008 -1.30252)
(-5.47758 7.49914 -1.29702)
(3.22515 2.72687 3.0795)
(3.22833 2.72829 3.08104)
(3.22818 2.72829 3.08098)
(2.5291 2.7134 2.77696)
(-9.5659 2.45688 -2.48414)
(-9.60837 2.45641 -2.50316)
(-9.60837 2.45641 -2.50317)
(-9.59303 2.46284 -2.4987)
(-9.57337 2.47107 -2.49297)
(-9.54917 2.4812 -2.48591)
(3.22545 2.7578 3.05734)
(3.22743 2.75497 3.06059)
(3.22724 2.75157 3.06297)
(2.44885 2.73734 2.72258)
(-9.48261 2.46913 -2.45963)
(-9.50371 2.47211 -2.47273)
(-9.42625 2.4837 -2.45021)
(5.24169 4.6799 1.81467)
(5.68851 4.74737 1.95589)
(5.83119 4.76946 2.01197)
(-7.17712 1.00781 -1.06801)
(-1.68338 3.40902 -14.0903)
(1.20616 4.10881 -3.15784)
(4.01662 4.77451 8.05369)
(-5.64708 1.2511 2.14964)
(6.65589 2.9685 0.0259821)
(6.47392 3.2914 -0.137492)
(5.79261 3.59852 -0.280387)
(6.00474 3.64102 -0.278016)
(6.16591 3.67297 -0.27621)
(-7.14164 1.01304 -1.11491)
(-1.62464 3.38781 -13.7393)
(2.92943 2.9262 2.17328)
(3.83318 4.68624 7.85198)
(-7.66955 1.23887 0.383925)
(-9.00393 2.5204 -2.38869)
(-8.65664 2.58064 -2.33918)
(2.3308 4.2741 -0.536737)
(2.65388 4.33498 -0.521298)
(2.87522 4.37761 -0.514687)
(2.52776 2.61239 2.78586)
(3.22151 2.72919 3.05031)
(3.22779 2.72829 3.07402)
(1.75736 2.69943 2.44106)
(-9.58437 2.45669 -2.48316)
(-9.60836 2.45641 -2.49493)
(-9.60835 2.45641 -2.49596)
(-9.58193 2.46194 -2.48943)
(-9.54801 2.46902 -2.48155)
(-9.50623 2.47773 -2.47223)
(3.0763 2.72523 2.99248)
(3.22606 2.74854 3.05215)
(3.22699 2.74608 3.05949)
(1.61526 2.71274 2.36083)
(-9.53829 2.46348 -2.46868)
(-9.54937 2.46525 -2.4768)
(-9.50385 2.47207 -2.46463)
(4.01002 4.49551 1.45383)
(4.93366 4.63442 1.73316)
(5.25906 4.68393 1.84251)
)
;

boundaryField
{
    inlet
    {
        type            calculated;
        value           nonuniform 0();
    }
    outlet
    {
        type            calculated;
        value           uniform (0 0 0);
    }
    bottom
    {
        type            calculated;
        value           uniform (0 0 0);
    }
    top
    {
        type            symmetryPlane;
    }
    side1
    {
        type            symmetryPlane;
    }
    side2
    {
        type            symmetryPlane;
    }
    procBoundary15to7
    {
        type            processor;
        value           nonuniform List<vector> 
50
(
(-2.7317 -1.07413 1.11417)
(-3.49915 -1.14397 1.14601)
(-3.49342 -1.14682 1.14744)
(-0.268321 -1.39104 1.06753)
(0.0423857 -0.257581 0.590686)
(0.027905 -0.23088 0.594564)
(1.51919 -0.413173 0.656717)
(10.0661 -1.39166 0.852401)
(10.0781 -1.39213 0.852457)
(10.1979 -1.42174 0.732678)
(8.60683 -0.509357 1.54175)
(7.55692 -2.18736 2.00992)
(8.29895 -2.66167 2.17832)
(9.45989 -2.81119 2.28005)
(5.8396 -2.43012 2.35836)
(3.45867 -2.16732 2.39744)
(8.69236 -1.34003 0.944545)
(10.0773 -1.39207 0.852568)
(10.078 -1.39123 0.852379)
(10.2 -1.42246 0.73062)
(8.74975 -0.473019 1.56244)
(8.80935 -0.461669 1.62575)
(8.76383 -0.721249 1.73323)
(8.2675 -2.5628 2.18774)
(-6.53556 0.318161 0.74437)
(-6.8112 0.346533 0.766014)
(-7.15388 0.870518 1.77786)
(7.20512 0.261162 0.466416)
(10.0689 -1.39026 0.852918)
(6.70281 -1.60934 1.37805)
(5.83446 -1.27175 1.74642)
(6.16228 -0.0423909 -0.77751)
(1.97642 0.235175 4.57696)
(1.92224 0.231076 4.66799)
(1.12023 0.254086 4.32559)
(-2.62854 2.49744 4.71033)
(0.846407 4.94621 -0.588333)
(0.193884 5.21539 -0.7295)
(0.23635 5.25425 -0.729781)
(0.24952 5.08442 -0.639233)
(-7.20183 1.0055 -1.016)
(-1.66093 3.41925 -14.1604)
(1.22364 4.11353 -3.16782)
(4.07014 4.79004 8.09737)
(4.36231 4.64622 7.81355)
(12.0214 1.46523 0.608105)
(12.1334 1.85437 0.391746)
(12.2302 2.46628 0.131376)
(12.2301 2.46649 0.131178)
(12.2297 2.4663 0.130679)
)
;
    }
    procBoundary15to14
    {
        type            processor;
        value           nonuniform List<vector> 
20
(
(-8.25463 1.42939 -0.205843)
(-7.48237 1.14804 -0.104404)
(-7.44879 1.14765 -0.101435)
(-2.99046 8.18117 -3.55492)
(6.40597 0.45485 0.517518)
(-0.443681 0.761552 0.209973)
(3.11435 2.86877 2.90274)
(2.75247 17.0842 -7.92048)
(6.07397 -0.353959 1.12666)
(4.98572 -0.143945 1.06329)
(3.22891 2.7264 3.0796)
(3.22653 2.78753 3.03506)
(-10.893 -5.69198 2.65294)
(-6.68063 0.24608 0.241797)
(-3.72699 1.38783 0.814367)
(-2.12702 1.80003 1.26862)
(-8.43369 -2.03228 0.716591)
(-6.70598 0.296941 0.121869)
(-4.88385 1.15972 0.423647)
(-3.64912 1.52027 0.758268)
)
;
    }
    procBoundary15to23
    {
        type            processor;
        value           nonuniform List<vector> 
50
(
(3.09895 19.3148 -8.97419)
(3.09896 19.3148 -8.9742)
(3.09896 19.3148 -8.97421)
(3.10836 19.2959 -8.96361)
(3.73748 14.8523 -3.25489)
(4.36598 10.4462 2.37719)
(4.41434 10.3444 2.36272)
(8.1668 2.54453 1.04745)
(8.20828 2.44488 1.03388)
(8.21624 2.41121 1.03233)
(3.09895 19.3148 -8.97421)
(3.09895 19.3149 -8.97422)
(3.09896 19.3149 -8.97423)
(3.09916 19.3134 -8.97231)
(3.72519 14.8776 -3.26173)
(4.35789 10.4628 2.38058)
(4.39843 10.3775 2.3683)
(8.1827 2.51146 1.04188)
(8.21143 2.42821 1.03351)
(8.20994 2.40052 1.03626)
(3.1005 19.1157 -8.8295)
(3.10033 19.1376 -8.8454)
(3.10017 19.1596 -8.86135)
(3.10061 19.1357 -8.84294)
(3.75264 14.6276 -3.13776)
(4.4076 10.1894 2.35987)
(4.46989 9.91283 2.33414)
(5.82344 3.59672 1.7262)
(-7.51603 3.24395 8.84724)
(-7.75311 3.23792 8.9738)
(3.10231 18.8787 -8.65724)
(3.10202 18.9213 -8.68821)
(3.10168 18.9641 -8.71928)
(3.08085 18.8894 -8.67416)
(-6.25182 5.25834 -2.60699)
(-7.55692 3.53928 -1.79731)
(-7.40096 3.54231 -1.75375)
(5.00696 3.81827 1.75532)
(-7.53729 3.25377 8.84882)
(-7.77034 3.24334 8.97864)
(3.10162 18.6036 -8.43925)
(3.10395 18.6688 -8.48738)
(3.10347 18.7311 -8.53422)
(3.0271 18.5614 -8.44531)
(-8.14056 3.50574 -2.50779)
(-8.80419 2.86067 -2.2194)
(-8.7021 2.86865 -2.19049)
(4.26534 3.8961 1.66279)
(-7.50883 3.26062 8.79909)
(-7.75756 3.24705 8.9421)
)
;
    }
}


// ************************************************************************* //
