/*--------------------------------*- C++ -*----------------------------------*\
| =========                 |                                                 |
| \\      /  F ield         | OpenFOAM: The Open Source CFD Toolbox           |
|  \\    /   O peration     | Version:  2.4.0                                 |
|   \\  /    A nd           | Web:      www.OpenFOAM.org                      |
|    \\/     M anipulation  |                                                 |
\*---------------------------------------------------------------------------*/
FoamFile
{
    version     2.0;
    format      ascii;
    class       volScalarField;
    location    "0.03";
    object      alpha;
}
// * * * * * * * * * * * * * * * * * * * * * * * * * * * * * * * * * * * * * //

dimensions      [0 0 0 0 0 0 0];

internalField   nonuniform List<scalar> 
200
(
9.87758e-28
8.33697e-26
7.36423e-24
6.54367e-22
5.45775e-20
3.97967e-18
2.35793e-16
1.01618e-14
2.40994e-13
1.01617e-14
2.96845e-25
2.34013e-23
1.98546e-21
1.79483e-19
1.59165e-17
1.25729e-15
8.12635e-14
3.85216e-12
1.01491e-10
3.85213e-12
8.61204e-23
6.13768e-21
4.65603e-19
4.04968e-17
3.77151e-15
3.24995e-13
2.31057e-11
1.21693e-09
3.60643e-08
1.21692e-09
2.42084e-20
1.56222e-18
9.68863e-17
7.02513e-15
6.49975e-13
6.16065e-11
4.8665e-09
2.88334e-07
9.76439e-06
2.88332e-07
6.03756e-26
2.86356e-24
9.7052e-23
1.77542e-21
4.10933e-22
2.12641e-20
1.1631e-18
4.59606e-17
9.9128e-16
4.59634e-17
2.67131e-23
1.35736e-21
4.95312e-20
9.80448e-19
1.34548e-19
6.2029e-18
3.67517e-16
1.5842e-14
3.7578e-13
1.58422e-14
1.08546e-20
5.93947e-19
2.34762e-17
5.06597e-16
4.20752e-17
1.47033e-15
9.50153e-14
4.505e-12
1.18715e-10
4.50493e-12
3.9584e-18
2.34637e-16
1.01163e-14
2.40036e-13
1.3055e-14
2.53564e-13
1.80144e-11
9.48979e-10
2.81292e-08
9.48968e-10
3.99323e-28
1.77526e-26
5.61426e-25
9.53047e-24
1.52185e-24
6.1145e-23
3.10913e-21
1.13529e-19
2.24845e-18
4.60614e-19
1.65608e-25
7.85268e-24
2.66034e-22
4.85951e-21
5.08604e-22
1.65703e-20
9.07143e-19
3.5874e-17
7.74266e-16
8.65079e-17
6.27954e-23
3.19012e-21
1.16375e-19
2.30172e-18
1.65671e-19
3.62863e-18
2.15084e-16
9.27583e-15
2.20062e-13
1.3278e-14
2.12603e-20
1.16309e-18
4.59609e-17
9.91351e-16
5.31683e-17
5.74469e-16
3.70888e-14
1.75859e-12
4.63452e-11
1.75861e-12
4.00713e-28
1.78098e-26
5.63023e-25
9.54544e-24
5.65051e-25
1.42509e-25
5.94799e-24
2.02264e-22
3.72361e-21
3.16973e-21
1.66153e-25
7.87675e-24
2.66774e-22
4.86963e-21
2.67248e-22
3.94446e-23
1.61352e-21
5.9018e-20
1.17059e-18
3.30265e-19
6.29901e-23
3.19932e-21
1.16683e-19
2.30689e-18
1.16771e-19
9.62438e-21
3.53683e-19
1.40015e-17
3.02328e-16
3.3796e-17
2.13218e-20
1.16621e-18
4.60741e-17
9.93525e-16
4.60857e-17
2.10602e-18
5.59982e-17
2.41461e-15
5.72822e-14
2.41486e-15
6.07692e-26
2.88079e-24
9.75669e-23
1.78094e-21
9.75602e-23
2.85612e-24
1.91217e-25
1.49772e-23
1.64812e-21
1.6941e-19
2.68772e-23
1.36509e-21
4.97858e-20
9.84288e-19
4.97832e-20
1.35701e-21
2.8731e-23
7.93547e-23
1.45712e-21
1.47372e-21
1.09171e-20
5.9711e-19
2.35902e-17
5.08689e-16
2.35894e-17
5.95407e-19
1.12923e-20
1.74609e-20
3.43184e-19
7.02533e-20
3.97958e-18
2.35795e-16
1.01619e-14
2.40996e-13
1.01617e-14
2.35594e-16
4.03654e-18
2.79241e-18
5.90612e-17
2.73896e-18
)
;

boundaryField
{
    inlet
    {
        type            zeroGradient;
    }
    outlet
    {
        type            zeroGradient;
    }
    bottom
    {
        type            fixedValue;
        value           uniform 0;
    }
    top
    {
        type            symmetryPlane;
    }
    side1
    {
        type            symmetryPlane;
    }
    side2
    {
        type            symmetryPlane;
    }
    procBoundary10to2
    {
        type            processor;
        value           nonuniform List<scalar> 
50
(
3.12998e-30
2.72837e-28
2.40784e-26
2.05867e-24
1.61235e-22
1.09174e-20
5.97109e-19
2.35902e-17
5.08688e-16
2.35901e-17
1.27354e-28
5.66368e-27
1.79222e-25
3.05032e-24
1.16855e-24
6.2706e-23
3.18683e-21
1.16314e-19
2.30132e-18
1.16035e-19
8.8157e-31
3.69435e-29
1.09725e-27
1.74345e-26
4.29547e-27
1.91575e-25
9.11552e-24
3.09914e-22
5.69117e-21
2.6019e-21
8.98754e-31
3.75797e-29
1.11387e-27
1.76298e-26
1.11645e-27
1.64658e-27
1.69298e-25
1.85316e-23
2.00363e-21
2.03346e-19
1.28286e-28
5.69928e-27
1.80169e-25
3.05447e-24
1.79463e-25
1.77678e-25
2.30246e-23
2.92096e-21
3.47477e-19
3.81198e-17
)
;
    }
    procBoundary10to9
    {
        type            processor;
        value           nonuniform List<scalar> 
20
(
1.21245e-29
3.84017e-27
1.16823e-24
3.34591e-22
1.0184e-27
4.22438e-25
1.60212e-22
5.42521e-20
6.92731e-30
2.69917e-27
9.60755e-25
3.06325e-22
7.22126e-30
2.81095e-27
9.97561e-25
3.14919e-22
1.02555e-27
4.25215e-25
1.612e-22
5.45648e-20
)
;
    }
    procBoundary10to11
    {
        type            processor;
        value           nonuniform List<scalar> 
20
(
2.35817e-16
8.12692e-14
2.31062e-11
4.8662e-09
1.3585e-18
3.95343e-16
9.70661e-14
1.8013e-11
3.79952e-17
6.00503e-15
5.17806e-13
4.30886e-14
2.88188e-19
2.96837e-17
2.34589e-15
8.56863e-17
1.58862e-17
1.33771e-19
5.80871e-18
1.48859e-19
)
;
    }
    procBoundary10to18
    {
        type            processor;
        value           nonuniform List<scalar> 
50
(
6.40118e-18
3.9662e-16
1.98646e-14
8.95718e-13
6.16198e-11
6.4881e-09
5.76567e-07
3.90393e-05
0.00154223
3.90393e-05
1.2511e-15
8.08968e-14
3.83637e-12
1.01118e-10
4.08968e-12
2.40977e-11
1.89754e-09
1.12449e-07
3.80883e-06
1.12449e-07
6.20164e-18
3.67521e-16
1.58421e-14
3.75787e-13
1.64157e-14
4.98125e-14
3.51625e-12
1.85241e-10
5.49117e-09
1.85241e-10
6.21818e-18
3.68425e-16
1.58778e-14
3.76552e-13
1.58787e-14
4.43096e-16
4.83395e-15
2.28918e-13
6.03295e-12
2.28918e-13
1.25728e-15
8.12632e-14
3.85216e-12
1.01491e-10
3.85216e-12
8.12634e-14
1.26276e-15
2.51894e-16
5.59791e-15
2.35983e-16
)
;
    }
}


// ************************************************************************* //
