/*--------------------------------*- C++ -*----------------------------------*\
| =========                 |                                                 |
| \\      /  F ield         | OpenFOAM: The Open Source CFD Toolbox           |
|  \\    /   O peration     | Version:  2.4.0                                 |
|   \\  /    A nd           | Web:      www.OpenFOAM.org                      |
|    \\/     M anipulation  |                                                 |
\*---------------------------------------------------------------------------*/
FoamFile
{
    version     2.0;
    format      ascii;
    class       volScalarField;
    location    "0.03";
    object      nut;
}
// * * * * * * * * * * * * * * * * * * * * * * * * * * * * * * * * * * * * * //

dimensions      [0 2 -1 0 0 0 0];

internalField   nonuniform List<scalar> 
200
(
0.000724751
0.000327372
0.000179995
0.000152508
0.00020925
0.000109324
0.000160528
0.000146848
0.000224669
0.00020799
0.000326833
0.000345715
0.000140118
0.000148563
0.000107786
0.000146366
0.000120511
0.000201883
0.000237304
0.000291263
0.000111078
0.000167898
0.000354869
0.000140748
0.000169982
0.000145823
0.000151356
0.000257688
0.000272405
0.000324039
0.000362453
8.82954e-05
8.18189e-05
0.000247984
0.00022719
0.000131957
0.000288579
0.000237853
0.000445766
0.00072357
0.000164186
0.000480338
0.000340693
0.000658455
0.000145961
0.000224427
0.00011265
0.000133669
0.000150884
0.00017847
0.000483731
0.000273815
0.000550309
0.000302952
0.00066096
0.000170381
0.000284875
0.000327705
0.00035855
0.000258478
0.000245716
0.000298737
0.000242795
0.000169239
0.000141645
0.000134949
0.000130314
0.000263907
0.000448462
0.000356156
0.000160827
0.000233658
0.000192317
0.000185611
5.94689e-05
0.000295694
0.000333619
0.000321811
0.000615914
0.000766006
0.000594458
0.000476279
0.00138284
0.000318095
0.00148413
0.000125473
0.000795061
0.00035507
0.000354801
0.000248851
0.000343
0.000819359
0.000676565
0.000949119
0.000148364
0.00207695
0.000234461
0.000523979
0.000427339
0.000666201
0.000764025
0.00056094
0.000765727
0.000604372
0.000978425
0.00039412
0.000308778
0.000371911
0.000519931
0.00071284
0.000305725
0.000534895
0.000454824
0.000449234
0.000405614
0.000344799
0.000344383
0.000449812
0.000657655
0.00105832
0.000552849
0.000452926
0.000997354
0.000619837
0.000186661
0.00188914
0.000191059
0.00139392
0.000520029
0.000483888
0.000791555
0.0007574
0.00071827
0.00110418
0.00143642
0.000276431
0.00337112
0.000406682
0.000573319
0.000445592
0.000653638
0.00111708
0.000736547
0.000802055
0.000920746
0.00162727
0.000580265
0.000112694
0.000467784
0.000560786
0.000690705
0.0011206
0.000960517
0.000491754
0.00061911
0.00055675
0.000335255
0.000858772
0.00105599
0.00101811
0.000677672
0.00108394
0.00105468
0.00204268
0.000825101
0.000364354
0.00219153
0.000309817
0.000546069
0.000105166
0.000750983
0.00102081
0.000317049
0.000600367
0.00166945
0.00146068
0.000989689
0.00267361
0.00059763
0.000538611
0.00124616
0.000379059
0.000728989
0.00171571
0.00108548
0.00123827
0.00148461
0.000733653
0.00103192
0.00107978
0.000704164
0.000984233
0.00255265
0.00130736
0.000540537
0.00093129
0.000612019
0.00142046
0.00162207
0.0013398
)
;

boundaryField
{
    inlet
    {
        type            calculated;
        value           nonuniform 0();
    }
    outlet
    {
        type            calculated;
        value           nonuniform 0();
    }
    bottom
    {
        type            calculated;
        value           nonuniform List<scalar> 
40
(
7.54645e-28
4.16499e-28
8.69479e-29
2.85947e-28
2.65304e-28
2.9303e-28
3.25404e-28
9.81569e-29
1.87554e-28
9.14032e-29
2.81177e-28
7.05675e-29
1.07646e-28
7.43691e-29
1.22402e-28
2.05954e-28
3.12714e-28
5.84864e-29
1.76143e-28
2.0689e-28
6.70507e-29
1.53484e-28
1.56107e-28
2.35729e-28
3.59554e-28
7.61473e-29
2.39227e-28
2.7201e-28
1.344e-28
2.62391e-28
2.53891e-28
4.39011e-28
3.53297e-28
2.21761e-28
3.69332e-28
5.32717e-28
2.36604e-28
3.48024e-28
3.20269e-28
6.13985e-28
)
;
    }
    top
    {
        type            symmetryPlane;
    }
    side1
    {
        type            symmetryPlane;
    }
    side2
    {
        type            symmetryPlane;
    }
    procBoundary10to2
    {
        type            processor;
        value           nonuniform List<scalar> 
50
(
0.000424286
0.000850663
0.000259468
0.000236345
0.000133582
0.000202924
0.000162771
0.000259034
0.000323644
0.000226019
0.00126497
0.000211495
0.000706889
0.000259683
0.00027045
0.000102438
7.4951e-05
0.000142257
0.000170664
9.7766e-05
0.000359692
0.000645175
0.000618368
0.000770458
0.000173306
0.000645591
0.000356458
0.000118012
0.000165153
0.000206564
0.000378912
0.000441075
0.00040691
0.000195065
0.000686231
0.000142441
0.00111164
0.000349453
0.000234044
0.000194626
0.000651448
0.000659931
0.00137158
0.000530241
0.000209776
0.000884097
0.000120449
0.000415459
0.000120522
0.000235647
)
;
    }
    procBoundary10to9
    {
        type            processor;
        value           nonuniform List<scalar> 
20
(
0.000303505
0.000225157
0.000292983
0.000288173
0.000630014
0.000284806
0.000165674
0.000460925
0.000224673
0.000614621
0.000226101
0.000359348
0.000316411
0.000248099
0.0004135
0.000477301
0.000584896
0.000681929
0.000825888
0.000924086
)
;
    }
    procBoundary10to11
    {
        type            processor;
        value           nonuniform List<scalar> 
20
(
0.000279349
0.000232128
0.000294701
0.000554123
0.000180212
0.000337594
0.000542806
0.0011568
0.000301812
0.000547532
0.00058662
0.00120431
0.000304319
0.000698518
0.0011861
0.00282973
0.000317941
0.000433914
0.00195601
0.00206419
)
;
    }
    procBoundary10to18
    {
        type            processor;
        value           nonuniform List<scalar> 
50
(
0.000226663
0.000289327
7.17113e-05
0.000263941
0.000167093
0.000254275
0.000351572
0.000486737
0.00087022
0.000681587
0.000334454
4.3278e-05
0.00014923
0.000122273
0.000273573
0.000111023
0.000190122
0.000603421
0.000532715
0.000587101
0.000413734
0.000185752
0.000149008
0.000357832
0.000144423
0.00060793
0.00030829
0.000480213
0.00136375
0.000915363
0.000788442
0.000731277
0.000274414
0.000181638
0.000358491
0.000378689
0.000718648
0.000599425
0.00129175
0.0021592
0.000808859
0.00193147
0.000994268
0.000288258
0.000667848
0.000471986
0.0009046
0.00101046
0.00163037
0.00221969
)
;
    }
}


// ************************************************************************* //
