/*--------------------------------*- C++ -*----------------------------------*\
| =========                 |                                                 |
| \\      /  F ield         | OpenFOAM: The Open Source CFD Toolbox           |
|  \\    /   O peration     | Version:  2.4.0                                 |
|   \\  /    A nd           | Web:      www.OpenFOAM.org                      |
|    \\/     M anipulation  |                                                 |
\*---------------------------------------------------------------------------*/
FoamFile
{
    version     2.0;
    format      ascii;
    class       volVectorField;
    location    "0.03";
    object      Ub;
}
// * * * * * * * * * * * * * * * * * * * * * * * * * * * * * * * * * * * * * //

dimensions      [0 1 -1 0 0 0 0];

internalField   nonuniform List<vector> 
200
(
(6.1898 4.79032 0.810254)
(3.85214 2.5818 2.98714)
(3.69696 -1.02612 -0.564761)
(3.1023 -1.92545 -0.554024)
(3.94591 -4.58755 -3.31606)
(4.03689 -2.21888 0.775858)
(4.62921 -5.02429 -3.81387)
(3.89661 -2.86981 -0.187004)
(4.7565 -6.41435 -2.85606)
(4.59393 -5.22257 -0.974696)
(5.22803 1.55007 -1.42779)
(2.96003 -1.67085 2.33958)
(1.72289 -1.67367 1.96944)
(1.50177 -2.44086 0.545948)
(1.54036 -2.64503 1.57773)
(1.94778 -4.0513 -0.113639)
(1.49662 -2.82844 1.13926)
(1.89819 -4.82943 -1.32976)
(1.24646 -4.9456 0.0570249)
(2.18622 -8.50279 -0.987578)
(3.14719 -2.44255 2.3251)
(5.50247 0.101581 -1.84678)
(1.52971 -2.10577 3.02134)
(0.841234 -2.98912 2.39072)
(-0.0619806 -4.65428 1.45845)
(-1.00714 -4.06492 2.38108)
(-1.36198 -5.16752 -0.308824)
(-1.76476 -5.3138 0.943479)
(-2.47364 -8.45585 -0.375488)
(-2.06392 -10.4008 2.23346)
(2.7444 -2.11038 1.3911)
(1.26181 -3.49274 3.79614)
(2.08746 -1.96291 0.605617)
(0.512005 -3.02129 1.53595)
(-1.40164 -4.18225 2.7742)
(-2.3569 -5.1578 -0.429432)
(-2.24798 -4.61133 0.341383)
(-5.41766 -6.73992 -1.58978)
(-2.82088 -5.46152 -5.57418)
(-5.79914 -11.2177 -3.94899)
(0.559058 -4.86818 10.7503)
(4.53414 1.1795 8.98402)
(3.30806 0.30176 7.07216)
(4.16166 -1.58588 -1.96662)
(6.74032 -3.90166 -1.96499)
(6.87691 -6.77337 -3.96501)
(6.25458 -4.09459 1.16857)
(6.25628 -6.94476 -1.19056)
(3.73128 -4.12531 -0.468517)
(4.00198 -6.87484 -0.00629027)
(3.08535 -1.0874 10.0015)
(-0.524282 -10.607 17.7246)
(2.72185 3.22671 4.95008)
(3.60266 -4.33064 -3.535)
(4.38688 -2.72856 -1.76316)
(6.82553 -1.38939 0.525178)
(6.63114 -3.57869 -0.626408)
(4.02632 -0.846613 2.62183)
(2.41248 -3.36797 2.11621)
(-0.15042 -4.82688 1.51716)
(3.7951 -3.80371 2.75189)
(2.09012 -1.15826 8.36077)
(-0.301629 -4.51839 8.09886)
(1.36269 -0.0354138 6.13619)
(1.82718 -1.26769 4.98007)
(3.22696 -2.0633 3.9046)
(2.68948 -0.682697 4.85404)
(1.87335 -0.458335 3.46585)
(-1.75781 -1.60111 3.42341)
(-3.92182 -3.99554 -3.22262)
(2.75419 -4.10008 2.64536)
(3.23772 -3.02901 2.67321)
(2.51802 -3.40106 2.67484)
(1.79251 -3.48348 5.38579)
(3.43322 -2.43106 3.24676)
(2.94147 -3.14514 3.16287)
(-1.23953 -1.5359 -0.136518)
(-0.358691 5.10012 4.68296)
(-5.91215 2.06241 -7.51809)
(1.37676 6.61107 -24.6192)
(4.40626 3.59453 12.3189)
(6.36463 4.90434 11.4554)
(-1.80231 5.97369 4.68886)
(6.78091 -14.3615 -27.5555)
(3.73261 1.09286 -5.70026)
(10.9241 -4.78558 -5.6685)
(8.44393 -6.01631 -4.22799)
(10.2418 -1.43118 5.06192)
(9.39083 -3.22393 4.11438)
(5.0022 -1.58008 -0.69638)
(-0.301649 -8.90588 23.166)
(5.85218 7.01774 -0.811122)
(11.7667 -1.22502 1.73768)
(0.199801 0.829613 -1.75333)
(13.3502 -21.7967 -28.4278)
(5.6328 0.147131 -6.23899)
(13.2526 2.53981 1.39907)
(11.0236 -1.55225 -0.108054)
(7.15074 3.58891 5.61987)
(4.87483 1.69645 3.31428)
(4.80057 -2.16728 8.22709)
(-2.46141 -7.1862 19.2062)
(5.97073 -6.81141 16.9266)
(10.6804 -6.68014 -4.62828)
(4.23527 0.555433 -1.6175)
(6.7084 5.92887 6.62746)
(9.2946 1.63356 4.24218)
(7.15677 4.78514 10.1)
(4.56709 3.69922 3.90142)
(-0.226629 6.24667 -0.115293)
(6.18486 -1.75261 0.956698)
(3.67915 -7.47035 2.72208)
(6.6097 -4.79191 1.48919)
(5.41458 -2.66081 0.219215)
(6.59806 1.29688 5.96484)
(8.54441 -0.885662 5.13419)
(8.76267 3.55515 10.5703)
(9.47325 4.13795 8.75214)
(7.98639 13.1392 1.59735)
(4.3946 6.6108 -11.3538)
(10.2718 4.71862 2.25035)
(8.0024 11.5015 29.3282)
(15.4711 -0.682952 -9.54941)
(0.824098 2.46881 -3.59267)
(14.293 -18.8611 -30.0809)
(6.15179 4.33086 -2.52084)
(23.7583 -14.1187 -22.2834)
(14.272 -3.62153 -8.83379)
(11.7145 2.90194 1.34342)
(10.133 2.67357 4.94296)
(11.8043 7.54798 9.98891)
(16.9132 3.41884 0.08055)
(10.6382 2.27764 29.9913)
(23.4848 -13.6431 -16.9164)
(1.70078 -2.63412 -2.37812)
(26.0229 -49.913 -63.0828)
(4.23805 5.28508 -10.4483)
(15.7702 9.81713 2.22181)
(11.9276 8.66527 6.21817)
(7.67124 13.5342 0.363144)
(9.27557 -5.44971 8.91919)
(13.6703 -0.395902 35.3414)
(16.979 -1.35623 -17.5207)
(14.7229 -7.95835 11.7852)
(22.5687 -20.5223 -22.553)
(6.69539 3.28078 -8.28569)
(10.9248 11.524 4.10437)
(12.7424 6.08441 4.8718)
(11.0737 16.5266 4.06262)
(11.3873 10.554 -2.36468)
(12.9496 -0.897401 28.311)
(13.531 0.474833 -19.0732)
(8.91553 -8.89352 -11.5157)
(16.7012 -5.77298 -8.24331)
(11.7314 -1.88894 -8.45459)
(11.9662 6.56749 2.64148)
(15.3267 2.85249 -1.00264)
(14.9684 12.3216 9.99702)
(20.6626 11.27 1.87635)
(13.9 17.9044 39.1504)
(11.8355 8.13817 32.366)
(18.2135 -1.51024 -7.3749)
(20.9684 6.76454 64.1301)
(30.1852 -8.77189 -14.3754)
(10.642 -1.08371 -4.13065)
(21.9614 -15.5487 -28.6126)
(10.1641 7.34572 -5.44022)
(16.1084 2.46335 -1.33238)
(10.8514 1.81186 4.01338)
(9.34685 5.28877 -2.05534)
(17.0908 0.657487 -3.98051)
(16.8534 5.60268 49.6198)
(27.0094 -3.93491 -16.3956)
(22.9639 5.63254 46.028)
(32.1886 -15.447 -19.2229)
(7.22028 -5.24792 -0.728433)
(27.5035 -44.744 -55.9157)
(-1.33593 6.34567 -13.8629)
(10.5415 7.80006 0.605668)
(11.6842 1.2212 3.68358)
(17.7484 5.6593 49.1838)
(24.169 2.88239 -22.9584)
(24.2785 6.68767 56.0023)
(27.8425 1.6566 -30.5144)
(24.7782 -1.91689 6.35794)
(20.537 -15.1672 -11.4764)
(9.39601 -3.60412 -10.6907)
(6.60563 4.38431 15.3231)
(17.3922 -6.32486 -5.8885)
(13.9391 1.18172 35.7064)
(18.1631 4.44712 -20.6554)
(21.16 10.4286 64.1952)
(22.763 5.88318 -26.5235)
(15.865 -8.4075 -14.0667)
(14.2702 -4.35861 1.76227)
(12.44 -7.90418 -10.348)
(7.39168 1.90699 28.5616)
(17.0606 -6.96345 -12.8687)
(10.9481 1.07289 73.542)
(32.4834 -9.50951 -26.5317)
)
;

boundaryField
{
    inlet
    {
        type            fixedValue;
        value           nonuniform 0();
    }
    outlet
    {
        type            zeroGradient;
    }
    bottom
    {
        type            fixedValue;
        value           uniform (0 0 0);
    }
    top
    {
        type            symmetryPlane;
    }
    side1
    {
        type            symmetryPlane;
    }
    side2
    {
        type            symmetryPlane;
    }
    procBoundary10to2
    {
        type            processor;
        value           nonuniform List<vector> 
50
(
(13.0685 -3.6379 -19.0199)
(6.03272 1.86036 1.47827)
(3.69818 -0.298493 -0.0551559)
(4.32977 -4.58325 -4.82375)
(4.84947 -2.35233 -0.480258)
(5.94887 -6.64656 -7.0995)
(5.29787 -2.77471 -0.743492)
(5.56614 -6.63877 -8.69586)
(6.25505 -3.65903 -0.52797)
(7.65247 -8.13162 -3.28557)
(7.25055 0.782776 1.11593)
(3.40406 5.13128 18.4861)
(4.49749 0.0698549 1.56206)
(4.77252 -4.74398 -3.75029)
(5.29412 -7.17473 -6.19558)
(6.59756 -4.84075 0.35736)
(7.1686 -8.30994 -2.45024)
(5.52354 -4.42901 -0.0689432)
(5.79248 -6.70877 -1.7241)
(5.06661 -4.56344 -1.4499)
(2.27121 1.77168 11.1807)
(1.29765 7.21719 15.8022)
(3.39414 1.07941 -3.01054)
(3.80274 0.712813 -2.91648)
(6.86268 -7.0809 -9.89897)
(5.35276 -6.3465 -8.71442)
(9.10031 -3.61262 1.31357)
(8.99632 -5.8113 2.56358)
(7.52662 -3.82228 1.13898)
(6.87819 -4.84425 2.30343)
(5.37464 9.20665 16.0053)
(7.2097 4.21272 -3.6732)
(1.8128 7.36666 -1.69595)
(7.17165 -4.67368 -14.4212)
(3.99553 2.62066 0.448564)
(12.7338 -13.0328 -16.8972)
(8.28973 -5.54637 -7.54574)
(10.3971 -3.48195 0.499583)
(10.4406 -3.53818 4.45726)
(7.65295 0.379842 -0.991988)
(11.1906 -1.03839 -4.93794)
(12.5597 4.76152 37.9692)
(18.5001 -5.64719 -8.79672)
(8.63801 0.344651 -3.99569)
(14.6958 -7.31131 -15.0816)
(8.49924 1.38074 -1.53413)
(10.1074 -3.89374 -1.09754)
(8.83663 -1.84052 4.26235)
(8.52412 2.34731 0.175678)
(9.86894 -3.98711 8.58734)
)
;
    }
    procBoundary10to9
    {
        type            processor;
        value           nonuniform List<vector> 
20
(
(9.17683 -0.442087 -15.9378)
(4.19944 0.445899 1.49535)
(5.12224 -2.2018 1.34587)
(4.94899 3.30704 -0.379692)
(4.87282 0.292825 4.71401)
(4.26528 -4.77447 4.02692)
(3.6551 -2.08968 4.9014)
(5.62139 -0.928217 4.44471)
(2.50746 -1.63484 10.7327)
(5.2614 0.708534 5.94669)
(5.29983 -4.26988 5.79501)
(7.15572 -3.21996 8.21578)
(8.07399 6.82682 11.2889)
(10.2277 1.80884 7.77159)
(10.9152 -0.0682529 15.8147)
(12.2188 -2.19464 -0.648091)
(11.1681 0.376329 -1.59678)
(12.5782 6.39452 27.0943)
(12.6705 0.420362 -2.3033)
(14.2844 5.27867 38.7668)
)
;
    }
    procBoundary10to11
    {
        type            processor;
        value           nonuniform List<vector> 
20
(
(6.08879 -10.2449 -3.10605)
(2.28152 -8.06874 0.607718)
(-0.749434 -12.79 2.25029)
(-2.19733 -12.6141 0.107652)
(3.37193 -6.25967 -0.716494)
(1.03345 -8.51312 2.82621)
(-3.15152 -11.8848 -0.788318)
(-10.825 -5.63144 -24.3305)
(5.42486 -5.74256 1.526)
(-0.608469 -3.00037 -1.90008)
(-4.06202 -0.118653 -10.6613)
(7.32906 27.3046 -46.0685)
(4.4978 2.60376 -4.50729)
(6.77277 2.63015 -3.29011)
(12.4823 33.6588 -9.15581)
(25.1273 -3.69674 -8.57103)
(10.7074 -1.42141 2.91598)
(12.1196 8.15867 -2.1205)
(26.533 -11.6706 -5.2437)
(24.506 -7.74354 104.452)
)
;
    }
    procBoundary10to18
    {
        type            processor;
        value           nonuniform List<vector> 
50
(
(2.45536 1.59067 0.457242)
(1.75317 -1.09142 0.809204)
(0.170172 -3.26777 4.40304)
(0.47597 -1.31969 0.363084)
(-3.04284 -3.76543 -0.347738)
(-2.39639 -2.99786 -0.00476846)
(-6.0613 -2.96474 -3.66262)
(-0.77822 1.45127 -12.0014)
(-7.57481 -3.32378 -10.3721)
(6.39033 13.1442 -28.8686)
(5.18248 -0.216124 2.45578)
(3.04985 -3.29994 -0.0426439)
(4.4277 -0.912611 1.49555)
(4.08566 -2.93906 -0.299638)
(3.26682 -3.11225 4.66363)
(2.16479 -0.714015 -0.686699)
(4.28541 2.2132 -2.0831)
(1.0372 -0.400471 -3.37355)
(5.296 7.69188 -25.7887)
(-1.45952 -3.55718 -8.62022)
(6.12088 -4.71076 1.9551)
(5.70555 -3.03101 3.44521)
(5.51659 -5.28256 0.557883)
(6.39877 -0.844605 6.95267)
(8.38968 -2.53561 -0.461615)
(9.55843 0.132597 7.83098)
(7.74494 -0.496269 10.3802)
(13.0359 2.31729 15.5801)
(10.8186 -2.04189 -2.73914)
(7.80787 9.31895 -11.2326)
(8.96366 -1.98709 -5.13289)
(4.77376 -7.72203 -5.79533)
(11.778 -0.460561 1.96716)
(11.3811 -3.23244 -9.32372)
(11.8457 2.85449 4.29711)
(14.1085 -0.256794 -4.80002)
(13.7008 3.74295 17.4313)
(20.8511 -3.19464 -6.896)
(17.3112 -2.45544 19.4354)
(24.3877 -10.5002 -6.90892)
(12.7705 8.52694 41.359)
(16.8671 5.12757 -13.3007)
(13.192 -3.61027 -12.9737)
(11.7037 1.25833 8.05052)
(9.32577 -4.84462 -12.8817)
(7.13822 2.8328 29.6701)
(13.2959 -4.3352 -15.9321)
(8.4157 -0.852454 59.359)
(25.071 -6.71422 -18.7554)
(15.7074 -4.25475 109.624)
)
;
    }
}


// ************************************************************************* //
