/*--------------------------------*- C++ -*----------------------------------*\
| =========                 |                                                 |
| \\      /  F ield         | OpenFOAM: The Open Source CFD Toolbox           |
|  \\    /   O peration     | Version:  2.4.0                                 |
|   \\  /    A nd           | Web:      www.OpenFOAM.org                      |
|    \\/     M anipulation  |                                                 |
\*---------------------------------------------------------------------------*/
FoamFile
{
    version     2.0;
    format      ascii;
    class       Cloud<softParticle>;
    location    "0.03/lagrangian/defaultCloud";
    object      positions;
}
// * * * * * * * * * * * * * * * * * * * * * * * * * * * * * * * * * * * * * //

33
(
(0.0495711 0.00109309 0.00871889) 169
(0.0470688 0.00173684 0.00761111) 135
(0.0497135 0.00140605 0.00548922) 99
(0.0447844 0.00326933 0.00855092) 181
(0.04787 0.000873305 0.00927415) 166
(0.0457443 0.0036687 0.00947208) 183
(0.0464538 0.00255589 0.00301398) 64
(0.0461981 0.00170391 0.00850294) 173
(0.0471886 0.0011306 0.00578704) 85
(0.048002 0.00169985 0.00526256) 96
(0.0437616 0.00358529 0.00811891) 180
(0.0458904 0.00284658 0.00671152) 143
(0.046584 0.00100695 0.000682884) 4
(0.0439226 0.0016468 0.00837693) 170
(0.0441045 0.00208949 0.0023492) 50
(0.0452185 0.00407393 0.00103122) 32
(0.0494096 0.00115136 0.00365533) 49
(0.0479947 0.000379585 0.00805234) 166
(0.0470805 0.000720655 0.000294523) 5
(0.0499195 0.000761608 0.00198234) 9
(0.0495618 0.00339968 0.00397455) 69
(0.04425 0.00421763 0.00449324) 110
(0.0448117 0.00105927 0.00132484) 1
(0.0440966 0.000905237 0.000529394) 0
(0.0455217 0.000196837 0.00208272) 42
(0.0492518 0.000492245 0.00299632) 48
(0.0458245 0.00253508 0.000674258) 23
(0.0481245 0.00357149 0.00872505) 186
(0.0441549 0.00190839 0.000287619) 10
(0.0484531 0.00413246 0.00861842) 197
(0.0444895 0.00283877 0.00534733) 101
(0.049352 0.00422716 0.00334046) 78
(0.0457106 0.00447285 0.00208111) 73
)


// ************************************************************************* //
