/*--------------------------------*- C++ -*----------------------------------*\
| =========                 |                                                 |
| \\      /  F ield         | OpenFOAM: The Open Source CFD Toolbox           |
|  \\    /   O peration     | Version:  2.4.0                                 |
|   \\  /    A nd           | Web:      www.OpenFOAM.org                      |
|    \\/     M anipulation  |                                                 |
\*---------------------------------------------------------------------------*/
FoamFile
{
    version     2.0;
    format      ascii;
    class       vectorField;
    location    "0.03/lagrangian/defaultCloud";
    object      U;
}
// * * * * * * * * * * * * * * * * * * * * * * * * * * * * * * * * * * * * * //


33
(
(10.7127 0.977542 -1.86937)
(-4.00563 2.3889 5.93572)
(-6.85969 -2.336 3.89119)
(-1.49463 3.49227 -14.6579)
(8.56112 4.89465 -3.61566)
(4.12068 4.84087 8.18474)
(-8.57996 -0.925852 2.68663)
(-7.18684 -5.20995 2.99904)
(-8.53015 -0.0104628 2.18154)
(-8.26836 0.907195 2.04815)
(-7.41148 0.913038 -0.624358)
(1.91261 0.219516 4.6597)
(-7.7735 -1.56247 4.93522)
(1.52563 6.81227 -0.375982)
(-5.79383 -4.13156 -0.556838)
(-3.4748 -1.16152 1.15595)
(-7.81722 -0.921199 1.85348)
(9.42487 -4.06295 -7.65076)
(9.00692 0.00927424 -0.780983)
(7.22843 0.571621 3.57237)
(10.6851 -1.54296 0.246275)
(8.75076 -0.473078 1.56256)
(8.66873 0.381371 0.724308)
(-9.96616 -0.507433 -5.93707)
(-10.947 0.375745 -1.17676)
(13.9254 -0.158428 2.80933)
(8.89517 -1.90983 0.310392)
(11.7466 -0.594555 1.44258)
(8.01237 -0.0761076 0.580999)
(12.2307 2.46679 0.131806)
(9.04646 -0.415729 1.87877)
(10.0886 -1.38824 0.852835)
(9.46432 -2.81171 2.28012)
)


// ************************************************************************* //
