/*--------------------------------*- C++ -*----------------------------------*\
| =========                 |                                                 |
| \\      /  F ield         | OpenFOAM: The Open Source CFD Toolbox           |
|  \\    /   O peration     | Version:  2.4.0                                 |
|   \\  /    A nd           | Web:      www.OpenFOAM.org                      |
|    \\/     M anipulation  |                                                 |
\*---------------------------------------------------------------------------*/
FoamFile
{
    version     2.0;
    format      ascii;
    class       volVectorField;
    location    "0.05";
    object      U;
}
// * * * * * * * * * * * * * * * * * * * * * * * * * * * * * * * * * * * * * //

dimensions      [0 1 -1 0 0 0 0];

internalField   nonuniform List<vector> 
200
(
(-287.211 39.1968 54.1603)
(-300.269 0.718205 198.688)
(-399.027 52.0689 43.7572)
(-434.558 -4.50831 136.713)
(-307.802 177.298 -79.2475)
(-270.386 47.6904 110.049)
(-192.357 254.373 -151.007)
(-153.779 185.355 95.0975)
(-79.4297 287.307 -134.798)
(-0.433002 223.917 80.6276)
(-226.704 311.117 -31.1837)
(-388.71 87.4423 138.789)
(-397.254 216.915 157.5)
(-475.837 58.0025 86.2198)
(-713.783 -338.483 342.548)
(-429.707 223.245 -423.121)
(-520.665 -77.6148 299.285)
(-439.444 256.082 -134.443)
(-431.328 74.0586 191.965)
(-270.228 253.022 -101.11)
(-331.82 70.2043 100.26)
(-245.997 486.498 -117.985)
(-323.92 147.281 198.685)
(-327.376 359.164 110.405)
(-427.169 84.978 99.5078)
(-770.604 -592.335 542.809)
(-702.653 337.129 -210.952)
(-912.569 -179.296 379.447)
(-474.784 204.983 -37.7732)
(-501.332 -22.2312 465.494)
(-371.543 -32.4317 190.39)
(-348.062 81.7773 103.867)
(-255.848 339.637 -12.6357)
(-262.984 168.33 220.422)
(-154.366 555.291 104.845)
(-462.887 41.59 84.3884)
(-936.012 154.861 105.259)
(-323.782 261.485 156.902)
(-1899.72 -1717.51 1582.26)
(-417.784 -169.362 285.667)
(-40.1627 49.022 4.973)
(-108.29 63.989 -30.2057)
(-91.7835 -42.4658 160.12)
(-175.077 100.766 -65.2139)
(-156.018 10.2364 57.6524)
(-93.2048 192.533 -177.203)
(-72.9777 110.012 -4.74323)
(23.8163 228.941 -261.259)
(118.48 206.01 -52.2998)
(212.649 269.865 -211.623)
(-157.76 156.188 91.189)
(-214.987 309.378 -130.4)
(-229.203 132.371 4.06644)
(-324.722 106.49 103.885)
(-254.386 72.7471 21.3607)
(-372.952 -161.164 256.17)
(-175.979 173.924 -137.757)
(-137.199 -85.068 173.747)
(-17.6618 230.81 -139.233)
(9.77975 41.885 100.323)
(-196.137 148.599 139.737)
(-235.405 228.444 101.476)
(-225.43 474.303 -170.324)
(-233.374 189.535 65.7585)
(-344.936 133.778 95.3199)
(-232.731 139.45 56.3012)
(-475.955 -394.057 391.387)
(-259.21 195.354 -4.75835)
(-465.797 -256.256 341.519)
(-270.828 410.173 -199.76)
(-264.944 82.8546 133.062)
(-203.959 200.195 141.615)
(-213.417 168.019 48.4826)
(-149.787 444.214 -13.3237)
(-204.258 222.142 63.6877)
(-199.654 213.427 64.8224)
(-284.399 213.214 -41.4271)
(-590.276 -197.453 335.209)
(214.61 1112.57 -665.972)
(-479.295 -723.92 545.207)
(188.299 165.484 60.0738)
(119.7 169.906 35.9986)
(157.623 175.57 35.0334)
(101.182 119.782 86.072)
(14.256 56.6124 16.4268)
(-31.6674 36.9184 93.4523)
(-128.043 73.6114 -369.443)
(3.72648 546.727 -227.206)
(6.72722 285.463 -335.059)
(100.069 459.041 -133.218)
(41.6871 151.86 101.436)
(73.7405 187.53 43.454)
(133.123 80.8728 138.021)
(-25.3844 155.255 27.1456)
(-18.3874 204.204 -23.0508)
(-86.8153 180.574 -55.3268)
(-130.26 222.979 7.69354)
(-95.3568 233.431 -215.382)
(-31.3995 308.657 -55.9145)
(151.262 272.044 -100.103)
(-88.0115 140.578 113.902)
(44.3068 180.618 93.8375)
(-70.2549 217.067 79.2145)
(-86.6365 258.792 -61.4482)
(-60.3703 254.622 89.4433)
(-153.795 326.695 -129.897)
(-53.2662 348.321 60.3323)
(-160.23 323.741 -134.201)
(94.5725 254.183 -60.6864)
(115.43 -56.0221 106.391)
(-138.101 121.644 147.472)
(-146.766 157.294 138.293)
(-146.658 239.214 -67.1551)
(-98.9892 219.495 98.7607)
(-152.153 331.873 -205.084)
(-40.7863 285.783 97.8006)
(-107.017 285.778 -199.094)
(121.401 250.725 -173.844)
(100.89 -161.478 97.9433)
(117.996 359.808 -313.08)
(194.681 -76.7169 -79.2697)
(110.993 67.6172 -20.2211)
(112.974 157.43 39.7234)
(116.609 43.1283 33.3929)
(124.003 267.088 183.83)
(78.2987 -355.011 -76.8413)
(189.628 526.919 -214.337)
(-65.8564 186.747 -160.027)
(-4.40479 846.992 -350.767)
(-176.636 250.424 39.984)
(55.8795 101.29 55.8485)
(100.274 128.754 40.2998)
(82.5967 133.36 42.937)
(72.7508 223.851 72.1122)
(76.5049 106.369 87.6564)
(10.9684 194.222 1.82233)
(-131.054 163.336 -196.176)
(-82.2175 623.232 -234.304)
(-83.6243 300.705 -238.412)
(-78.6394 835.919 -298.887)
(34.3711 90.1706 87.0995)
(18.6341 160.839 68.943)
(23.7532 194.372 38.6158)
(29.9791 166.666 79.9307)
(-1.06835 225.635 -48.2689)
(-18.1926 316.985 105.733)
(-178.674 486.667 -233.248)
(-104.56 297.383 -59.16)
(-214.34 658.455 -343.07)
(122.504 183.457 -78.3884)
(-40.968 154.405 65.0256)
(-53.4963 146.945 -18.3038)
(-28.5321 191.387 108.045)
(-47.976 228.306 -107.36)
(-18.419 294.371 160.423)
(-114.822 375.333 -227.822)
(-19.376 426.819 223.48)
(-167.023 543.677 -373.085)
(98.7381 138.552 -135.792)
(178.504 33.7165 3.68907)
(134.03 209.976 151.801)
(209.23 -20.5581 -162.12)
(173.72 139.868 -94.3033)
(123.932 289.058 20.6246)
(157.95 185.607 4.24673)
(205.391 175.88 -9.681)
(163.693 205.223 71.989)
(170.53 247.927 -56.4007)
(17.9177 243.391 207.065)
(-43.5514 808.02 -390.74)
(171.007 -30.3444 -127.28)
(97.7316 166.496 -2.25978)
(46.1601 207.948 -12.9051)
(77.3375 184.336 24.6618)
(120.627 182.08 -31.2725)
(124.988 210.566 72.7833)
(95.8956 202.308 -57.9654)
(34.8422 197.663 57.7785)
(-57.1547 846.831 -365.526)
(-183.666 287.532 184.562)
(-30.5394 90.7854 9.31813)
(15.9031 216.58 -18.0808)
(1.01767 173.609 45.927)
(42.1169 162.072 -40.2552)
(41.859 203.154 65.2299)
(24.8119 189.36 -79.7071)
(40.0102 236.912 96.4461)
(-100.076 529.947 -268.647)
(-58.3777 298.801 -30.8302)
(-164.389 909.255 -450.424)
(-151.084 2.63596 -17.9463)
(-81.612 179.761 126.492)
(-5.53881 175.989 -90.3412)
(-44.723 192.657 90.6856)
(-29.1657 181.138 -113.328)
(8.32081 286.674 138.932)
(-60.4281 300.852 -197.392)
(13.5225 286.824 96.7714)
(-18.9165 478.8 -228.858)
(155.345 190.55 -243.925)
)
;

boundaryField
{
    inlet
    {
        type            calculated;
        value           nonuniform 0();
    }
    outlet
    {
        type            calculated;
        value           nonuniform List<vector> 
20
(
(-0.433002 223.917 80.6276)
(-270.228 253.022 -101.11)
(-501.332 -22.2312 465.494)
(-417.784 -169.362 285.667)
(212.649 269.865 -211.623)
(9.77975 41.885 100.323)
(-270.828 410.173 -199.76)
(-479.295 -723.92 545.207)
(100.069 459.041 -133.218)
(151.262 272.044 -100.103)
(115.43 -56.0221 106.391)
(117.996 359.808 -313.08)
(-176.636 250.424 39.984)
(-78.6394 835.919 -298.887)
(122.504 183.457 -78.3884)
(178.504 33.7165 3.68907)
(-43.5514 808.02 -390.74)
(-183.666 287.532 184.562)
(-164.389 909.255 -450.424)
(155.345 190.55 -243.925)
)
;
    }
    bottom
    {
        type            calculated;
        value           uniform (0 0 0);
    }
    top
    {
        type            symmetryPlane;
    }
    side1
    {
        type            symmetryPlane;
    }
    side2
    {
        type            symmetryPlane;
    }
    procBoundary23to15
    {
        type            processor;
        value           nonuniform List<vector> 
50
(
(-155.095 -17.8635 82.8579)
(-160.754 102.998 -45.5854)
(-144.556 72.2415 -2.19329)
(-72.6209 190.566 -183.078)
(-42.8947 91.9318 -65.4566)
(-61.4001 163.399 -178.693)
(-10.2836 171.653 -53.6031)
(30.2773 229.729 -222.27)
(119.817 248.333 -29.9407)
(183.295 248.205 -157.557)
(77.1579 36.7122 -16.0117)
(42.8706 35.1637 8.15431)
(22.513 76.4115 -22.5092)
(12.8093 69.7937 -6.65828)
(-76.6403 3.68307 -96.1517)
(-107.507 96.9166 -56.4516)
(-110.691 91.149 -305.994)
(-15.1053 416.696 -215.934)
(23.1162 238.664 -370.238)
(142.113 337.539 -134.168)
(182.601 151.449 32.6812)
(212.131 103.175 24.2497)
(154.329 114.297 15.8524)
(140.235 -2.61793 15.5273)
(76.2558 69.3319 134.149)
(-62.9546 -33.0421 -211.104)
(78.0661 541.131 -308.808)
(-93.5488 153.2 -260.101)
(-0.95008 774.627 -364.415)
(-139.533 216.832 -221.118)
(17.6008 359.223 -92.1653)
(104.019 -8.85629 -98.1629)
(135.814 -4.14846 -34.4522)
(136.046 198.899 127.889)
(121.185 -87.9874 40.254)
(179.768 352.847 162.16)
(105.506 -49.2124 19.2806)
(108.973 553.19 -269.207)
(-87.1172 230.53 131.868)
(-88.6351 782.423 -366.143)
(196.625 59.1362 965.018)
(237.159 219.623 -96.2132)
(181.337 186.452 -28.8404)
(191.631 8.93668 -230.972)
(184.579 391.424 116.288)
(200.024 176.137 -18.1941)
(259.923 161.848 -18.0618)
(194.49 212.807 86.0328)
(197.265 337.86 -58.9726)
(56.6772 327.127 268.419)
)
;
    }
    procBoundary23to22
    {
        type            processor;
        value           nonuniform List<vector> 
20
(
(-168.111 -0.0650444 96.1546)
(-280.968 80.0425 69.3531)
(-320.698 -25.7077 159.513)
(-314.446 102.822 57.5128)
(-57.7531 85.131 23.4456)
(-117.641 79.494 111.367)
(-218.568 110.758 115.357)
(-298.237 23.8866 190.144)
(170.282 162.138 69.3581)
(41.2174 180.775 107.357)
(-94.1854 94.0016 177.489)
(-134.017 191.797 112.169)
(-62.9091 282.903 -81.0964)
(170.492 80.8139 89.888)
(-41.909 154.597 91.2213)
(-75.8011 78.0452 51.6533)
(187.539 93.3541 526.17)
(24.0432 139.867 86.6879)
(-47.0319 -14.9107 -2.7795)
(-189.716 -55.9503 -119.114)
)
;
    }
    procBoundary23to31
    {
        type            processor;
        value           nonuniform List<vector> 
50
(
(-320.931 76.442 48.0276)
(-348.548 -65.3282 208.834)
(-314.258 57.1423 93.7813)
(-278.957 57.2856 124.092)
(-263.302 120.752 163.472)
(111.749 1227.62 60.0285)
(-550.421 -55.7585 77.354)
(-555.509 626.031 -79.4195)
(-633.205 268.201 -30.2025)
(-1449.62 -1459.03 1136.08)
(-323.431 -12.1806 175.119)
(-292.313 31.4524 101.986)
(-160.602 469.502 121.004)
(-200.233 145.708 13.584)
(-128.887 502.515 -1.5359)
(-192.059 208.759 50.0779)
(-54.9206 500.881 79.332)
(-316.285 210.554 -66.3593)
(-740.608 -1419.33 563.503)
(1271.66 2472.98 -293.963)
(-139.922 185.616 62.2658)
(-203.977 237.231 51.998)
(-198.566 121.012 96.6219)
(-187.255 278.993 -82.4242)
(-152.523 154.47 40.2988)
(-100.22 314.769 -191.3)
(-134.307 148.5 -68.749)
(7.28077 -183.695 32.928)
(180.351 904.27 -667.209)
(91.1628 -1070.12 -183.398)
(-130.624 148.372 -59.0583)
(-122.624 139.542 51.052)
(-129.277 178.174 -87.0426)
(-90.7609 186.123 141.734)
(-121.029 332.624 -216.318)
(4.72847 311.472 174.323)
(-118.894 505.853 -427.092)
(173.476 153.043 -472.795)
(95.076 7.75168 22.3494)
(-64.5099 251.084 -193.068)
(-261.63 -84.9938 -89.6208)
(-221.253 31.818 -49.3345)
(-151.077 165.031 172.193)
(-142.011 98.1126 -74.6618)
(-92.6374 153.486 103.418)
(-75.4576 192.066 -140.868)
(-6.59757 205.255 99.5751)
(-72.8088 204.441 -131.029)
(-102.34 125.925 23.6388)
(125.409 48.7409 71.4947)
)
;
    }
}


// ************************************************************************* //
