/*--------------------------------*- C++ -*----------------------------------*\
| =========                 |                                                 |
| \\      /  F ield         | OpenFOAM: The Open Source CFD Toolbox           |
|  \\    /   O peration     | Version:  2.4.0                                 |
|   \\  /    A nd           | Web:      www.OpenFOAM.org                      |
|    \\/     M anipulation  |                                                 |
\*---------------------------------------------------------------------------*/
FoamFile
{
    version     2.0;
    format      ascii;
    class       volSymmTensorField;
    location    "0.06";
    object      B;
}
// * * * * * * * * * * * * * * * * * * * * * * * * * * * * * * * * * * * * * //

dimensions      [0 2 -2 0 0 0 0];

internalField   nonuniform List<symmTensor> 
200
(
(5.85795e+06 -1.98571e+06 -2.37999e+06 9.79816e+06 -5.27819e+06 9.23438e+06)
(6.81113e+07 -6.42166e+06 -1.11545e+06 6.30817e+07 -6.65185e+06 5.93119e+07)
(5.03436e+07 -5.19145e+06 1.77274e+06 5.17061e+07 -5.28632e+06 4.75399e+07)
(5.34788e+07 -631112 5.46477e+06 6.90498e+07 -2.31632e+07 5.92465e+07)
(7.64565e+07 -9.63388e+06 -2.56136e+06 7.58888e+07 -1.65968e+07 6.6622e+07)
(4.53518e+07 -2.13097e+07 4.84017e+06 6.06615e+07 2.89515e+06 5.28981e+06)
(1.98281e+08 -4.36533e+07 1.01881e+07 2.06916e+08 -3.46135e+07 1.57557e+08)
(2.13519e+08 -5.58593e+06 5.31254e+06 1.59245e+08 -6.20413e+07 1.47607e+08)
(5.03806e+07 1.89184e+07 -4.54858e+06 4.35998e+07 -3.05027e+07 3.4268e+07)
(6.91854e+08 -3.3877e+07 7.9285e+06 9.22674e+08 -7.20816e+07 7.28149e+08)
(8.1736e+07 -1.42297e+06 -2.18509e+06 5.38315e+07 -1.51125e+07 4.29937e+07)
(2.14631e+07 -503644 1.26715e+06 1.68054e+07 -3.55241e+06 1.6452e+07)
(2.37593e+07 -5.09854e+06 2.87354e+06 6.04479e+07 -1.7711e+07 3.09862e+07)
(6.13304e+07 -6.86593e+06 -1.19595e+07 8.76149e+07 -2.07879e+07 5.8157e+07)
(4.45426e+07 2.04014e+06 -6.85559e+06 8.85995e+07 -7.27955e+06 3.18566e+07)
(1.4962e+08 -5.31381e+07 1.74964e+07 1.34158e+08 -8.83343e+06 9.33857e+07)
(1.45945e+08 -3.05804e+07 1.44015e+07 9.29058e+07 -1.43693e+07 1.01874e+08)
(6.61456e+07 -2.6739e+06 4.00993e+06 5.18688e+07 -5.74492e+07 2.72004e+07)
(6.89986e+08 1.19114e+08 2.95869e+06 7.342e+08 -8.3552e+07 6.77547e+08)
(3.84576e+07 2.37422e+07 1.59126e+07 7.1824e+07 3.84354e+06 5.42881e+07)
(1.80981e+07 -9.06081e+06 -3.00185e+06 1.33276e+07 -8.15494e+06 9.09451e+06)
(3.24342e+07 -2.89593e+07 -1.76989e+07 3.75165e+06 -1.72663e+07 -7.21645e+06)
(4.83083e+07 21419.8 -1.58757e+07 4.41135e+07 -8.05596e+06 3.32185e+07)
(3.64909e+07 3.10646e+06 -5.12019e+06 3.66406e+07 -5.51975e+06 2.2171e+07)
(2.13431e+08 -5.05406e+07 5.63278e+07 1.68408e+08 -8.78023e+06 4.66097e+07)
(3.84866e+08 -8.96521e+07 4.54264e+07 3.45838e+08 -8.51096e+06 3.37994e+08)
(2.11348e+08 -8.79606e+07 3.20621e+07 3.55139e+08 -5.50371e+07 2.92096e+08)
(7.19785e+07 9.44754e+07 -2.22225e+07 1.56811e+08 -6.49834e+07 1.33072e+08)
(7.68632e+07 3.69399e+07 -2.8772e+06 3.35165e+07 -1.66129e+07 3.66821e+07)
(2.68376e+07 1.43775e+08 2.52501e+07 -1.80384e+08 -1.32345e+08 3.57041e+07)
(1.92235e+07 -9.31955e+06 -1.93829e+06 2.05815e+07 -635882 1.73697e+07)
(5.37826e+07 -4.62772e+06 -1.12685e+07 7.04255e+07 -6.61577e+06 5.55811e+07)
(1.13695e+08 -1.36496e+06 -3.03081e+07 8.41623e+07 -5.8322e+06 8.77742e+07)
(2.21778e+08 -2.56512e+07 -4.52035e+07 1.33366e+08 -7.24069e+06 1.23131e+08)
(2.68285e+08 -7.77956e+07 4.524e+06 1.81854e+08 -1.63038e+07 1.54517e+08)
(1.50538e+08 -4.12765e+07 2.76807e+07 1.67758e+08 -1.35041e+07 5.98334e+07)
(2.20778e+08 -8.4122e+07 1.21871e+07 3.48224e+08 -2.58859e+07 2.43311e+08)
(4.91362e+08 -7.19474e+07 9.23757e+06 6.15859e+08 -5.72956e+07 5.71627e+08)
(-2.95987e+07 4.32998e+07 -2.12163e+07 1.3104e+08 -6.4585e+07 1.40867e+08)
(1.36063e+08 4.21442e+07 -4.55352e+07 2.37327e+08 -3.48505e+07 2.12438e+08)
(6.01509e+07 -2.17877e+07 -5.84856e+06 3.15952e+07 -3.03719e+06 3.20583e+07)
(2.03408e+07 -1.07016e+06 -676887 1.75311e+07 -273358 1.88886e+07)
(1.35757e+08 -2.92074e+07 8.73962e+06 9.0516e+07 1.09057e+07 1.06883e+08)
(4.15348e+07 6.31561e+06 7.75204e+06 4.30274e+07 6.34331e+06 3.55106e+07)
(6.96226e+08 1.02174e+08 -4.54056e+07 8.50663e+08 2.2651e+07 7.66971e+08)
(1.3155e+08 -3.02136e+07 -3.45188e+07 1.17762e+08 2.96335e+06 1.29113e+08)
(1.3655e+09 -3.85267e+08 5.42391e+07 1.18944e+09 9.57979e+07 1.16463e+09)
(3.60794e+07 -3.91304e+07 1.88772e+07 7.21776e+07 3.53508e+07 4.76192e+07)
(4.56852e+08 -1.92303e+08 -2.13009e+07 -1.44973e+07 3.61798e+07 1.63058e+08)
(1.48096e+07 3.14664e+06 -3.9656e+06 8.58116e+06 1.3727e+06 1.01978e+07)
(5.69803e+06 -7.44489e+06 -3.73384e+06 -1.52692e+06 22444.2 7.03499e+06)
(5.13014e+07 -1.8834e+07 -4.36182e+06 3.38352e+07 -3.72228e+06 5.15541e+07)
(7.26597e+06 1.70675e+06 -2.77886e+06 6.004e+06 1.85072e+06 7.86656e+06)
(7.60998e+07 3.6609e+07 -1.99779e+07 1.35699e+08 1.07333e+07 1.20079e+08)
(1.14915e+08 -8.04518e+06 -2.20556e+07 9.94332e+07 -1.46648e+07 1.18317e+08)
(2.801e+08 -6.18357e+07 -5.8823e+06 -6.17254e+07 1.07731e+08 1.63368e+08)
(1.9496e+08 -5.09062e+07 1.65833e+07 1.60577e+08 5.48738e+07 1.60106e+08)
(1.69905e+09 -5.57667e+08 3.37997e+07 1.61649e+09 8.80059e+07 1.5297e+09)
(-1.04956e+07 1.30901e+06 -3.54015e+06 1.69683e+07 1.31398e+07 1.56911e+07)
(2.12875e+08 1.75231e+08 -2.50926e+07 2.88483e+08 -6.17578e+07 2.58046e+08)
(9.2508e+07 -7.17834e+06 -6.81783e+06 9.09285e+07 -1.22379e+06 8.57626e+07)
(2.25505e+07 -1.95396e+06 -2.42331e+06 3.11735e+07 2.08256e+06 2.43188e+07)
(1.20984e+07 -8.96041e+06 -4.85937e+06 1.71356e+07 -1.20285e+06 2.46537e+07)
(2.11824e+08 -3.02351e+06 -1.20306e+08 1.5943e+08 -1.10721e+07 2.30174e+08)
(5.77272e+07 2.50658e+07 -2.48947e+07 -1.89636e+07 1.20243e+07 7.39707e+07)
(5.70602e+08 -4.65263e+07 4.63455e+07 5.3757e+08 -5.1999e+07 5.21159e+08)
(2.9074e+08 -1.15188e+08 1.63386e+07 2.34986e+08 5.6101e+07 2.2077e+08)
(-1.35079e+07 -7.07883e+07 5.24677e+06 -980407 8.57142e+07 2.06676e+07)
(6.93932e+08 -7.22553e+07 1.04971e+06 8.4385e+08 2.54196e+06 7.29237e+08)
(-1.61294e+07 -2.52579e+06 -729287 3.551e+06 7.07758e+06 7.10261e+06)
(2.71546e+07 9.05317e+06 -1.1567e+07 7.14564e+07 3.12448e+06 5.05708e+07)
(7.57026e+07 -3.0486e+07 9.27065e+06 8.21009e+07 1.57045e+07 7.54095e+07)
(4.43135e+06 -8.52559e+07 -2.02643e+07 -1.81488e+07 8.35919e+06 2.99199e+07)
(5.80004e+07 -2.20167e+07 1.05739e+06 4.96345e+07 2.23268e+06 5.75809e+07)
(8.46251e+08 3.02041e+07 -4.27107e+08 8.32801e+08 3.90572e+06 5.19446e+08)
(2.67428e+07 7.95766e+06 -5.15286e+07 6.41596e+07 1.78031e+07 6.21855e+07)
(1.50519e+09 -1.1991e+08 1.98186e+08 1.53132e+09 2.85352e+06 1.49316e+09)
(4.44938e+08 -8.78198e+07 2.03338e+07 4.3548e+08 1.73836e+07 4.12929e+08)
(-1.56743e+07 -2.66703e+07 -4.216e+07 1.37785e+07 2.03879e+07 -1.16166e+07)
(7.42685e+07 -2.18555e+06 8.46518e+06 1.66461e+08 -2.11661e+06 1.21535e+08)
(1.26839e+07 -3.68605e+06 -1.30779e+06 1.18948e+07 -794111 1.37832e+07)
(8.57142e+07 -1.95542e+07 -4.4044e+06 5.22857e+07 262115 7.08952e+07)
(1.25678e+07 -4.88666e+06 -629560 6.65866e+06 -300402 1.12698e+07)
(3.44454e+08 3.07992e+07 -7.04884e+06 3.72403e+08 2.92129e+06 3.54305e+08)
(6.57764e+06 2.61436e+06 -2.70047e+06 1.36728e+07 -311178 1.26227e+07)
(7.83105e+07 -4.67204e+07 -3.30891e+07 1.60213e+08 -4.0773e+07 1.58311e+08)
(2.37269e+08 -4.23416e+07 -2.40727e+07 1.3262e+08 1.21343e+07 2.15014e+08)
(7.502e+08 -2.59513e+08 1.09535e+07 4.61568e+08 8.71573e+07 6.16649e+08)
(-1.03731e+07 -3.98124e+07 -1.4617e+07 -1.04049e+08 5.31478e+07 4.92997e+07)
(4.16294e+08 -1.16152e+08 -2.49365e+07 4.03675e+08 3.32744e+07 3.93728e+08)
(3.36564e+07 -1.33119e+07 65709.7 2.39893e+07 -363601 3.49374e+07)
(-2.09722e+06 -2.98833e+06 746093 3.0906e+06 439189 5.12471e+06)
(8.09759e+07 5.64616e+07 -1.7833e+07 8.77267e+07 -6.32937e+06 1.05031e+08)
(2.21558e+06 -687213 -1.14947e+06 3.51252e+06 -560165 4.26151e+06)
(8.10981e+07 9.25388e+07 -3.90582e+07 -1.99069e+08 -2.85867e+06 1.14363e+08)
(3.17884e+08 -4.17228e+06 -2.44196e+07 2.54619e+08 2.5423e+06 2.94197e+08)
(3.84751e+08 -6.14407e+07 -9.54779e+06 3.03442e+08 1.31098e+07 3.55958e+08)
(1.5388e+08 -1.14945e+08 9.14112e+06 3.88216e+07 4.79293e+07 1.1655e+08)
(3.39986e+08 -1.46601e+08 -1.01463e+07 2.94633e+08 1.35938e+08 3.08112e+08)
(1.27034e+07 -7.61153e+06 -8.14864e+06 8.21948e+06 1.15053e+07 2.90953e+07)
(-2.06919e+06 -945862 -1.49566e+06 3.33781e+06 2.40934e+06 3.76107e+06)
(3.47968e+07 -6.83084e+06 -312990 4.63884e+07 -862152 4.07208e+07)
(2.64601e+06 2.58525e+06 1.47036e+06 -2.61472e+06 -88507.3 2.1318e+06)
(7.38104e+06 3.95974e+07 -2.27845e+07 -1.09963e+08 -6.51023e+06 3.16755e+07)
(5.02263e+08 -2.87607e+06 -4.3473e+06 5.1226e+08 -3.41179e+07 5.16654e+08)
(1.48152e+08 -3.31149e+06 -3.05803e+07 2.14271e+07 -6.65885e+06 1.33995e+08)
(5.14804e+08 -1.22091e+08 -1.42362e+07 3.72097e+08 3.3112e+07 3.83218e+08)
(2.93171e+08 -1.60867e+08 2.31053e+06 2.42681e+08 3.84773e+07 2.57674e+08)
(4.08929e+07 -6.48335e+07 -3.41678e+06 6.79567e+07 2.42656e+07 6.53729e+07)
(1.80316e+08 -4.8421e+07 -5.51203e+06 2.12066e+08 1.30058e+07 1.99301e+08)
(7.64051e+06 -2.40417e+06 -1.36499e+06 1.20858e+07 -559565 1.56666e+07)
(692799 -1.34733e+07 3.55736e+06 541742 8.69195e+06 2.16061e+07)
(4.20994e+07 -6.68936e+06 -1.64458e+06 4.36175e+07 -39990.5 4.21182e+07)
(1.09674e+09 7.4734e+07 -3.5412e+08 1.30539e+09 -1.4112e+08 1.16037e+09)
(-3.51178e+07 1.34411e+07 -2.82427e+06 4.26422e+06 7.32771e+06 6.98884e+06)
(1.10039e+09 -6.96872e+07 1.83938e+08 1.15611e+09 -4.20024e+06 1.28627e+09)
(1.93714e+08 -2.8195e+07 -1.35356e+07 1.15795e+08 -828413 1.66279e+08)
(2.34635e+08 -1.64211e+07 1.71123e+06 2.32465e+08 3.0265e+06 2.21008e+08)
(6.40675e+07 -2.88291e+07 8.67013e+06 1.06609e+08 9.52837e+06 9.08345e+07)
(1.14697e+08 -2.94376e+07 9.35223e+06 1.5388e+08 -824652 1.06812e+08)
(4.85352e+07 -1.04829e+07 -3.89529e+06 4.4416e+07 -3.17813e+06 4.71391e+07)
(3.7088e+07 -4.41426e+06 -1.30251e+06 3.76213e+07 -476333 3.82984e+07)
(7.71503e+07 -2.21011e+07 -1.12713e+07 2.14704e+07 5.66052e+06 4.94903e+07)
(3.13547e+07 -7.74896e+06 1.31378e+06 1.8828e+07 -3.26474e+06 2.35419e+07)
(1.43665e+08 1.56142e+07 -2.84753e+06 1.66345e+08 -1.17657e+07 1.58189e+08)
(6.85432e+06 3.34181e+06 -3.86972e+06 3.05079e+07 -6.35167e+06 2.93986e+07)
(1.65564e+08 -1.36863e+07 -6.98169e+06 2.33308e+08 -4.397e+07 2.12837e+08)
(2.10533e+07 -1.69875e+07 -3.36878e+06 6.71422e+06 -7.63506e+06 3.61626e+07)
(4.66836e+08 -1.04912e+08 -1.02135e+07 5.36343e+08 -5.3501e+06 5.04983e+08)
(1.48195e+08 -3.80481e+07 -7.96612e+07 2.30061e+08 7.47474e+06 2.22751e+08)
(4.13024e+06 -610836 -84262.1 5.70856e+06 -96891.7 5.82255e+06)
(2.49566e+08 -2.86075e+07 1.31388e+06 2.42352e+08 1.53071e+06 2.30171e+08)
(-1.39995e+07 -9.30416e+06 2.92417e+06 2.23856e+07 -2.42014e+06 8.75819e+06)
(3.93706e+07 2.41793e+07 -1.97397e+06 6.32894e+07 -9.66139e+06 5.95696e+07)
(9.47085e+06 2.30616e+06 3.69908e+06 -6.55749e+06 -5.88633e+06 2.67593e+06)
(1.24377e+07 7.7221e+06 -1.82038e+07 -4.40387e+07 -2.65925e+07 3.11846e+07)
(1.0325e+08 -7.15322e+06 -6.92499e+06 8.03579e+07 -5.79497e+06 9.56675e+07)
(4.88822e+07 -5.54716e+07 -7.54588e+06 2.07324e+06 -1.43602e+07 5.85524e+07)
(-3.64685e+07 -1.30598e+06 2.12246e+06 -5.66938e+06 9.51112e+06 1.2041e+07)
(4.24768e+08 -9.78216e+07 -6.19321e+06 4.27161e+08 1.7174e+07 4.41761e+08)
(1.162e+07 -3.8185e+06 -3.23819e+06 1.7838e+07 -669812 1.43084e+07)
(-1.95876e+06 78363.4 233796 216202 350651 329979)
(1.22614e+08 -1.89803e+07 469040 1.63867e+08 -3.92421e+06 1.29836e+08)
(2.58353e+07 -3.78268e+06 -1.54733e+06 3.11828e+07 -3.59466e+06 2.36169e+07)
(-2.02131e+07 -1.78324e+07 7.27333e+06 -1.88394e+07 -1.30718e+07 1.49064e+06)
(2.26156e+06 5.12567e+06 -2.66562e+06 5.91683e+06 -6.03241e+06 9.30357e+06)
(1.36228e+08 1.78597e+07 -1.30064e+07 7.99667e+07 -1.23307e+07 1.19524e+08)
(1.74428e+07 -3.39224e+07 -1.01241e+07 3.43157e+07 3.40671e+06 1.55013e+07)
(1.64064e+08 -1.17851e+08 1.73921e+07 1.27587e+08 1.46474e+07 1.60602e+08)
(4.60131e+07 -2.82344e+07 -2.71533e+06 2.38159e+07 4.94136e+06 4.50503e+07)
(1.60445e+07 -9.96599e+06 1.84072e+06 1.22839e+07 497686 1.22037e+07)
(1.61974e+08 -4.32923e+06 -2.81402e+06 1.92939e+08 5.5686e+06 1.6727e+08)
(5.27012e+07 7.70408e+06 -2.11098e+07 8.74125e+07 -285204 6.18768e+07)
(-1.37389e+06 -3.0555e+06 71330.8 7.57691e+06 2.26367e+06 3.36678e+06)
(3.76516e+08 -6.6041e+06 4.53687e+06 4.00393e+08 -5.6689e+06 4.26928e+08)
(8.74214e+06 -438685 546018 1.28247e+07 -2.01897e+06 1.16486e+07)
(1.0576e+08 -9.6762e+06 133810 7.21203e+07 -1.19725e+07 7.19938e+07)
(4.04862e+07 -3.96338e+06 -5.18411e+06 1.38059e+07 -8.06104e+06 2.61574e+07)
(2.06989e+08 -4.77614e+07 4.60198e+06 1.85209e+08 1.88145e+06 1.64661e+08)
(1.7218e+08 -3.28846e+07 7.71505e+06 2.18403e+08 3.76618e+06 1.78233e+08)
(5.45517e+06 -4.46627e+06 -445923 3.94746e+06 -511007 5.20519e+06)
(5.46729e+06 -2.61913e+06 -1.80444e+06 7.81028e+06 -1.13676e+06 8.15543e+06)
(3.02676e+07 -5.90717e+06 248902 2.95867e+07 1.01368e+06 3.24616e+07)
(2.74799e+07 -1.36274e+07 -2.82772e+06 3.34646e+07 -2.56899e+06 3.25574e+07)
(-467264 -3.576e+06 -3.08644e+06 1.97464e+07 -38365 1.49431e+07)
(6.06037e+07 -7.13842e+06 -1.91213e+06 6.38755e+07 -7.99343e+06 6.4979e+07)
(2.58985e+07 -6.22316e+06 1.46461e+06 2.58815e+07 -5.06578e+06 3.10452e+07)
(6.31551e+07 -6.19548e+06 2.34147e+06 7.42561e+07 -1.24819e+07 7.51471e+07)
(3.14992e+07 -3.35065e+06 76944.2 5.02188e+07 -5.22356e+06 3.96884e+07)
(2.07209e+07 6.24041e+06 -42350.3 8.64044e+07 -2.33455e+06 8.12529e+07)
(5.24104e+06 -3.21337e+06 -1.13887e+06 8.32125e+06 -2.02486e+06 7.66462e+06)
(5.67516e+06 -3.68564e+06 809384 9.32058e+06 -221247 1.03008e+07)
(9.77729e+06 -7.06848e+06 -117523 8.59262e+06 2.97465e+06 8.21213e+06)
(5.60753e+07 -4.39588e+06 5.30313e+06 8.05818e+07 -1.57771e+06 6.48696e+07)
(1.68095e+07 -5.28349e+06 -281639 1.92055e+07 -3.81733e+06 1.73048e+07)
(8.49669e+07 -9.34614e+06 339882 7.89835e+07 -1.43224e+06 8.04477e+07)
(9.15823e+07 -1.32163e+07 1.56699e+06 8.14617e+07 -1.00677e+07 9.24377e+07)
(2.04439e+07 674896 1.43267e+06 2.97696e+07 -1.98735e+06 2.84275e+07)
(2.98072e+07 425714 5.4407e+06 5.72564e+07 -1.02361e+07 4.72799e+07)
(5.78032e+07 -3.19424e+07 9.15453e+06 1.01928e+08 -2.57457e+06 6.85941e+07)
(3.53757e+06 -1.93534e+06 -1.56131e+06 3.36445e+06 32745.9 5.06717e+06)
(6.63575e+06 -2.55728e+06 -182708 6.9099e+06 -1.98351e+06 9.87297e+06)
(657814 1.65134e+06 -962612 1.43968e+07 -906171 1.29537e+07)
(2.35742e+07 -7.93208e+06 2.09121e+06 3.28807e+07 -488175 3.04472e+07)
(6.31393e+07 -6.45209e+06 512065 6.28896e+07 -56013.4 6.45291e+07)
(7.79701e+07 -2.07154e+07 3.51897e+06 7.69581e+07 -911457 7.81076e+07)
(1.57622e+07 -3.04588e+06 -618016 1.90144e+07 -2.20111e+06 1.93232e+07)
(2.6241e+07 5.60039e+06 -836496 3.13667e+07 -1.04442e+07 3.30487e+07)
(1.15506e+07 495211 3.17993e+06 2.57068e+07 -3.2152e+06 1.69171e+07)
(5.72111e+07 -1.22917e+07 1.43398e+06 9.54108e+07 2.76013e+06 6.42458e+07)
(1.83386e+07 -3.26168e+06 -1.51262e+06 1.40328e+07 -1.71208e+06 1.75687e+07)
(4.88671e+06 -647965 -2.04952e+06 1.79987e+07 834042 1.51103e+07)
(1.10184e+07 2.34257e+06 738267 1.36613e+07 -467779 1.49141e+07)
(1.22488e+07 -1.14025e+07 -256881 2.75381e+07 651721 4.04379e+07)
(2.12525e+07 -8.6998e+06 4.37884e+06 2.9965e+07 -1.71067e+06 3.12008e+07)
(5.51645e+07 -3.98326e+06 1.31888e+06 6.1431e+07 -827209 5.86697e+07)
(1.75322e+08 -1.16987e+07 -5.32663e+06 2.11512e+08 -5.10737e+06 1.85947e+08)
(2.75195e+07 5.72498e+06 -5.07302e+06 1.05909e+07 -6.77617e+06 3.31919e+07)
(2.32751e+07 1.29628e+07 5.0511e+06 1.27378e+07 -3.55093e+06 2.39894e+07)
(8.55712e+06 6.16469e+06 -699009 3.68812e+07 1.04899e+07 2.56491e+07)
)
;

boundaryField
{
    inlet
    {
        type            calculated;
        value           nonuniform 0();
    }
    outlet
    {
        type            calculated;
        value           nonuniform 0();
    }
    bottom
    {
        type            calculated;
        value           nonuniform List<symmTensor> 
40
(
(-124.139 -67.2599 -93.801 9.32413 -290.537 59.5351)
(316.788 -17.0478 -32.7073 -17.5188 -420.679 -226.765)
(62.7344 -148.72 -40.7702 -15.5658 -207.962 -227.42)
(-75.693 -337.9 -246.343 -26.457 -321.16 1.45937)
(195.586 -216.274 -25.0036 26.1923 -463.187 -59.1995)
(155.568 -30.5295 228.596 -126.77 -345.399 -318.546)
(101.656 -192.633 -139.632 -89.1364 -441.807 -228.227)
(-80.1612 -91.7107 -385.593 249.664 -397.724 110.754)
(17.0548 -251.784 137.375 83.1373 -599.995 -180.707)
(-188.497 -63.8615 84.9753 271.044 -401.821 -110.716)
(115.822 0.362921 -210.898 44.7494 -221.283 -468.399)
(274.113 -18.9145 -626.89 -135.131 -221.557 -81.5526)
(-111.291 -10.1928 55.5386 140.188 -710.331 5.48577)
(-101.916 -98.0152 -110.537 273.31 -505.167 -361.733)
(113.848 89.3848 -104.627 118.155 -315.994 -798.735)
(531.746 -205.057 -387.331 -175.022 -111.368 -508.864)
(113.597 -164.919 -57.7612 103.879 -675.059 -246.242)
(-150.944 26.9301 -8.90499 430.614 -551.82 -547.974)
(389.001 -283.512 409.244 136.437 -2.51516 -802.839)
(467.548 -443.865 54.0102 -25.5833 -199.686 -597.211)
(53.994 -228.088 206.596 217.861 -791.711 -243.777)
(218.915 -512.003 139.078 69.9313 -284.518 -480.378)
(273.467 -864.541 658.439 -102.893 -553.672 3.22406)
(72.5128 -489.019 470.849 276.526 -496.442 -257.086)
(141.892 -472.807 119.62 235.419 -807.847 -111.629)
(400.171 -416.549 305.258 -322.297 -1085.43 -125.345)
(-448.27 -563.636 355.417 473.119 -1058.43 162.572)
(-228.486 -526.622 173.585 569.355 -588.615 302.037)
(384.955 -46.9798 172.009 -71.5058 -1265.46 -133.952)
(106.82 -16.217 150.563 20.231 -870.993 -155.67)
(-339.545 533.074 -157.01 139.117 -1147.3 243.324)
(-429.136 -614.018 110.943 633.361 -835.989 180.327)
(3.29463 261.094 159.183 -90.2872 -794.527 -285.189)
(-46.3707 1055.32 117.079 345.355 -1020.88 -299.27)
(198.764 208.455 5.32848 -45.8453 -160.11 -210.217)
(-969.584 293.07 -281.074 117.682 -1080.53 658.528)
(-574.018 -275.075 98.0239 1300.2 -931.102 -526.711)
(-551.915 489.874 486.883 136.534 640.352 -468.314)
(-21.26 324.705 161.861 -489.253 -574.079 138.741)
(-343.951 290.385 -719.653 353.783 -125.036 151.619)
)
;
    }
    top
    {
        type            symmetryPlane;
    }
    side1
    {
        type            symmetryPlane;
    }
    side2
    {
        type            symmetryPlane;
    }
    procBoundary19to11
    {
        type            processor;
        value           nonuniform List<symmTensor> 
50
(
(-3.44186e+06 -3.59809e+06 2.52824e+06 2.82906e+06 -3.6741e+06 857617)
(460918 -4.33062e+06 1.32277e+06 -564673 -4.14589e+06 679192)
(3.04555e+06 -2.97678e+06 1.305e+06 -2.38685e+06 -3.56055e+06 -2.12143e+06)
(3.95527e+06 -4.23847e+06 3.16714e+06 -1.38653e+06 -5.26156e+06 -1.26889e+06)
(-4.04886e+06 -8.84324e+06 1.36027e+07 165478 -2.14024e+07 4.24484e+06)
(-6.19359e+06 -3.30569e+07 4.75253e+06 5.45102e+06 -9.23929e+06 1.21834e+06)
(1.49067e+07 -1.98719e+07 3.60099e+06 2.91871e+06 -2.16627e+07 -4.10466e+06)
(1.84083e+07 5.21372e+07 -7.0349e+06 -3.49578e+07 -6.15508e+07 -2.84265e+07)
(1.27928e+07 -1.95909e+07 1.08042e+07 1.00639e+07 -4.34119e+07 -1.04166e+07)
(-5.37505e+06 -1.35541e+07 4.69323e+07 -9.20144e+06 -6.7306e+07 -1.07176e+07)
(-4.83434e+06 -131232 -2.09381e+06 384150 -381569 -844007)
(2.84133e+07 -1.76964e+06 -2.37594e+07 -1.17049e+07 -1.24894e+06 -9.19102e+06)
(2.70682e+06 -1.51916e+06 -1.30239e+06 -1.98707e+06 689586 -726136)
(2.80493e+07 -2.31594e+07 1.85617e+07 -2.95083e+07 1.59357e+07 -8.4745e+06)
(-2.89448e+06 1.19583e+07 5.32238e+06 9.18258e+06 6.42728e+06 -4.56665e+06)
(-5.45553e+07 3.49259e+07 -1.68772e+07 1.00854e+08 6.44705e+06 -1.38299e+07)
(2.37776e+06 -4.83446e+07 -2.86914e+07 -5.88738e+06 1.667e+07 -1.03859e+07)
(7.93939e+07 -1.42704e+08 -5.99892e+06 -2.92905e+07 3.54698e+07 -2.81772e+07)
(2.74844e+06 -1.1373e+06 1.65318e+07 4.2645e+07 1.99839e+07 -1.23988e+07)
(-1.2026e+08 7.76734e+07 2.56692e+07 4.5186e+07 -2.69009e+07 -3.80007e+07)
(9.28247e+06 -5.31819e+06 -3.65085e+06 29355.7 -1.26011e+06 -836878)
(-201769 -186043 -880109 -1.45748e+06 -695121 88774.1)
(2.80156e+07 -5.21353e+06 -1.34337e+07 -1.0426e+07 -1.08647e+07 5.78331e+06)
(1.13305e+06 -2.06493e+06 -1.0962e+06 -3.39877e+06 500822 68724.4)
(-2.05657e+07 2.63224e+07 -6.68929e+06 4.65132e+07 4.5719e+06 -8.26816e+06)
(-1.05115e+07 6.77223e+06 -2.14178e+06 5.18732e+06 -2.10554e+06 -1.17306e+06)
(-3.68835e+07 -1.82731e+07 -2.404e+07 1.00191e+08 -2.66288e+07 -3.91169e+06)
(2.27089e+07 -6.18183e+07 -2.95728e+07 -1.17492e+08 2.65935e+07 1.94108e+07)
(6.92764e+07 -1.32047e+08 -860535 -2.08341e+07 2.03691e+07 -3.0306e+06)
(1.10875e+08 -2.23627e+08 -1.64301e+07 -4.28976e+07 7.72603e+06 -1.29877e+07)
(-825527 -1.63301e+06 -1.19334e+06 -293221 -165106 299408)
(4.83155e+06 -4.81854e+06 -2.59747e+06 -3.74025e+06 -812309 418955)
(1.04544e+06 -1.17818e+06 -2.23435e+06 -2.99201e+06 -1.16976e+06 721410)
(9.84332e+06 3.74615e+06 -1.58344e+07 -1.68895e+07 -7.57978e+06 7.31411e+06)
(372954 -2.43278e+06 -960266 -5.53563e+06 -1.60606e+06 1.19995e+06)
(-2.21508e+07 5.03957e+06 -3.4586e+06 2.14703e+07 -1.58801e+07 7.10241e+06)
(-1.33538e+07 3.21418e+06 -504512 4.69013e+06 -6.01442e+06 2.22829e+06)
(-1.67634e+07 -2.46506e+07 959681 2.26625e+07 -2.32517e+07 1.28527e+07)
(-9.52034e+06 -3.68064e+07 -7.24769e+06 -2.28404e+07 -9.65689e+06 1.08817e+07)
(-1.20279e+06 -2.50851e+07 -1.03266e+07 -4.03197e+06 450516 1.04181e+07)
(381924 -4.25446e+06 -1.77215e+06 -735937 -1.64147e+06 -295463)
(1.12904e+06 -5.38243e+06 -1.00835e+06 12460.8 253534 848409)
(-1.8526e+06 -1.33687e+07 -8.1594e+06 -718555 -1.87995e+06 5.45484e+06)
(-897003 -3.93106e+06 -1.23225e+06 -2.55537e+06 -193511 2.11984e+06)
(-4.13504e+06 -6.68732e+06 -3.98089e+06 1.48664e+06 -4.34326e+06 6.70547e+06)
(-3.18257e+06 -4.39343e+06 -685694 -3.25965e+06 -1.59989e+06 2.58645e+06)
(2.40429e+06 -1.85351e+07 -1.00979e+06 -6.16271e+06 -1.37427e+07 5.80282e+06)
(-1.66258e+06 -7.32556e+06 2.06457e+06 -7.5319e+06 -4.91009e+06 1.95838e+06)
(-9.93725e+06 -1.51667e+07 2.47797e+06 2.1902e+06 -8.68456e+06 4.20862e+06)
(-2.38951e+07 -1.86262e+07 -3.24218e+06 1.12972e+07 4.8288e+06 7.23324e+06)
)
;
    }
    procBoundary19to18
    {
        type            processor;
        value           nonuniform List<symmTensor> 
20
(
(1.62521e+06 230159 2.14192e+06 -514023 -3.34584e+06 -405890)
(1.12456e+06 5.21095e+06 -3.68575e+06 -1.00204e+07 -2.33878e+07 -1.06642e+07)
(2.72158e+06 -3.91963e+06 -4.0621e+06 3.6085e+06 -6.20336e+06 -3.83242e+06)
(-3.59326e+06 -1.11475e+07 -2.60048e+06 1.08645e+07 -4.55086e+06 799963)
(-6.11921e+06 -5.06844e+06 -2.24878e+06 133472 -1.11668e+06 -1.24445e+06)
(8.28826e+06 -271962 -4.53295e+06 -7.98176e+06 1.23117e+06 1.33942e+06)
(-1.95056e+06 -7.46387e+06 -1.00168e+06 -4.49845e+06 4.12001e+06 1.97515e+06)
(-3.99729e+06 6.99244e+06 -1.01187e+07 5.08277e+06 1.47694e+06 1.11192e+06)
(823555 900841 -2.04327e+06 -668844 -1.26519e+06 1.01546e+06)
(-3.02479e+06 -2.29094e+06 -1.49327e+06 -629198 -4174.58 1.13352e+06)
(-1.08254e+06 -1.71792e+06 -2.52403e+06 784272 1.2391e+06 1.03922e+06)
(-3.17309e+06 -7.74578e+06 -1.24186e+06 2.79658e+06 4.30885e+06 -1.09271e+06)
(-2.67972e+06 -3.35818e+06 -1.03048e+06 305797 -477325 134860)
(-3.88401e+06 -9.04502e+06 -2.79349e+06 5.87132e+06 -1.97585e+06 320518)
(-982027 -2.09144e+06 -1.10214e+06 1.02173e+06 28371.8 -124265)
(-614027 -1.82482e+06 -1.20017e+06 63239 320465 -320253)
(1.88905e+06 -3.80118e+06 125738 490654 -1.29702e+06 -876404)
(-830340 -1.7822e+06 -878744 18429.7 -200573 -40827)
(-1.20939e+06 -4.06715e+06 -341567 2.47667e+06 -1.74382e+06 204918)
(114088 -4.01293e+06 -2.21405e+06 532286 413549 16442.6)
)
;
    }
    procBoundary19to20
    {
        type            processor;
        value           nonuniform List<symmTensor> 
20
(
(1.49336e+06 -2.77619e+07 1.29495e+07 1.04695e+07 -9.18074e+06 -6.67997e+06)
(-2.3685e+08 -2.09124e+08 -1.55798e+07 5.02824e+08 -7.50307e+07 -1.21395e+07)
(-1.00063e+08 1.05528e+07 9.41119e+06 6.00048e+06 -1.31617e+07 2.50522e+06)
(4.9572e+07 -3.50018e+07 -3.73608e+07 -6.41912e+07 -1.77262e+07 2.36357e+07)
(-1.83194e+08 -2.74988e+07 -1.74074e+06 5.41181e+07 -3.56172e+07 9.40675e+06)
(5.78365e+06 -1.10134e+07 -4.06032e+06 -4.08523e+06 -352327 -9.02345e+06)
(-8.82796e+07 -3.51272e+06 1.18311e+07 7.41514e+07 -3.73502e+07 1.95289e+06)
(-4.23675e+07 2.48757e+06 8.5541e+06 1.05213e+07 -187121 2.96364e+06)
(-86996.4 -3.10629e+07 -7.70112e+06 9.54451e+06 -492109 -8.97098e+06)
(4.59765e+06 -6.82195e+07 -2.93581e+07 4.15684e+07 -5.56266e+06 7.16161e+06)
(-1.41312e+07 -4.78321e+07 -1.7017e+07 7.80016e+06 6.22377e+06 3.58595e+06)
(-3.85765e+06 -1.18029e+07 985453 9.84932e+06 1.38106e+06 -943230)
(6.19077e+06 -2.16525e+07 -2.24852e+07 -2.41861e+07 1.68816e+07 6.53549e+06)
(-1.81866e+06 -1.55571e+07 -7.6125e+06 -1.10462e+07 1.31586e+07 4.65045e+06)
(-2.94594e+07 -1.70439e+07 -1.10081e+07 3.61805e+07 9.11214e+06 2.96263e+06)
(-1.95634e+07 -615789 291775 1.49495e+07 5.80468e+06 -4.27482e+06)
(7.72368e+07 -9.64233e+07 -3.0286e+07 1.78828e+06 8.29016e+06 2.86363e+07)
(-711755 -2.16028e+07 5.87293e+06 -588763 6.60164e+06 -295726)
(-5.47079e+07 -2.17862e+07 -8.14905e+06 7.45983e+07 1.12569e+07 -1.25645e+07)
(-2.72472e+07 -4.56812e+07 -7.01175e+06 2.74242e+07 7.6616e+06 -5.95042e+06)
)
;
    }
    procBoundary19to27
    {
        type            processor;
        value           nonuniform List<symmTensor> 
50
(
(-1.55451e+07 -2.21114e+06 -2.74614e+07 1.89731e+07 -9.78467e+06 2.69141e+06)
(-4.87626e+06 -1.07966e+07 -1.82679e+07 -2.31985e+06 -6.74367e+06 3.98992e+06)
(-4.77889e+06 -1.74192e+07 -1.83593e+07 50657.3 -8.59837e+06 958123)
(-666321 2.98515e+06 -2.5318e+07 1.22762e+07 -8.81991e+06 -5.89544e+06)
(2.12517e+07 1.69183e+06 -1.79154e+07 3.43674e+07 1.92161e+07 -5.77029e+07)
(6.74245e+06 -4.94446e+07 -1.0599e+07 1.09089e+07 6.16121e+06 -1.43724e+07)
(-3.57187e+06 -1.57743e+07 -7.6201e+06 7.61689e+06 -8.28128e+06 -339358)
(-1.94294e+07 -1.46745e+07 -3.24168e+07 3.62828e+07 -2.39612e+07 -2.62126e+06)
(-3.38731e+07 -6.81272e+06 -2.01187e+07 5.26348e+07 -3.43342e+07 591173)
(-3.15192e+07 -6.88765e+06 -1.36836e+07 2.32859e+06 -7.53834e+06 3.63931e+06)
(-2.55153e+06 -6.71056e+06 8.80809e+06 -1.11251e+07 9.26641e+06 -2.10545e+06)
(-2.20733e+07 -5.37386e+07 8.20503e+06 1.81734e+07 2.6629e+07 1.72748e+07)
(-2.30183e+07 -1.4502e+07 -1.31219e+07 1.91614e+07 1.48128e+06 -615167)
(1.16373e+06 6.64084e+07 -1.49357e+08 5.16605e+07 -2.1544e+07 -1.24869e+08)
(-2.43664e+07 6.47435e+06 -1.90438e+07 2.28014e+07 -3.81901e+06 1.09672e+07)
(-2.56246e+06 -3.77457e+07 4.06615e+07 3.94223e+06 4.99374e+07 2.80941e+06)
(8.96576e+06 -2.0741e+07 5.86307e+06 -1.33304e+07 7.1313e+06 -258723)
(1.17526e+06 -2.48832e+07 1.66897e+06 8.08348e+06 -1.01664e+07 -1.2756e+06)
(-6.30432e+06 -1.38504e+07 6.37368e+06 4.83724e+07 -4.22681e+06 3.88821e+06)
(5.44903e+07 -2.65899e+07 3.99061e+07 -2.20252e+08 2.58269e+07 1.05739e+07)
(-7.0977e+06 -1.05366e+07 6.52202e+06 6.07416e+06 -2.74925e+06 874469)
(-9.41698e+06 -3.45237e+06 -1.45933e+06 2.65191e+06 5.59422e+06 3.00431e+06)
(-7.15288e+06 2.91458e+07 -6.48909e+07 1.07875e+07 -989515 -4.11908e+06)
(-3.36463e+06 820531 2.97063e+06 3.38338e+06 1.02643e+06 -460798)
(-5.00725e+06 -2.16012e+07 3.60318e+07 -5.98251e+06 1.79535e+07 1.25446e+07)
(1.93412e+06 -6.23878e+06 -934896 -7.48561e+06 -3.1886e+06 3.02125e+06)
(3.98006e+06 -5.97701e+06 -3.45807e+06 584308 -942773 -2.03592e+06)
(-4.37212e+06 -1.16775e+07 3.25879e+06 142531 1.13721e+07 -5.60408e+06)
(-2.26766e+07 -9.13501e+06 1.85372e+07 3.27452e+07 2.93171e+06 -1.09493e+07)
(710852 -7.19344e+06 4.47695e+06 3.26165e+06 -363987 -2.05261e+06)
(-3.02206e+06 1.40888e+07 8.30406e+06 289863 -806063 109355)
(3.64579e+06 7.38581e+06 -4.27494e+06 1.06188e+07 820142 -5.50227e+06)
(-2.90629e+06 -1.47228e+07 -6.47463e+06 564100 1.26921e+06 414699)
(-8.9196e+06 -1.30888e+07 1.04553e+06 -2.15832e+06 -2.15482e+06 2.46846e+07)
(-3.65178e+06 -2.83297e+06 2.21992e+06 -577033 -2.85331e+06 -2.07484e+06)
(370402 992406 -506013 147392 91991.7 -163813)
(-2.56301e+06 1.80262e+06 -1.59012e+06 734025 1.32307e+06 163692)
(1.347e+07 -1.15184e+07 -7.94108e+06 3.18048e+06 -1.54553e+07 -9.51507e+06)
(4.95794e+06 -6.88942e+06 109404 -9.92827e+06 -2.69653e+06 -2.00863e+06)
(-3.63049e+07 -3.67285e+07 1.79241e+07 2.99528e+07 6.81721e+06 -5.18302e+06)
(-4.35381e+06 -1.60185e+06 523838 5.55248e+06 774135 -334247)
(-1.98216e+06 803119 -15097.4 1.67362e+06 -1.43262e+06 -2.02438e+06)
(-1.82204e+06 -1.00972e+06 -610315 2.48124e+06 -528163 912703)
(-2.56988e+06 -2.69787e+06 419118 -1.66926e+06 1.37918e+06 1.33749e+06)
(-1.2933e+07 -9.06712e+06 3.64657e+06 1.26593e+07 1.29527e+06 2.59155e+06)
(-8.52525e+06 4.40519e+06 417794 3.7542e+06 56398.3 657523)
(-5.37178e+06 -2.66578e+07 -9.17722e+06 7.55482e+06 174795 1.84511e+06)
(-4.49878e+07 -2.26846e+07 -646883 1.97513e+07 -1.36741e+07 1.54926e+07)
(-2.41446e+07 6.70602e+07 1.10595e+07 -4.75518e+06 -1.95631e+06 7.76906e+06)
(2.0042e+07 1.51347e+07 -2.07842e+06 -2.50193e+06 -629429 -1.29656e+06)
)
;
    }
}


// ************************************************************************* //
