/*--------------------------------*- C++ -*----------------------------------*\
| =========                 |                                                 |
| \\      /  F ield         | OpenFOAM: The Open Source CFD Toolbox           |
|  \\    /   O peration     | Version:  2.4.0                                 |
|   \\  /    A nd           | Web:      www.OpenFOAM.org                      |
|    \\/     M anipulation  |                                                 |
\*---------------------------------------------------------------------------*/
FoamFile
{
    version     2.0;
    format      ascii;
    class       volVectorField;
    location    "0.06";
    object      Ur;
}
// * * * * * * * * * * * * * * * * * * * * * * * * * * * * * * * * * * * * * //

dimensions      [0 1 -1 0 0 0 0];

internalField   nonuniform List<vector> 
200
(
(-716.054 -15447.2 1984.5)
(4739.55 -24613.7 -1973.32)
(7433.37 -37728 -6023.57)
(5450.17 -41880.3 182.859)
(2796.25 -35395.7 -8208.06)
(10183.4 -45716.3 -8125.89)
(5046 -49402.3 -3720.97)
(16095.5 -82652.4 -4465.07)
(21085.8 -52224.2 -9506.3)
(16232.8 -57915.5 -17557)
(334.701 -24219.2 -7558.85)
(12145.1 -20772.9 -10618.2)
(6816.68 -22952.2 -3690.55)
(4291.08 -22954.8 -12057.8)
(2570.19 -29366.7 -18265.8)
(-1998.24 -22261.2 -16012.6)
(11691.6 -76017.7 -4178.17)
(14675.5 -63096.6 -5189)
(16142.4 -69058.2 -9975.68)
(12743.4 33817.4 -15610.5)
(-3081.95 -16907.1 -7580.67)
(-2882.66 -35177.8 -7607.57)
(1153.7 -15141 -15613.3)
(1943.25 -19104.5 -26624.5)
(5897.37 488.82 -26761.3)
(18151.6 -39888.7 107.469)
(17291.8 -76260.4 5419.08)
(-526.307 -80966.5 8110.81)
(3144.12 -23444.7 -7007.23)
(7755.53 -46537.7 4624.7)
(-21929.4 -25516.3 48.6456)
(-23492.5 -28200.9 3691.82)
(-25269.5 -19223.1 -2718.42)
(-12071.2 -13108.6 -16962.1)
(-3113.41 -17996.9 -19907)
(7410 -30835.6 -8569.54)
(-92.0407 -36591.2 10067.9)
(-2110.24 -51503.5 6010.89)
(-17972.7 -72878.7 21950.9)
(-42509.6 -6953.67 5053.96)
(1368.12 -16540.6 -3287.49)
(10868.4 -10065.2 -11462.7)
(8594.17 -21554.8 -9832.95)
(25075.9 -35978.7 -2601.5)
(12099.2 -1935.31 907.334)
(-10726.9 82237.5 -41848.7)
(12665.1 -32753.6 -36170.2)
(14332.3 -49646.9 -18119.9)
(4068.38 -57057.8 -19703.9)
(39726.2 -81530.2 -19684.2)
(2745.19 -8757.6 -12089.3)
(-4040.63 -27635.6 -9140.1)
(7387.93 -20861.2 -9373.1)
(-3177.95 -13289.2 -7571.39)
(-14046.7 33427.5 -24187.7)
(1873.35 -13609 -27043.8)
(5984.64 9198.9 -22507.4)
(10361.8 -49938.5 -12061.9)
(24196.4 -132339 -10900.4)
(-4051.64 -48160.5 -14427.4)
(-11512.7 -30958.6 -3758.79)
(-2807.64 -18345.7 -14005)
(-12028.9 -22812.8 -3033.05)
(-5557.05 -15401.7 -13134.6)
(-7179.46 -10997.1 -46145.2)
(-4312.83 6093.51 -23912)
(11883.7 -40578.1 3800.37)
(6853.3 -34731 -7421.37)
(3681.76 -52637.3 3276.4)
(-4689.55 -66229.3 -4789.46)
(-18837.3 2945.49 -19102.7)
(-27203.9 -13505.5 -9627.7)
(-20633.8 -20138.7 -8625.53)
(-29287.6 -25062.9 -17283.3)
(-16859.8 -25547 -4300.16)
(-15878.2 -2785.56 -125044)
(-26220.2 3976.86 -21724.1)
(-14892.6 -61973.6 28105.2)
(-17258.5 -47064.5 2608.02)
(-19288 -51552.7 19251.4)
(-3122.05 -1812.84 -7562.91)
(1660.7 -22639.5 -4619.95)
(7988.81 -14891.3 -8319.05)
(4596.17 -18315.5 -1623.56)
(-5161.15 74950.3 -18738.1)
(-10497.7 12682.7 -11233)
(-11633.5 67641.9 -33249.7)
(6793.06 -23969.6 -18712.6)
(12757 -33083.9 -20204.5)
(2123.48 -43853.7 -14935.4)
(-13348.7 -23334.8 -5781.35)
(-10584.3 -28684.4 4645.17)
(-19225.3 -19831.4 1341.76)
(-16358.5 30461.8 -5739.74)
(-22486.8 -12174 4636.57)
(-13774.4 66237.4 -15407)
(2027.97 -13307.7 -17240.9)
(5709.71 -6849.94 -17500.6)
(9998.25 -54924.7 -5376.78)
(11172 -54061.3 -6911.63)
(-17325.8 -13481.6 -5310.03)
(-18840.5 -22679.5 -4284.41)
(-20837.2 -21091.2 399.541)
(-17874.4 -18086.2 926.123)
(-23460.2 -493.758 -1950.65)
(-19090.5 -20625.4 -4278.37)
(-9639.2 11208.6 -14177.1)
(7005.55 -49580.6 933.743)
(-2850.08 -39178.7 -3114.48)
(-787.383 -65627.7 7927.67)
(-15296.1 -23069.6 2975.55)
(-22922.5 -12325.4 -2596.13)
(-18525.1 -27958.6 1778.77)
(-22499.1 -26724.3 -5562.43)
(-29240 5956.13 -118919)
(-42269.4 -3519.99 -2262.05)
(-47770 -24063.3 -206.378)
(-23695.9 -13701.1 -9606.35)
(-37046.4 -53992.9 10166.8)
(-43747.5 -33720.7 7772.36)
(-3388.68 -21692.4 554.276)
(-4091.47 -25088.8 -5145.37)
(-5562.15 -35508.1 -5148.19)
(7021.35 -31682.3 -8769.26)
(652.98 -25516.1 -164.356)
(-4716.89 21684.2 -13689.2)
(-19204.6 319 -6634.71)
(-14408.7 25120.8 -19346)
(-23316.2 -23482.8 -3421.22)
(-22117.9 -43216 -17135.8)
(-16778.9 -14324.2 -1220.99)
(-21444 -24999.3 -1855.8)
(-4592.09 -50857.7 2643.3)
(-32872.4 -26701.4 -964.972)
(-19073.7 3935.61 -604.996)
(-29819.1 -14148.4 2079.62)
(-23164.5 27905.2 -14211.1)
(-17039.6 -25984 -8126.8)
(-21872.6 3559.82 -12558.9)
(-31101.5 -25867.4 4146.05)
(-13848.4 -21137.5 -1241)
(-23098.6 -12324.6 -6122.13)
(-19705.5 -24053.6 -1514.77)
(-30308.9 -24906.6 -4322.81)
(-19139.4 -37875 -2674.9)
(-40400 -31315.7 2905.01)
(-24889.7 -21095.1 -5559.73)
(-25555.3 2458.02 -8676.93)
(-25371.9 -30115.6 2244.18)
(-24169.5 -50939.8 8721.35)
(-20897.8 -5230.33 -2009.47)
(-14832 -25891.9 5148.89)
(-29311.5 -11068.1 -7166.91)
(-22781.4 -13162.6 -17457.6)
(-35824.1 -15107.8 -4924.78)
(-42869.3 -18336.2 -6033.37)
(-42890.7 -17727.8 -3000.69)
(-30480.6 -19118.8 -7680.87)
(-34075.2 -12084.6 -1671.53)
(-17548.3 -57407.2 -1451.59)
(-4896.44 -20832.7 -794.455)
(-5416.32 -30301.5 192.22)
(-7831.03 -21448.1 -6398.19)
(-5818.48 -45752.7 1811.17)
(-9067.94 -32539.3 -6185.4)
(-15521.1 -43367.3 167.558)
(-10280.1 -44404.6 -7561.94)
(-18385.4 -59458.5 1533.89)
(-17670.2 -52629.9 -1259.7)
(-23910.8 -58480.5 -99.1565)
(-8488.54 -25709.3 -1807.14)
(-16184 -19239 -6298.13)
(-13251.9 -32947.9 -892.179)
(-15402.2 -22847.2 -3791.52)
(-18592.6 -29857.5 1882.17)
(-16462.6 -27843.6 -4693.95)
(-10783 -53079.2 -1239.9)
(-12600.8 -48705 -5021.54)
(-24535.7 -42752 3783.57)
(-22302.7 -41720.6 3560.49)
(-22001 -17260.2 -4039.32)
(-14242 -28304 -4806.81)
(-24622.6 -21896.4 -7488.44)
(-25649.5 -18384.9 -5496.88)
(-27293 -28261.8 -5452.09)
(-26924.7 -46264.7 -137.643)
(-28298.6 -59555.1 -2455.42)
(-33000.1 -45235.5 -2050.62)
(-30426.3 -32934.7 -1475.66)
(-38146.6 -34387.9 5343.38)
(-12484 -29093.4 -3973.34)
(-25987.4 -23459.8 -11106.9)
(-25450.7 -23982.8 -6432.61)
(-29165.2 -12645.9 -9498.16)
(-33676.8 -33778.9 -4741.12)
(-38736.3 -31927.7 915.431)
(-42197.9 -49557.6 1583.07)
(-47808.9 -44708.2 -8842.77)
(-44420 -27160.4 -6212.44)
(-45801.4 -7447.6 843.323)
)
;

boundaryField
{
    inlet
    {
        type            calculated;
        value           nonuniform 0();
    }
    outlet
    {
        type            calculated;
        value           nonuniform 0();
    }
    bottom
    {
        type            calculated;
        value           uniform (0 0 0);
    }
    top
    {
        type            symmetryPlane;
    }
    side1
    {
        type            symmetryPlane;
    }
    side2
    {
        type            symmetryPlane;
    }
    procBoundary19to11
    {
        type            processor;
        value           nonuniform List<vector> 
50
(
(13568.1 -24996.2 2245.88)
(3629.22 -22955.6 5045.33)
(14247.3 -29880.3 1988.52)
(10654.6 -34637.2 1629.86)
(22384.8 -38023.2 5754.82)
(8003.26 -40416.3 1648.49)
(16620.5 -95636 6957.28)
(16861.6 -57137.8 -910.875)
(22100.5 -61534.3 -8115.18)
(25001.1 -74532.4 -5215.6)
(5865.88 -2391.3 1668.11)
(9670.06 -10924.8 -1842.41)
(15948.1 -2507.12 -17648.1)
(18995.5 -22315.7 -9983.68)
(34562.8 -36915.4 3139.97)
(16456.8 2651.06 1979.96)
(5264.85 19182.6 -14762.7)
(17967 -58673.8 -26169)
(35669.5 -90918.1 -13093.2)
(18731.8 -47880.8 -8896.39)
(12283.2 -16817.1 -1500.27)
(11483.6 -9685.24 -5391.05)
(11582.7 -12304 -6016.81)
(22970.3 -6920.6 -16367.1)
(13977.9 -16631.7 -7062.48)
(7284.84 47911.6 -22118.2)
(-9929.82 27921.3 -14151.3)
(-3183.92 51451 -35441.1)
(-3728.94 -14949.1 -19156.2)
(25646 -61536.3 -22320)
(3505.33 -13106.1 -390.488)
(4566.88 -23892.6 -856.126)
(15820.3 -30759.5 -10060.2)
(7510.76 -22643.5 -9518.78)
(20314.3 -21497.3 -17039.6)
(7964.5 -23578.5 -6557.82)
(4228.66 -3495.82 -18315.6)
(-17698.5 2052.03 -9208.05)
(-8610.29 -30690.1 -17129.1)
(-23864.4 -40658.2 -16279.4)
(-2140.92 -22849.7 1175.87)
(54.5765 -21183.6 -1973.89)
(-964.006 -29654.3 483.765)
(-961.792 -28415.2 -5681.57)
(-2974 -41111.6 -2390.95)
(-4706.23 -33551.7 -5613.69)
(-7654.24 -47302.1 -448.094)
(-2276.73 -57912.3 -3941.04)
(-11142.7 -63649.4 3396.42)
(-12409.5 -61190.6 1903.81)
)
;
    }
    procBoundary19to18
    {
        type            processor;
        value           nonuniform List<vector> 
20
(
(9911.99 -25625.4 4948.36)
(-1054.38 -20535.2 -7474.22)
(-5496.6 -33916.6 -8062.49)
(-20338.6 -12916.6 -3191.39)
(1744.46 7154.79 -7173.25)
(-3383.66 -20573 -6644)
(-10231.4 -14846.7 -4883.67)
(-15292.5 -31492.9 5116.64)
(3056.01 -18046.7 70.0745)
(-12900.6 -13338.7 -1566.91)
(-10616.3 -20729.4 -391.047)
(-19157.3 -11020.4 -142.474)
(-7603.35 -14256.2 2094.01)
(-8366.78 -19892.2 1088.93)
(-20334.8 -5404.95 31.4045)
(-16276.8 -15604.8 2561.34)
(-5790.48 -22787.6 788.131)
(-14030.2 -19570.4 -793.799)
(-12889.8 -22704.3 -1225.35)
(-29331.8 -10551.4 -2682.07)
)
;
    }
    procBoundary19to20
    {
        type            processor;
        value           nonuniform List<vector> 
20
(
(-2831.63 -69018.4 -21628.7)
(-6854.02 -23996.8 14668.6)
(2258.28 31240.6 -3213.23)
(-32304 -21583 15116.8)
(7623.75 -41932.4 -20000.2)
(19595.2 -53341.5 -18541.4)
(-13132.5 -48899.7 4825.6)
(-39920.3 -28432.3 11416.4)
(20225.7 -94535.4 -15624.8)
(2696.41 -65640.8 -9954.16)
(-7473.63 -56841.9 -2163.59)
(-39632.9 -58480.7 18835.7)
(-46816.6 -48582.5 -55412.7)
(-26903.9 -91020.6 -8151.01)
(-25501.1 -76681.5 10092.3)
(-39482.8 -37307.5 7234.47)
(-63387.7 -37146.5 -770.942)
(-31623.2 -63336.5 8973.35)
(-39681.8 -38169.8 4873.66)
(-55876.2 -7801.42 1664.09)
)
;
    }
    procBoundary19to27
    {
        type            processor;
        value           nonuniform List<vector> 
50
(
(-28830 -19111.9 2683.56)
(-30754.3 -14372.5 -3392.61)
(-32183.4 -26401.9 -4481.85)
(-34685.2 -33689.7 -12414.4)
(-32626.1 -1643.12 -15050)
(-26163.1 -16844.8 -5543.9)
(-29142.7 -28814.2 -1205.53)
(-30287.6 -28186.4 -2462.01)
(-37110.5 -13637.8 -4898.79)
(-46438.2 -17055.8 1169.62)
(-27652.5 -6249.49 1557.61)
(-26718.3 -14584.7 12173)
(-35596.5 -33162.2 7003.79)
(-39158.3 -16292.6 -120.43)
(-35338.2 12171.3 -58995.7)
(-53183.9 11298 -18216.7)
(-37033.7 -20380.3 -48.4339)
(-42974.1 -24987.5 -977.828)
(-35903 -51079 5800.77)
(-46302.6 -19835.9 7728.55)
(-25627.5 -10924.3 -2739.79)
(-29283.3 -29250.9 16502)
(-38230.6 -15002.9 -5545.72)
(-35617.7 30401.5 -101089)
(-44874.2 -3417.46 5151.23)
(-42611.7 -24279.9 404.364)
(-41576.9 -23911.5 -2148.32)
(-38729.2 -35111.2 -6388.95)
(-43434.7 -19795.4 1670.22)
(-49807.8 -32202.2 9962.09)
(-30808.7 -25329.4 4398.28)
(-30239.1 38138 25039.5)
(-27083.6 778.58 -4669)
(-35848.7 -17983.5 -3031.98)
(-38015.3 -25222.9 -2925.25)
(-40025.9 -22807.1 -1734.47)
(-36884.3 -19888.1 -6403.68)
(-46331.2 -11851.4 -8597.99)
(-30266.2 -22827 -11316.7)
(-44173.8 -12241.6 369.119)
(-21178.1 -27068.7 -2244.32)
(-28222.4 -16201.6 -1488.02)
(-28384.4 -18174.2 -2984.3)
(-32996.9 -16775.9 -4280.07)
(-32774.9 -25348.9 -2443.43)
(-41369.4 -27121.3 -1196.28)
(-44649.7 -12872.7 -859.676)
(-47977.7 -93763.3 -21348.7)
(-71824.8 -42382.3 -1126.66)
(-60062.5 -18700.9 2709.32)
)
;
    }
}


// ************************************************************************* //
