/*--------------------------------*- C++ -*----------------------------------*\
| =========                 |                                                 |
| \\      /  F ield         | OpenFOAM: The Open Source CFD Toolbox           |
|  \\    /   O peration     | Version:  2.4.0                                 |
|   \\  /    A nd           | Web:      www.OpenFOAM.org                      |
|    \\/     M anipulation  |                                                 |
\*---------------------------------------------------------------------------*/
FoamFile
{
    version     2.0;
    format      ascii;
    class       volVectorField;
    location    "0.02";
    object      Uc;
}
// * * * * * * * * * * * * * * * * * * * * * * * * * * * * * * * * * * * * * //

dimensions      [0 1 -1 0 0 0 0];

internalField   nonuniform List<vector> 
200
(
(2.59386e-15 2.02297e-15 3.34097e-16)
(9.64399e-17 1.67627e-17 1.98476e-16)
(-2.25074e-15 -8.46157e-15 2.15341e-14)
(-2.15068e-13 -8.74315e-13 2.29859e-12)
(-2.0391e-11 -8.19151e-11 2.15402e-10)
(-1.77807e-09 -6.54364e-09 1.67677e-08)
(-1.23777e-07 -3.97606e-07 9.74586e-07)
(-5.22425e-06 -1.38558e-05 3.21621e-05)
(-2.86735e-05 7.58629e-06 2.38984e-06)
(-7.8161e-07 7.69837e-08 8.26555e-08)
(-7.60969e-17 -8.79977e-17 7.87863e-18)
(-1.13509e-14 -1.28129e-14 9.82156e-16)
(-1.4672e-12 -1.65616e-12 1.26919e-13)
(-1.73841e-10 -1.96228e-10 1.50352e-11)
(-1.8309e-08 -2.06668e-08 1.58327e-09)
(-1.62705e-06 -1.83657e-06 1.40679e-07)
(-0.000110168 -0.000124355 9.52425e-06)
(-0.00435218 -0.00491263 0.000376216)
(-0.000109449 -0.000125615 9.70125e-06)
(2.61079e-05 -4.59138e-05 6.05868e-06)
(-1.10992e-18 -1.26716e-18 9.9784e-20)
(-1.43154e-16 -1.63095e-16 1.25428e-17)
(-1.69465e-14 -1.93484e-14 1.48926e-15)
(-1.82291e-12 -2.08802e-12 1.60932e-13)
(-1.72407e-10 -1.98536e-10 1.53362e-11)
(-1.35618e-08 -1.57739e-08 1.2236e-09)
(-7.95601e-07 -9.47162e-07 7.41826e-08)
(-2.59456e-05 -3.36589e-05 2.72471e-06)
(0.000108569 -0.00017454 2.33852e-05)
(0.00436603 -0.00693016 0.000930616)
(-8.27848e-21 -9.41021e-21 7.3837e-22)
(-9.82114e-19 -1.11983e-18 8.73673e-20)
(-1.07163e-16 -1.22859e-16 9.59769e-18)
(-1.05452e-14 -1.2186e-14 9.54192e-16)
(-9.03784e-13 -1.05773e-12 8.31792e-14)
(-6.36126e-11 -7.62002e-11 6.04364e-12)
(-3.27228e-09 -4.13554e-09 3.34577e-10)
(-8.83898e-08 -1.36052e-07 1.17347e-08)
(8.0953e-07 -1.28342e-06 1.73582e-07)
(2.78594e-05 -4.38941e-05 5.9382e-06)
(6.28087e-13 4.89982e-13 8.0545e-14)
(2.64759e-14 2.0654e-14 3.39623e-15)
(6.03577e-16 4.37831e-16 1.85802e-16)
(-8.94004e-16 -3.88723e-15 1.04955e-14)
(-7.66742e-14 -3.30646e-13 8.96206e-13)
(-5.94923e-12 -2.36694e-11 6.2999e-11)
(-3.65513e-10 -1.27082e-09 3.27061e-09)
(-1.35336e-08 -3.83826e-08 9.51497e-08)
(-8.4975e-08 2.23868e-08 7.46552e-09)
(-2.6382e-09 2.67671e-10 2.83666e-10)
(1.32472e-15 1.03328e-15 1.69974e-16)
(5.44746e-18 -1.52723e-17 1.27236e-17)
(-6.63357e-15 -7.48845e-15 5.74271e-16)
(-7.14841e-13 -8.06902e-13 6.18364e-14)
(-6.77733e-11 -7.65013e-11 5.86161e-12)
(-5.35474e-09 -6.04431e-09 4.6305e-10)
(-3.17327e-07 -3.58191e-07 2.74369e-08)
(-1.07484e-05 -1.21326e-05 9.29231e-07)
(-3.1497e-07 -3.62341e-07 2.80214e-08)
(7.48523e-08 -1.33556e-07 1.75827e-08)
(2.55651e-18 1.99206e-18 3.29235e-19)
(-6.34943e-19 -7.70543e-19 8.36797e-20)
(-8.35497e-17 -9.54828e-17 7.35362e-18)
(-8.23916e-15 -9.44999e-15 7.28813e-16)
(-7.08357e-13 -8.17349e-13 6.31948e-14)
(-5.01311e-11 -5.85036e-11 4.5448e-12)
(-2.61102e-09 -3.12923e-09 2.4576e-10)
(-7.40757e-08 -9.80241e-08 7.99191e-09)
(3.13043e-07 -5.04162e-07 6.7527e-08)
(1.0827e-05 -1.71856e-05 2.30777e-06)
(4.59219e-21 3.55189e-21 5.99962e-22)
(-5.38446e-21 -6.23648e-21 5.35308e-22)
(-5.7181e-19 -6.56351e-19 5.13572e-20)
(-5.1962e-17 -6.01647e-17 4.71998e-18)
(-4.08172e-15 -4.7927e-15 3.77808e-16)
(-2.60925e-13 -3.14421e-13 2.50232e-14)
(-1.20463e-11 -1.54164e-11 1.25434e-12)
(-2.85373e-10 -4.56597e-10 3.98537e-11)
(2.66989e-09 -4.23211e-09 5.72905e-10)
(8.06273e-08 -1.26899e-07 1.71857e-08)
(2.5882e-15 2.0191e-15 3.31907e-16)
(1.19992e-16 9.3607e-17 1.53905e-17)
(3.01123e-18 2.26002e-18 6.77894e-19)
(-1.9737e-18 -9.43545e-18 2.61309e-17)
(-1.5954e-16 -7.36875e-16 2.04852e-15)
(-1.12379e-14 -4.7807e-14 1.31241e-13)
(-6.19845e-13 -2.29969e-12 6.15195e-12)
(-2.05934e-11 -6.12945e-11 1.59865e-10)
(-1.42935e-10 3.74867e-11 1.32092e-11)
(-4.98607e-12 5.15585e-13 5.46052e-13)
(6.00564e-18 4.68466e-18 7.70425e-19)
(1.53941e-19 6.78585e-20 5.19198e-20)
(-1.63811e-17 -1.84936e-17 1.41937e-18)
(-1.61871e-15 -1.82717e-15 1.40051e-16)
(-1.39528e-13 -1.57497e-13 1.20697e-14)
(-9.92252e-12 -1.12004e-11 8.58186e-13)
(-5.22739e-10 -5.90058e-10 4.5204e-11)
(-1.54958e-08 -1.74915e-08 1.33983e-09)
(-5.18383e-10 -5.97759e-10 4.62903e-11)
(1.2273e-10 -2.22171e-10 2.91817e-11)
(1.26545e-20 9.86488e-21 1.62708e-21)
(-1.50463e-21 -1.96705e-21 2.82101e-22)
(-2.23296e-19 -2.55434e-19 1.96844e-20)
(-2.03362e-17 -2.33559e-17 1.80246e-18)
(-1.60271e-15 -1.85302e-15 1.43402e-16)
(-1.03064e-13 -1.2068e-13 9.38857e-15)
(-4.82465e-12 -5.82099e-12 4.58415e-13)
(-1.20942e-10 -1.63254e-10 1.34031e-11)
(5.16213e-10 -8.32857e-10 1.11517e-10)
(1.5673e-08 -2.48778e-08 3.3407e-09)
(2.47124e-23 1.91475e-23 3.20528e-24)
(-1.58596e-23 -1.86446e-23 1.73611e-24)
(-1.64297e-21 -1.88809e-21 1.47977e-22)
(-1.38798e-19 -1.61019e-19 1.2656e-20)
(-1.00668e-17 -1.18589e-17 9.37092e-19)
(-5.89371e-16 -7.14439e-16 5.70527e-17)
(-2.46628e-14 -3.19617e-14 2.61518e-15)
(-5.18535e-13 -8.62532e-13 7.61493e-14)
(4.95795e-12 -7.85763e-12 1.06465e-12)
(1.33451e-10 -2.09817e-10 2.84451e-11)
(5.8662e-18 4.57632e-18 7.52272e-19)
(2.96636e-19 2.31409e-19 3.80461e-20)
(8.09311e-21 6.13962e-21 1.60071e-21)
(-3.02981e-21 -1.65273e-20 4.68901e-20)
(-2.44095e-19 -1.19848e-18 3.39668e-18)
(-1.58701e-17 -7.11212e-17 1.99974e-16)
(-7.91353e-16 -3.09587e-15 8.54716e-15)
(-2.40022e-14 -7.38374e-14 2.00579e-13)
(-1.79481e-13 4.68508e-14 1.74099e-14)
(-6.95565e-15 7.28073e-16 7.7662e-16)
(1.48503e-20 1.1584e-20 1.90493e-21)
(5.26046e-22 3.10163e-22 1.29209e-22)
(-2.92033e-20 -3.29718e-20 2.5329e-21)
(-2.66611e-18 -3.00942e-18 2.3072e-19)
(-2.10713e-16 -2.37849e-16 1.8231e-17)
(-1.36233e-14 -1.53778e-14 1.17847e-15)
(-6.45984e-13 -7.29179e-13 5.58708e-14)
(-1.70245e-11 -1.92172e-11 1.47223e-12)
(-6.40014e-13 -7.39768e-13 5.73664e-14)
(1.50953e-13 -2.77233e-13 3.63315e-14)
(3.39084e-23 2.64369e-23 4.35771e-24)
(-2.50417e-24 -3.58282e-24 6.52906e-25)
(-4.27929e-22 -4.89979e-22 3.77833e-23)
(-3.62373e-20 -4.16725e-20 3.21817e-21)
(-2.63755e-18 -3.05555e-18 2.36683e-19)
(-1.55428e-16 -1.82603e-16 1.42268e-17)
(-6.60533e-15 -8.02293e-15 6.33543e-16)
(-1.48114e-13 -2.0395e-13 1.68582e-14)
(6.38577e-13 -1.03211e-12 1.38154e-13)
(1.72894e-11 -2.74437e-11 3.68526e-12)
(7.13989e-26 5.53409e-26 9.23969e-27)
(-3.32338e-26 -3.96305e-26 3.96257e-27)
(-3.36719e-24 -3.87382e-24 3.04095e-25)
(-2.66036e-22 -3.09198e-22 2.43481e-23)
(-1.79323e-20 -2.11922e-20 1.67859e-21)
(-9.68512e-19 -1.18096e-18 9.46253e-20)
(-3.70379e-17 -4.8605e-17 3.99901e-18)
(-6.97789e-16 -1.20687e-15 1.07721e-16)
(6.82164e-15 -1.08094e-14 1.46591e-15)
(1.657e-13 -2.60244e-13 3.53189e-14)
(9.68297e-21 7.55385e-21 1.23841e-21)
(5.30395e-22 4.13767e-22 6.7831e-23)
(1.5622e-23 1.19119e-23 2.86775e-24)
(-3.47099e-24 -2.33053e-23 6.7766e-23)
(-3.04242e-22 -1.58748e-21 4.56047e-21)
(-1.86511e-20 -8.69212e-20 2.4849e-19)
(-8.45421e-19 -3.45247e-18 9.76638e-18)
(-2.3724e-17 -7.44944e-17 2.08898e-16)
(-1.87373e-16 4.8675e-17 1.90031e-17)
(-7.99242e-18 8.42967e-19 9.08428e-19)
(2.6559e-23 2.07177e-23 3.39698e-24)
(1.12399e-24 7.22546e-25 2.38514e-25)
(-4.20377e-23 -4.74666e-23 3.64115e-24)
(-3.56975e-21 -4.02937e-21 3.08276e-22)
(-2.60613e-19 -2.94172e-19 2.25048e-20)
(-1.5448e-17 -1.74375e-17 1.33393e-18)
(-6.6591e-16 -7.51675e-16 5.75002e-17)
(-1.57962e-14 -1.78308e-14 1.36399e-15)
(-6.59146e-16 -7.63702e-16 5.91974e-17)
(1.54871e-16 -2.88558e-16 3.76627e-17)
(6.53247e-26 5.09338e-26 8.36745e-27)
(-3.24684e-27 -5.2061e-27 1.17562e-27)
(-6.58755e-25 -7.54961e-25 5.81008e-26)
(-5.21765e-23 -6.0079e-23 4.63118e-24)
(-3.53019e-21 -4.09765e-21 3.16962e-22)
(-1.92009e-19 -2.2633e-19 1.76212e-20)
(-7.46881e-18 -9.13263e-18 7.21684e-19)
(-1.51298e-16 -2.12526e-16 1.76512e-17)
(6.58952e-16 -1.06693e-15 1.42511e-16)
(1.61072e-14 -2.55673e-14 3.42761e-15)
(1.47486e-28 1.14318e-28 1.90037e-29)
(-5.55626e-29 -6.71797e-29 7.13752e-30)
(-5.52021e-27 -6.35725e-27 4.98432e-28)
(-4.09993e-25 -4.77349e-25 3.75587e-26)
(-2.58288e-23 -3.06185e-23 2.42488e-24)
(-1.29484e-21 -1.58803e-21 1.27369e-22)
(-4.55626e-20 -6.05443e-20 4.99764e-21)
(-7.75159e-19 -1.39428e-18 1.25509e-19)
(7.7519e-18 -1.22813e-17 1.66372e-18)
(1.71624e-16 -2.69264e-16 3.65153e-17)
)
;

boundaryField
{
    inlet
    {
        type            calculated;
        value           nonuniform 0();
    }
    outlet
    {
        type            calculated;
        value           uniform (0 0 0);
    }
    bottom
    {
        type            calculated;
        value           uniform (0 0 0);
    }
    top
    {
        type            symmetryPlane;
    }
    side1
    {
        type            symmetryPlane;
    }
    side2
    {
        type            symmetryPlane;
    }
    procBoundary31to23
    {
        type            processor;
        value           nonuniform List<vector> 
50
(
(9.83511e-13 7.6723e-13 1.2622e-13)
(4.90226e-14 3.67139e-14 1.99808e-14)
(1.2247e-12 8.29532e-13 1.90031e-12)
(1.62446e-10 1.17009e-10 2.2549e-10)
(1.80119e-08 1.33187e-08 2.37677e-08)
(1.62455e-06 1.21387e-06 2.11283e-06)
(0.000109516 8.2328e-05 0.000143084)
(0.00426917 0.00326837 0.00565532)
(-0.00531478 0.00160008 0.000411805)
(-0.000137721 4.0222e-05 9.0408e-06)
(2.6463e-10 2.06443e-10 3.39359e-11)
(1.00409e-11 7.83305e-12 1.2877e-12)
(2.17263e-13 1.68928e-13 3.57462e-14)
(6.70513e-13 4.83905e-13 9.27689e-13)
(6.65851e-11 4.93256e-11 8.79845e-11)
(5.33717e-09 3.99755e-09 6.95401e-09)
(3.14617e-07 2.37369e-07 4.12181e-07)
(1.04871e-05 8.08757e-06 1.39696e-05)
(-1.308e-05 3.98528e-06 1.07576e-06)
(-3.96833e-07 1.16595e-07 2.69692e-08)
(9.81411e-13 7.65617e-13 1.25855e-13)
(4.13689e-14 3.22726e-14 5.3053e-15)
(9.7445e-16 7.58423e-16 1.44843e-16)
(1.57547e-15 1.12679e-15 2.12426e-15)
(1.37979e-13 1.02111e-13 1.8163e-13)
(9.87271e-12 7.41246e-12 1.2887e-11)
(5.16906e-10 3.91407e-10 6.79067e-10)
(1.50378e-08 1.16825e-08 2.0144e-08)
(-1.87914e-08 5.79398e-09 1.63561e-09)
(-6.53945e-10 1.93293e-10 4.59614e-11)
(2.02212e-15 1.5775e-15 2.59315e-16)
(9.37455e-17 7.31325e-17 1.20222e-17)
(2.40301e-18 1.87013e-18 3.4505e-19)
(2.77382e-18 1.9478e-18 3.57474e-18)
(2.11364e-16 1.55828e-16 2.75768e-16)
(1.35313e-14 1.01838e-14 1.76948e-14)
(6.37086e-13 4.84163e-13 8.39262e-13)
(1.64321e-11 1.286e-11 2.21358e-11)
(-2.05729e-11 6.41884e-12 1.89001e-12)
(-8.08412e-13 2.4038e-13 5.8699e-14)
(3.05928e-18 2.3866e-18 3.9135e-19)
(1.54708e-19 1.20691e-19 1.97873e-20)
(4.29523e-21 3.34135e-21 6.05314e-22)
(4.06827e-21 2.7862e-21 4.9265e-21)
(2.67152e-19 1.95698e-19 3.43061e-19)
(1.53172e-17 1.15554e-17 2.0027e-17)
(6.54994e-16 4.99587e-16 8.63677e-16)
(1.51637e-14 1.19554e-14 2.05092e-14)
(-1.90215e-14 6.00518e-15 1.83686e-15)
(-8.33641e-16 2.49361e-16 6.236e-17)
)
;
    }
    procBoundary31to30
    {
        type            processor;
        value           nonuniform List<vector> 
20
(
(1.10642e-16 8.5923e-17 1.39432e-17)
(-2.84718e-19 -4.19187e-19 8.39829e-20)
(-7.65992e-21 -8.93072e-21 8.04634e-22)
(-6.40698e-23 -7.30058e-23 5.94232e-24)
(2.37961e-14 1.85612e-14 3.05167e-15)
(5.57775e-17 4.35046e-17 7.15378e-18)
(1.18611e-19 9.24955e-20 1.5222e-20)
(2.34095e-22 1.8176e-22 3.01132e-23)
(1.08948e-16 8.49785e-17 1.39718e-17)
(2.78101e-19 2.16908e-19 3.56668e-20)
(6.39901e-22 4.99042e-22 8.2099e-23)
(1.35963e-24 1.05574e-24 1.74681e-25)
(2.71598e-19 2.11842e-19 3.48307e-20)
(7.5006e-22 5.85011e-22 9.61953e-23)
(1.85679e-24 1.44808e-24 2.38204e-25)
(4.22489e-27 3.28003e-27 5.42582e-28)
(4.89056e-22 3.81451e-22 6.25367e-23)
(1.45314e-24 1.13337e-24 1.85787e-25)
(3.85155e-27 3.00376e-27 4.92455e-28)
(9.34486e-30 7.25337e-30 1.19567e-30)
)
;
    }
}


// ************************************************************************* //
