/*--------------------------------*- C++ -*----------------------------------*\
| =========                 |                                                 |
| \\      /  F ield         | OpenFOAM: The Open Source CFD Toolbox           |
|  \\    /   O peration     | Version:  2.4.0                                 |
|   \\  /    A nd           | Web:      www.OpenFOAM.org                      |
|    \\/     M anipulation  |                                                 |
\*---------------------------------------------------------------------------*/
FoamFile
{
    version     2.0;
    format      ascii;
    class       volVectorField;
    location    "0.11";
    object      gradp;
}
// * * * * * * * * * * * * * * * * * * * * * * * * * * * * * * * * * * * * * //

dimensions      [1 -2 -2 0 0 0 0];

internalField   nonuniform List<vector> 
200
(
(4.23991e+17 1.41515e+18 -5.70133e+17)
(2.99337e+17 1.6176e+18 -5.77492e+17)
(1.02159e+17 1.70883e+18 -3.95659e+17)
(-3.52873e+16 1.69671e+18 -4.23389e+17)
(-2.85392e+17 1.49187e+18 -1.73463e+17)
(-3.75929e+17 1.29091e+18 -1.80417e+17)
(-2.92997e+17 9.29746e+17 1.07449e+17)
(-1.15429e+17 6.54262e+17 -2.69395e+16)
(2.57816e+17 2.79207e+17 2.08729e+17)
(5.49969e+17 2.63034e+17 4.51856e+15)
(4.36036e+17 1.15942e+18 -4.86847e+17)
(4.36006e+17 1.08284e+18 -3.62365e+17)
(9.62772e+16 1.12053e+18 -3.45235e+17)
(-3.84251e+17 1.03195e+18 -2.312e+17)
(-6.79126e+17 1.00788e+18 -1.64059e+17)
(-8.15859e+17 8.60601e+17 4.11688e+15)
(-7.55441e+17 8.10893e+17 3.61245e+16)
(-4.46608e+17 5.83343e+17 2.37456e+17)
(1.11785e+17 4.54123e+17 9.3693e+16)
(-1.25257e+17 1.9055e+17 2.80843e+16)
(2.82128e+17 7.71764e+17 -4.07221e+17)
(2.21553e+17 6.60971e+17 -2.39043e+17)
(3.78351e+14 5.93874e+17 -1.51631e+17)
(-2.60575e+17 7.16108e+17 -4.81799e+16)
(-6.28079e+17 8.09456e+17 -3.3466e+16)
(-7.6991e+17 9.61239e+17 5.79342e+16)
(-8.47513e+17 9.78976e+17 5.72763e+16)
(-8.2897e+17 9.80648e+17 1.05357e+17)
(-5.27771e+17 7.70935e+17 1.1635e+17)
(-7.39377e+17 3.92189e+17 6.39291e+14)
(-5.00995e+16 2.98824e+17 -2.07632e+17)
(8.02263e+16 2.25015e+17 -1.19301e+17)
(2.06552e+17 2.28161e+17 -7.06018e+15)
(4.69146e+16 3.28102e+17 6.74868e+16)
(-1.88866e+17 3.81906e+17 7.98514e+16)
(-4.76821e+17 5.47709e+17 4.57293e+16)
(-7.16622e+17 5.2845e+17 5.57357e+16)
(-8.6269e+17 6.13155e+17 -6.57751e+15)
(-1.06513e+18 5.11591e+17 -8.79761e+15)
(-2.45151e+18 3.44474e+17 -1.26627e+17)
(1.06115e+18 1.88301e+18 -4.15019e+17)
(8.57656e+17 1.8291e+18 -2.19927e+17)
(5.95288e+17 2.0419e+18 -2.77281e+17)
(6.75738e+17 1.69378e+18 -6.05362e+16)
(4.9212e+17 1.79253e+18 -1.58831e+17)
(5.2299e+17 1.24814e+18 1.16215e+17)
(1.98131e+17 1.28338e+18 2.53164e+16)
(2.08666e+17 6.95044e+17 4.23442e+17)
(3.58481e+17 5.75397e+17 3.31075e+17)
(-1.32424e+17 1.17439e+17 2.13799e+17)
(1.25012e+18 1.42008e+18 -3.38469e+17)
(8.89163e+17 1.62435e+18 -3.32831e+17)
(5.16006e+17 1.51097e+18 -3.16527e+17)
(1.95513e+17 1.63228e+18 -3.22607e+17)
(7.38884e+16 1.23188e+18 -1.79014e+17)
(-1.75271e+17 1.24196e+18 -1.60679e+17)
(-8.75667e+15 7.30617e+17 7.03778e+16)
(-2.62389e+17 7.95018e+17 1.48472e+17)
(-5.58204e+17 3.06316e+17 3.70862e+17)
(-5.14944e+17 1.84343e+17 6.71817e+16)
(9.76046e+17 1.21851e+18 -2.47001e+17)
(1.03944e+18 1.04987e+18 -2.92313e+17)
(6.11141e+17 1.13495e+18 -2.05364e+17)
(1.17555e+17 1.19401e+18 -2.77671e+17)
(-2.88514e+17 1.19971e+18 -2.3441e+17)
(-4.79535e+17 1.02782e+18 -1.80112e+17)
(-6.95759e+17 1.01035e+18 -1.06514e+17)
(-6.39936e+17 5.90195e+17 1.01195e+17)
(-8.62869e+17 6.0695e+17 1.8162e+17)
(-1.11374e+18 1.4465e+17 6.87049e+16)
(4.60791e+17 6.18166e+17 7.14172e+16)
(7.22055e+17 4.16603e+17 6.92363e+16)
(8.04273e+17 4.59475e+17 6.37613e+16)
(3.25032e+17 5.13169e+17 9.87412e+15)
(-2.5849e+17 5.63213e+17 -6.06035e+16)
(-5.53991e+17 5.28181e+17 -8.23947e+16)
(-8.84004e+17 5.25985e+17 -9.10776e+16)
(-1.0692e+18 4.34059e+17 -4.71405e+16)
(-1.44929e+18 3.11355e+17 -2.52958e+16)
(-2.01815e+18 1.40847e+17 -1.05378e+17)
(1.1909e+18 9.87127e+17 5.50344e+17)
(7.40098e+17 1.19689e+18 2.6359e+17)
(6.12209e+17 7.28623e+17 4.22973e+17)
(3.43754e+17 8.97615e+17 2.13713e+17)
(2.80213e+17 4.6523e+17 2.67501e+17)
(2.13343e+17 6.40191e+17 9.64403e+16)
(6.90129e+17 2.85819e+17 9.23333e+16)
(8.62999e+17 5.87889e+17 1.49589e+17)
(-4.13043e+17 2.10046e+17 1.24577e+17)
(-1.19363e+18 5.3169e+16 1.28414e+17)
(6.97946e+17 1.42825e+18 -2.29737e+17)
(5.06223e+17 9.67018e+17 -1.32344e+17)
(1.28994e+17 1.2356e+18 -3.33092e+17)
(5.57906e+16 6.8453e+17 -2.79194e+17)
(-1.60957e+17 8.86957e+17 -3.36512e+17)
(-1.78067e+16 3.86478e+17 -3.73793e+17)
(2.33844e+17 5.99964e+17 -2.57513e+17)
(5.14941e+17 6.7747e+16 -2.86899e+17)
(-1.48345e+17 2.14994e+17 9.72791e+16)
(-1.527e+18 -4.16008e+16 -1.37472e+16)
(5.30187e+17 1.42758e+18 -5.23483e+17)
(3.54789e+17 1.30428e+18 -6.59214e+17)
(4.72325e+16 1.20233e+18 -7.36883e+17)
(-3.53522e+17 1.24808e+18 -7.27456e+17)
(-3.15891e+17 9.98913e+17 -7.69555e+17)
(-3.60643e+17 1.08649e+18 -6.37474e+17)
(5.26675e+16 7.20647e+17 -6.18924e+17)
(9.30588e+16 6.67667e+17 -3.50371e+17)
(-6.31738e+17 1.37083e+17 -2.73059e+17)
(-1.54042e+18 1.16093e+17 -3.56038e+16)
(-1.81082e+16 8.08293e+17 -4.96591e+17)
(5.57273e+16 8.03494e+17 -5.73517e+17)
(1.65934e+16 6.58762e+17 -6.73036e+17)
(-3.51053e+17 7.88174e+17 -7.56187e+17)
(-4.84126e+17 6.59997e+17 -7.41661e+17)
(-5.74338e+17 7.04057e+17 -7.45122e+17)
(-6.03809e+17 5.53149e+17 -6.29287e+17)
(-6.52188e+17 3.75818e+17 -5.30342e+17)
(-1.25149e+18 1.80526e+17 -3.35593e+17)
(-2.03335e+18 6.59411e+16 -1.36992e+17)
(6.21621e+17 -2.57561e+17 4.30618e+17)
(4.50068e+17 -3.95342e+17 2.7094e+17)
(4.35682e+17 -2.77088e+17 2.75018e+17)
(1.7823e+17 -5.70406e+17 8.0349e+16)
(1.16848e+17 -3.45315e+17 1.66942e+17)
(-3.75469e+16 -6.74196e+17 -8.60338e+16)
(3.68206e+17 -2.98156e+17 8.92291e+16)
(3.11846e+17 -3.09674e+17 -2.85763e+17)
(2.90724e+17 -4.23624e+15 3.50902e+16)
(-9.41996e+17 4.74972e+17 -8.07841e+16)
(6.40105e+17 -2.98043e+17 -2.26826e+17)
(5.58427e+17 1.47868e+17 -3.19428e+17)
(4.60848e+16 -3.44798e+17 -4.95553e+17)
(1.84568e+17 1.2641e+17 -4.07314e+17)
(-2.28829e+17 -4.27411e+17 -5.7076e+17)
(7.7527e+16 6.77009e+16 -3.53311e+17)
(2.69304e+17 -4.07394e+17 -4.707e+17)
(8.72945e+17 -4.91715e+15 -1.80017e+17)
(3.15883e+17 -3.29901e+17 -3.4271e+17)
(-7.82246e+17 -7.80862e+16 -6.53366e+16)
(4.75403e+17 7.91543e+17 -6.19172e+17)
(3.56559e+17 3.43997e+17 -6.71288e+17)
(3.92765e+17 5.91043e+17 -6.70024e+17)
(1.30045e+16 4.30819e+17 -6.50524e+17)
(-5.6932e+14 5.51476e+17 -5.67297e+17)
(2.48639e+15 4.33693e+17 -5.40569e+17)
(2.2297e+17 4.15515e+17 -4.62197e+17)
(4.66831e+17 2.00686e+17 -5.0142e+17)
(1.44385e+17 -8.56448e+16 -4.02415e+17)
(-1.26021e+17 -5.2541e+16 -1.90317e+17)
(5.03452e+16 6.61195e+17 -7.68516e+17)
(1.57429e+17 5.53719e+17 -7.42995e+17)
(2.19728e+17 5.6163e+17 -8.09712e+17)
(1.05434e+17 4.672e+17 -7.89951e+17)
(-2.23081e+17 6.07845e+17 -7.32998e+17)
(-1.94395e+17 3.55945e+17 -6.99459e+17)
(-1.96711e+17 5.09404e+17 -6.09275e+17)
(-1.29375e+17 1.46104e+17 -5.4655e+17)
(-1.90571e+17 2.11301e+17 -4.11704e+17)
(-5.05875e+17 -2.13738e+16 -1.70792e+17)
(3.75969e+17 -1.19098e+18 3.53885e+16)
(2.42177e+17 -9.82524e+17 3.64916e+17)
(2.31792e+15 -1.13673e+18 -2.95774e+16)
(-2.08828e+15 -9.29765e+17 2.29489e+17)
(-2.52212e+17 -1.14497e+18 -8.59269e+16)
(-3.5339e+16 -9.29652e+17 1.14158e+17)
(5.09954e+16 -6.85538e+17 -8.52369e+16)
(6.89755e+17 -1.2939e+16 1.50299e+16)
(2.4289e+17 7.56643e+17 3.28594e+16)
(-1.04741e+18 1.00213e+17 8.18285e+13)
(7.16622e+16 -2.51415e+17 1.51289e+17)
(-3.53704e+17 -5.40547e+17 -1.5755e+17)
(-1.52241e+17 -2.76472e+17 -1.33752e+17)
(-1.84871e+17 -4.84867e+17 -2.19527e+17)
(1.18544e+16 -2.87825e+17 -2.49202e+17)
(3.02386e+17 -3.40779e+17 -1.44314e+17)
(7.88382e+17 -2.82317e+17 -1.78933e+17)
(9.2451e+17 -2.77304e+17 1.78984e+16)
(2.18634e+17 -4.85015e+17 -1.6282e+17)
(-2.21249e+17 -2.16854e+17 -1.24919e+16)
(1.23828e+17 5.60879e+17 6.45311e+16)
(1.92063e+17 6.26571e+17 -6.53435e+16)
(1.13677e+17 6.9968e+17 1.3126e+16)
(-2.47934e+16 6.35859e+17 -1.52559e+17)
(3.59651e+16 7.39332e+17 1.31415e+15)
(-2.43227e+16 5.32656e+17 -1.41142e+17)
(1.77945e+17 4.98926e+17 -7.0637e+15)
(2.84358e+17 8.12159e+16 -1.55212e+17)
(3.6379e+17 2.66919e+16 -6.40865e+16)
(3.56329e+17 -5.26353e+16 -8.6648e+16)
(-2.72244e+17 5.69344e+17 7.12395e+15)
(-7.61024e+16 6.88762e+17 1.90585e+16)
(-1.33666e+17 4.35261e+17 -6.58545e+16)
(-1.05568e+17 5.65091e+17 -9.13772e+16)
(-1.94551e+17 3.94874e+17 -1.31793e+17)
(-1.78424e+17 4.49832e+17 -8.24616e+16)
(-1.14498e+17 3.17823e+17 -1.26801e+17)
(-1.99592e+16 3.03611e+17 -5.67701e+16)
(-4.90689e+16 1.65664e+17 -9.26092e+16)
(-1.69363e+17 9.71816e+16 -1.25508e+16)
)
;

boundaryField
{
    inlet
    {
        type            zeroGradient;
    }
    outlet
    {
        type            zeroGradient;
    }
    bottom
    {
        type            zeroGradient;
    }
    top
    {
        type            symmetryPlane;
    }
    side1
    {
        type            symmetryPlane;
    }
    side2
    {
        type            symmetryPlane;
    }
    procBoundary31to23
    {
        type            processor;
        value           nonuniform List<vector> 
50
(
(-7.24569e+16 1.73068e+18 -7.79261e+17)
(-1.51358e+17 2.00541e+18 -4.94556e+17)
(-6.1937e+16 2.17288e+18 -5.53404e+17)
(4.96754e+16 2.25325e+18 -2.29372e+17)
(1.32472e+17 2.26988e+18 -3.51971e+17)
(3.08388e+17 1.9874e+18 3.08463e+16)
(5.17849e+17 1.71968e+18 -1.84896e+17)
(8.5447e+17 1.11148e+18 2.11967e+17)
(8.94243e+17 5.41727e+17 -9.14257e+16)
(9.59224e+17 2.00852e+17 1.19081e+17)
(7.90133e+17 1.75833e+18 -7.09546e+16)
(5.71385e+17 2.12868e+18 -6.98875e+16)
(7.86651e+17 1.97174e+18 2.96105e+17)
(6.94261e+17 2.28946e+18 1.76825e+17)
(9.6517e+17 1.94118e+18 4.62636e+17)
(8.43029e+17 2.14747e+18 2.46018e+17)
(1.09744e+18 1.61584e+18 4.72832e+17)
(1.15357e+18 1.63037e+18 1.89956e+17)
(5.97007e+17 8.86996e+17 4.14088e+17)
(8.70727e+17 3.61792e+17 1.98347e+17)
(1.2574e+18 5.75607e+17 1.10812e+18)
(1.02323e+18 3.40423e+17 1.25794e+18)
(7.27544e+17 4.88228e+17 1.11628e+18)
(5.82577e+17 2.68699e+17 1.13592e+18)
(3.5389e+17 4.03662e+17 9.9964e+17)
(3.41014e+17 1.79109e+17 8.27667e+17)
(3.38448e+17 4.58076e+17 7.30946e+17)
(6.66487e+17 4.85295e+17 3.4105e+17)
(9.21095e+17 6.87676e+16 4.5955e+17)
(-1.00057e+18 -8.60939e+17 -2.37206e+17)
(8.87388e+17 -5.61343e+17 1.13449e+18)
(5.97482e+17 -8.88454e+17 1.04271e+18)
(3.96212e+17 -5.54105e+17 6.70293e+17)
(3.21022e+17 -9.24313e+17 7.34798e+17)
(-2.12495e+16 -5.95889e+17 4.35615e+17)
(-1.67912e+16 -7.21872e+17 6.27841e+17)
(-4.59739e+17 8.6593e+16 1.36399e+17)
(2.85106e+17 -7.79568e+17 1.955e+17)
(-1.25341e+18 8.21983e+17 -6.84332e+17)
(1.59225e+17 3.00878e+17 -9.47393e+16)
(-1.84158e+17 -2.34479e+18 7.34678e+17)
(-4.62208e+17 -1.41681e+18 2.09438e+17)
(-2.5776e+17 -8.55595e+17 4.03525e+17)
(-1.68394e+17 -7.18003e+17 5.0722e+15)
(1.16287e+16 -9.69159e+17 2.50583e+17)
(-6.16478e+17 -7.04908e+17 1.53466e+16)
(-1.04504e+18 -5.5508e+17 6.31805e+16)
(-1.95985e+18 1.69558e+18 -1.67561e+17)
(-7.67103e+15 3.2133e+17 -6.38369e+17)
(1.49246e+18 1.21193e+18 2.21732e+17)
)
;
    }
    procBoundary31to30
    {
        type            processor;
        value           nonuniform List<vector> 
20
(
(2.56122e+17 1.36335e+18 -7.76605e+17)
(3.51715e+17 1.15377e+18 -6.16765e+17)
(2.84555e+17 9.04038e+17 -4.55893e+17)
(6.30637e+16 3.91129e+17 -2.78954e+17)
(1.27932e+18 1.59911e+18 -4.59585e+17)
(9.64181e+17 1.66691e+18 -4.14678e+17)
(6.25882e+17 1.44454e+18 -3.69831e+17)
(2.71637e+17 6.74231e+17 5.9239e+16)
(1.25162e+18 1.47662e+18 4.00943e+17)
(1.03689e+18 1.29737e+18 5.82848e+16)
(5.75993e+17 1.66231e+18 -5.02763e+17)
(-8.31106e+16 1.07764e+18 -4.45252e+17)
(1.07003e+18 -2.71701e+17 5.25606e+17)
(5.5376e+17 2.20977e+17 -1.23715e+17)
(2.62205e+17 6.38877e+17 -5.44301e+17)
(-4.8254e+17 7.66247e+17 -6.63578e+17)
(8.44479e+17 -1.11043e+18 4.41682e+17)
(2.87436e+17 -4.14476e+17 2.00879e+16)
(9.5557e+16 7.98524e+17 4.45234e+16)
(-2.44234e+17 8.86798e+17 1.19867e+17)
)
;
    }
}


// ************************************************************************* //
