/*--------------------------------*- C++ -*----------------------------------*\
| =========                 |                                                 |
| \\      /  F ield         | OpenFOAM: The Open Source CFD Toolbox           |
|  \\    /   O peration     | Version:  2.4.0                                 |
|   \\  /    A nd           | Web:      www.OpenFOAM.org                      |
|    \\/     M anipulation  |                                                 |
\*---------------------------------------------------------------------------*/
FoamFile
{
    version     2.0;
    format      ascii;
    class       surfaceScalarField;
    location    "0.11";
    object      phib;
}
// * * * * * * * * * * * * * * * * * * * * * * * * * * * * * * * * * * * * * //

dimensions      [0 3 -1 0 0 0 0];

internalField   nonuniform List<scalar> 
490
(
-124.047
20.1953
-8.59363
-114.292
34.5617
-24.0257
-112.69
23.5445
-1.92487
-99.7796
33.8421
-27.1269
-111.38
33.6475
2.35728
-99.6208
43.9476
-24.6757
-114.329
42.9237
5.9908
-104.066
57.909
-20.929
-110.853
57.0219
6.44362
63.5525
-19.118
-112.681
26.2797
-14.1496
-87.1224
14.4278
-5.42493
-77.9195
36.1002
-21.7586
-68.8396
26.959
-2.1968
-55.0976
45.0387
-25.1332
-42.3063
31.6644
-0.508075
-24.2808
52.3302
-27.432
-11.0603
40.7278
3.96069
11.352
61.9044
-27.2948
51.3312
7.59113
-78.3004
5.28037
1.28618
-73.1003
21.1021
-11.8744
-40.9675
8.88474
-4.91733
-28.403
35.5605
-21.166
10.0904
11.7251
-5.17981
32.7608
36.6191
-27.6251
66.7677
19.4056
-1.08225
97.5239
37.0824
-27.1109
125.654
30.725
3.0494
37.535
-19.6501
-40.2809
-7.12805
-17.8992
-1.27972
3.35064
-12.3651
46.4948
-7.58366
77.1778
-18.9579
120.044
-6.24726
158.685
-19.2357
199.616
-3.84821
241.877
-11.5359
-4.0202
-316.802
78.4002
-25.3053
-321.25
64.0921
-9.61138
-311.301
74.5034
-19.4858
-332.1
66.2058
-3.65656
-317.275
70.0766
-16.4488
-345.536
66.3756
2.45852
-328.424
65.9043
-13.9649
-353.898
60.9342
7.93438
-329.015
61.6165
-15.4317
55.5339
12.0013
-254.674
30.5446
-6.89448
-248.999
66.0761
-13.0837
-245.335
50.525
-1.44411
-238.715
68.0195
-10.6307
-252.311
56.792
1.74711
-241.416
63.7763
-8.80296
-267.892
58.8916
6.05666
-256.414
60.4757
-7.05972
-286.59
54.3185
10.1798
50.1613
-8.3305
-209.399
28.5966
1.40684
-163.627
6.89444
1.53575
-165.893
51.1448
-3.27087
-146.938
22.5527
5.3459
-145.057
51.9593
-2.22869
-144.587
28.7806
6.90053
-134.942
49.7831
-1.61831
-148.224
38.1603
8.4862
-140.661
50.1821
-0.377403
31.7299
13.2871
-121.762
2.52143
-119.394
3.24715
-87.3984
6.78411
-76.4631
4.03378
-52.6241
9.16234
-34.6255
4.53478
-12.3493
8.2711
20.112
1.85087
51.283
7.47513
5.31203
-550.7
86.5727
-4.04897
-535.55
91.3906
-27.5911
-549.332
78.8481
0.0447756
-531.798
77.6446
-22.1004
-540.631
69.46
-0.571102
-516.963
69.3887
-21.4196
-522.962
62.6237
-1.94696
-494.585
62.2351
-21.8446
-499.755
55.7852
-2.35651
56.1002
-22.1227
-482.129
85.1657
-18.1474
-478.485
64.939
9.7234
-465.387
76.2629
-11.9571
-468.744
61.3127
9.05888
-452.858
64.2884
-8.96814
-453.451
55.8877
5.29086
-431.557
57.322
-10.5356
-429.334
51.3401
1.61303
-400.175
49.6193
-12.8135
41.8513
-0.642821
-379.244
21.1813
24.0133
-373.853
60.6755
0.408513
-353.763
31.0893
21.813
-344.103
52.662
4.3366
-332.747
32.8017
17.9023
-318.386
43.2497
5.17687
-307.677
33.162
11.8324
-290.161
39.8047
2.50541
-279.262
31.9521
6.39078
29.115
1.91161
-250.746
15.3972
-218.744
31.9204
-204.35
23.4789
-178.06
30.4066
-162.337
26.2404
-140.469
25.9168
-123.975
24.9394
-101.388
19.0688
-83.8446
21.8835
14.7892
-673.713
84.6392
-32.8906
-674.909
65.2572
-8.56891
-643.309
69.4609
-29.8825
-638.947
56.1524
-9.09361
-609.003
58.3662
-27.7349
-604.693
47.3246
-10.7145
-577.075
47.2894
-26.7253
-570.697
37.4065
-12.578
-547.631
38.363
-27.2964
26.4216
-16.293
-607.474
43.6103
1.93367
-577.996
62.4729
-16.9701
-566.117
42.8368
2.78805
-541.936
49.1769
-8.1472
-528.215
37.1074
-1.42954
-511.473
38.6761
-2.80248
-495.351
29.5482
-8.91662
-484.983
28.4698
0.181152
-464.271
19.6674
-14.8294
18.3088
0.645466
-500.201
39.8899
5.60258
-464.906
14.5854
13.0011
-450.718
39.2035
11.2581
-421.799
15.3644
9.2304
-410.641
29.317
14.5347
-385.302
15.9858
2.52762
-378.664
19.3572
15.386
-354.568
13.1133
-6.23481
-352.255
8.87093
14.8741
3.82543
-12.3783
-284.916
22.9236
-265.907
27.4966
-229.782
26.5575
-213.351
29.3405
-181.63
23.8356
-168.394
28.6667
-141.848
17.7512
-134.416
24.7498
-115.191
11.5297
20.2127
-594.195
48.9409
-581.181
48.695
-574.02
32.5521
-560.329
33.7012
-549.575
15.9743
-537.135
18.6913
-520.758
-0.487785
-512.16
7.91126
-484.189
-8.73365
8.04629
-409.235
23.6791
-376.382
-1.12831
-348.899
7.85699
-310.475
-12.87
-290.106
-5.82373
-255.26
-18.9576
-252.416
-12.2477
-227.164
-17.1604
-238.082
-12.6446
-19.7393
-207.521
-15.4918
-193.982
-1.66609
-155.439
-19.428
-152.877
-6.2019
-126.054
-18.1119
-131.033
-11.4504
-113.396
-14.4991
-121.111
-15.6797
-106.103
-12.7788
-19.3091
-146.69
-120.86
-113.73
-90.5914
-84.8677
-67.6515
-64.3994
-55.3292
-56.5783
)
;

boundaryField
{
    inlet
    {
        type            fixedValue;
        value           nonuniform 0();
    }
    outlet
    {
        type            calculated;
        value           nonuniform List<scalar> 
20
(
-103.637
15.9823
159.1
283.432
-352.495
-265.296
-155.166
73.6807
-459.869
-393.614
-255.15
-64.2068
-522.194
-457.447
-323.481
-116.789
-468.425
-209.651
-118.912
-55.6748
)
;
    }
    bottom
    {
        type            fixedValue;
        value           uniform 0;
    }
    top
    {
        type            symmetryPlane;
        value           nonuniform List<scalar> 
40
(
-1.70543e-17
-2.39137e-17
-4.27856e-17
-6.00139e-17
-1.76636e-17
-2.51009e-17
-4.98743e-17
-6.95623e-17
-1.76077e-17
-2.70124e-17
-5.36602e-17
-7.58421e-17
-1.82498e-17
-2.86225e-17
-6.2946e-17
-8.75578e-17
-1.83851e-17
-3.21291e-17
-6.85777e-17
-9.32419e-17
-1.91377e-17
-3.38819e-17
-7.53534e-17
-1.1244e-16
-1.94693e-17
-3.81288e-17
-7.66975e-17
-1.23926e-16
-2.01539e-17
-3.97776e-17
-8.19857e-17
-1.4202e-16
-1.95061e-17
-4.00834e-17
-7.51327e-17
-1.46539e-16
-1.27405e-16
-1.4902e-16
-2.02451e-16
-2.19304e-16
)
;
    }
    side1
    {
        type            symmetryPlane;
        value           nonuniform 0();
    }
    side2
    {
        type            symmetryPlane;
        value           uniform 0;
    }
    procBoundary31to23
    {
        type            processor;
        value           nonuniform List<scalar> 
50
(
-34.437
-20.2915
-23.2213
-19.6259
-24.4042
-31.0314
-34.2065
-47.2427
-56.6781
-51.6515
-72.0238
-74.0581
-66.8923
-68.8767
-66.0957
-65.2486
-63.0604
-64.3238
-64.6236
-63.1736
-97.9019
-88.5608
-84.5968
-76.735
-76.5047
-69.1786
-68.6426
-60.8332
-63.6902
-61.862
-82.3474
-83.0831
-71.1343
-73.5211
-61.1466
-62.3393
-50.1287
-53.0519
-36.489
-57.6885
-83.2922
-70.2772
-69.5962
-56.4857
-54.4629
-41.8457
-42.6145
-29.0878
-46.5336
-40.1035
)
;
    }
    procBoundary31to30
    {
        type            processor;
        value           nonuniform List<scalar> 
20
(
146.883
120.746
98.0136
52.6894
327.137
295.274
211.226
140.709
540.773
494.789
420.622
259.052
700.263
628.422
522.332
317.279
595.655
436.43
252.294
154.122
)
;
    }
}


// ************************************************************************* //
