/*--------------------------------*- C++ -*----------------------------------*\
| =========                 |                                                 |
| \\      /  F ield         | OpenFOAM: The Open Source CFD Toolbox           |
|  \\    /   O peration     | Version:  2.4.0                                 |
|   \\  /    A nd           | Web:      www.OpenFOAM.org                      |
|    \\/     M anipulation  |                                                 |
\*---------------------------------------------------------------------------*/
FoamFile
{
    version     2.0;
    format      ascii;
    class       volScalarField;
    location    "0.01";
    object      p;
}
// * * * * * * * * * * * * * * * * * * * * * * * * * * * * * * * * * * * * * //

dimensions      [1 -1 -2 0 0 0 0];

internalField   nonuniform List<scalar> 
40
(
-2.10384e+22
-1.58516e+22
-9.98998e+21
-6.09282e+21
-3.401e+21
-7.74424e+21
-6.09993e+21
-4.74888e+21
-3.54192e+21
-2.46913e+21
-2.9987e+21
-2.64165e+21
-2.27055e+21
-1.7477e+21
-1.39201e+21
-1.31639e+21
-1.20809e+21
-1.06441e+21
-8.82353e+20
-7.12525e+20
-7.25955e+21
-6.4296e+21
-4.98211e+21
-4.07612e+21
-3.31393e+21
-5.03708e+21
-4.68654e+21
-3.93141e+21
-3.32827e+21
-2.80228e+21
-3.54814e+21
-3.41278e+21
-2.95791e+21
-2.39806e+21
-2.03177e+21
-2.20606e+21
-1.99407e+21
-1.80947e+21
-1.53245e+21
-1.2963e+21
)
;

boundaryField
{
    inlet
    {
        type            zeroGradient;
    }
    outlet
    {
        type            fixedValue;
        value           nonuniform 0();
    }
    bottom
    {
        type            zeroGradient;
    }
    top
    {
        type            symmetryPlane;
    }
    side1
    {
        type            symmetryPlane;
    }
    side2
    {
        type            symmetryPlane;
    }
    procBoundary64to0
    {
        type            processor;
        value           nonuniform List<scalar> 
20
(
-8.20293e+22
-8.44061e+22
-3.34744e+22
-1.04896e+22
-4.9455e+20
-2.7466e+22
-1.25031e+22
-3.92193e+21
4.9229e+19
1.08653e+21
2.06975e+20
9.73257e+20
1.66757e+21
1.70611e+21
1.3724e+21
1.26115e+21
1.16014e+21
1.06653e+21
8.34057e+20
8.00812e+20
)
;
    }
    procBoundary64to65
    {
        type            processor;
        value           nonuniform List<scalar> 8(-2.18725e+21 -1.77025e+21 -1.07573e+21 -5.21746e+20 -2.55933e+21 -2.25765e+21 -1.68885e+21 -1.03692e+21);
    }
    procBoundary64to80
    {
        type            processor;
        value           nonuniform List<scalar> 10(-4.73292e+20 -4.79904e+20 -4.51997e+20 -4.03977e+20 -3.60585e+20 -1.07498e+21 -1.01206e+21 -9.7202e+20 -8.28792e+20 -6.85316e+20);
    }
}


// ************************************************************************* //
