/*--------------------------------*- C++ -*----------------------------------*\
| =========                 |                                                 |
| \\      /  F ield         | OpenFOAM: The Open Source CFD Toolbox           |
|  \\    /   O peration     | Version:  2.4.0                                 |
|   \\  /    A nd           | Web:      www.OpenFOAM.org                      |
|    \\/     M anipulation  |                                                 |
\*---------------------------------------------------------------------------*/
FoamFile
{
    version     2.0;
    format      ascii;
    class       volVectorField;
    location    "0.01";
    object      U;
}
// * * * * * * * * * * * * * * * * * * * * * * * * * * * * * * * * * * * * * //

dimensions      [0 1 -1 0 0 0 0];

internalField   nonuniform List<vector> 
40
(
(-5.42442e+12 -7.87626e+12 -3.46432e+13)
(-9.58467e+12 -5.40955e+12 -1.90404e+13)
(-7.94495e+12 -4.78683e+12 -8.9953e+12)
(-5.28782e+12 -2.17044e+12 -3.94693e+12)
(-3.78847e+12 -9.25742e+11 -1.30359e+12)
(-2.65979e+12 -1.09759e+13 -1.44056e+13)
(-4.76121e+12 -8.19301e+12 -7.30222e+12)
(-6.05024e+12 -8.43215e+12 -4.81924e+12)
(-5.53805e+12 -4.03993e+12 -1.74801e+12)
(-4.50661e+12 -2.17857e+12 -1.58889e+11)
(-9.67111e+11 -5.68543e+12 -1.2985e+12)
(-2.07569e+12 -5.93075e+12 -1.09949e+12)
(-2.76215e+12 -6.04444e+12 -3.26582e+11)
(-2.75975e+12 -4.09818e+12 8.27834e+11)
(-2.54725e+12 -2.95997e+12 1.06141e+12)
(-3.48432e+11 -3.15679e+12 2.97962e+11)
(-8.02018e+11 -4.04968e+12 9.1379e+11)
(-1.35805e+12 -4.30465e+12 1.11142e+12)
(-1.58673e+12 -3.00425e+12 9.0527e+11)
(-1.6044e+12 -2.66999e+12 8.95552e+11)
(-1.90541e+12 -5.21739e+12 -1.24934e+13)
(-3.6902e+12 -2.44935e+12 -5.06261e+12)
(-4.33909e+12 -1.5564e+12 -3.14474e+12)
(-4.38196e+12 -1.73859e+12 -2.59255e+12)
(-3.90928e+12 -1.20023e+12 -6.91874e+11)
(-1.58225e+12 -1.03293e+13 -9.38662e+12)
(-4.65838e+12 -4.74223e+12 -3.57102e+12)
(-6.20448e+12 -3.11565e+12 -2.57212e+12)
(-7.15167e+12 -3.72825e+12 -2.5629e+12)
(-6.93107e+12 -3.28076e+12 -8.94985e+11)
(-9.53743e+11 -9.91727e+12 -2.14285e+12)
(-1.93539e+12 -4.09075e+12 -2.46214e+11)
(-2.46206e+12 -2.64929e+12 -2.0153e+11)
(-3.11658e+12 -3.2674e+12 -1.37733e+11)
(-4.48031e+12 -4.17999e+12 2.74817e+11)
(-7.66403e+11 -6.89539e+12 3.32905e+11)
(-1.33953e+12 -4.12929e+12 2.22547e+11)
(-1.04074e+12 -2.07054e+12 3.0101e+11)
(-1.18718e+12 -1.66066e+12 2.74274e+11)
(-1.57401e+12 -2.52214e+12 3.73816e+11)
)
;

boundaryField
{
    inlet
    {
        type            calculated;
        value           nonuniform List<vector> 8((6 0 0) (6 0 0) (6 0 0) (6 0 0) (6 0 0) (6 0 0) (6 0 0) (6 0 0));
    }
    outlet
    {
        type            calculated;
        value           nonuniform 0();
    }
    bottom
    {
        type            calculated;
        value           nonuniform 0();
    }
    top
    {
        type            symmetryPlane;
    }
    side1
    {
        type            symmetryPlane;
    }
    side2
    {
        type            symmetryPlane;
    }
    procBoundary64to0
    {
        type            processor;
        value           nonuniform List<vector> 
20
(
(-1.01252e+13 -1.19117e+13 -1.24377e+14)
(-1.85326e+13 -9.68127e+12 -2.243e+13)
(-1.54644e+13 -5.64829e+12 1.65776e+12)
(-7.95056e+12 -2.33341e+12 -8.4456e+11)
(-4.47941e+12 -8.80433e+11 2.77667e+11)
(-5.94472e+12 -1.94876e+13 -6.37556e+12)
(-8.41751e+12 -1.11125e+13 1.51704e+12)
(-6.35764e+12 -7.61831e+12 3.50051e+12)
(-3.59272e+12 -3.58343e+12 1.17546e+12)
(-2.02877e+12 -1.77289e+12 1.605e+12)
(-9.81148e+11 -8.56011e+12 5.13229e+12)
(-1.9428e+12 -4.38851e+12 2.53049e+12)
(-1.47539e+12 -3.14931e+12 3.4872e+12)
(-1.91308e+12 -4.84531e+12 4.61306e+12)
(-8.81965e+11 -1.50566e+12 2.28417e+12)
(-3.45517e+11 -2.64055e+12 9.22004e+11)
(-5.28147e+11 -1.3475e+12 1.6158e+12)
(-9.42581e+11 -1.4325e+12 2.01985e+12)
(-4.62913e+11 -1.10673e+12 2.27251e+12)
(-4.32414e+11 -7.6526e+11 1.72834e+12)
)
;
    }
    procBoundary64to65
    {
        type            processor;
        value           nonuniform List<vector> 8((-3.08219e+12 -5.00044e+11 1.95821e+11) (-3.30194e+12 -1.20998e+12 9.26541e+11) (-2.0391e+12 -1.77626e+12 8.11127e+11) (-1.71822e+12 -1.8169e+12 9.88623e+11) (-3.28425e+12 -7.24078e+11 -8.28254e+10) (-6.13524e+12 -2.15296e+12 6.37478e+10) (-3.91812e+12 -2.9828e+12 2.60488e+11) (-2.08682e+12 -2.39092e+12 4.32016e+11));
    }
    procBoundary64to80
    {
        type            processor;
        value           nonuniform List<vector> 10((-1.61202e+10 -2.40616e+12 9.73759e+11) (-2.47151e+11 -2.91925e+12 1.09666e+12) (-5.51697e+11 -2.51439e+12 1.13863e+12) (-7.88186e+11 -2.24058e+12 8.75301e+11) (-9.53937e+11 -1.91324e+12 6.35051e+11) (-4.29773e+11 -4.27456e+12 4.92415e+11) (-7.43348e+11 -4.16556e+12 4.85596e+11) (-4.96787e+11 -1.83615e+12 2.84675e+11) (-5.5022e+11 -1.01609e+12 2.29209e+11) (-5.9866e+11 -1.36874e+12 1.83645e+11));
    }
}


// ************************************************************************* //
