/*--------------------------------*- C++ -*----------------------------------*\
| =========                 |                                                 |
| \\      /  F ield         | OpenFOAM: The Open Source CFD Toolbox           |
|  \\    /   O peration     | Version:  2.4.0                                 |
|   \\  /    A nd           | Web:      www.OpenFOAM.org                      |
|    \\/     M anipulation  |                                                 |
\*---------------------------------------------------------------------------*/
FoamFile
{
    version     2.0;
    format      ascii;
    class       volScalarField;
    location    "0.17";
    object      nut;
}
// * * * * * * * * * * * * * * * * * * * * * * * * * * * * * * * * * * * * * //

dimensions      [0 2 -1 0 0 0 0];

internalField   nonuniform List<scalar> 
200
(
1.79013e+12
9.19881e+11
1.68455e+12
4.08567e+11
1.38671e+12
1.48536e+12
9.41815e+11
6.95312e+11
5.86729e+11
6.46981e+11
4.23194e+11
7.13576e+11
5.16761e+11
1.07589e+12
1.52272e+12
8.89599e+11
5.93772e+11
5.44667e+11
5.21869e+11
6.60295e+11
4.76668e+11
6.06957e+11
9.52657e+11
1.60716e+12
8.96008e+11
5.02986e+11
5.09433e+11
5.07786e+11
6.46422e+11
9.54545e+11
6.47678e+11
7.59753e+11
1.53353e+12
8.15933e+11
5.25931e+11
5.74248e+11
6.8867e+11
6.29108e+11
7.80378e+11
8.00085e+11
5.27539e+11
1.18636e+12
2.83658e+11
1.52899e+12
7.91299e+11
1.08902e+12
5.64083e+11
5.95804e+11
2.57843e+11
4.34208e+11
5.85275e+11
3.18437e+11
1.07499e+12
5.77028e+11
6.67122e+11
3.33756e+11
2.39089e+11
2.45032e+11
2.56451e+11
3.10037e+11
2.20761e+11
5.16768e+11
6.14339e+11
3.6864e+11
2.5846e+11
2.45233e+11
2.07106e+11
2.04441e+11
3.14535e+11
3.8741e+11
2.86822e+11
2.3937e+11
1.00327e+12
7.87195e+11
7.19908e+11
9.54023e+11
3.80201e+11
4.01437e+11
3.30417e+11
4.93206e+11
1.52634e+12
8.63607e+11
1.79655e+12
1.56268e+11
1.30842e+12
9.04134e+11
1.1585e+12
6.85576e+11
8.17365e+11
5.96746e+11
5.06078e+11
1.24594e+12
2.47836e+11
1.40064e+12
3.01438e+11
1.23159e+12
4.2815e+11
8.50097e+11
3.59894e+11
6.16751e+11
2.68767e+11
2.80894e+11
5.22202e+11
3.39071e+11
6.07579e+11
4.11062e+11
4.69385e+11
3.45035e+11
3.34701e+11
4.27936e+11
2.78626e+11
3.60043e+11
3.14617e+11
1.41262e+11
3.39933e+11
2.54668e+11
2.92282e+11
1.46321e+11
2.86448e+11
2.87295e+11
1.37386e+12
5.32032e+12
1.51903e+12
2.75039e+12
1.06705e+12
1.47564e+12
1.2076e+12
5.37904e+11
1.03352e+12
9.4345e+11
8.03356e+11
7.75178e+11
2.56222e+12
3.27851e+11
2.17674e+12
7.92032e+11
1.63154e+12
9.05136e+11
8.99003e+11
7.66424e+11
3.68718e+11
4.47596e+11
1.48118e+11
1.09838e+12
6.12296e+10
1.04106e+12
2.6031e+11
1.05715e+12
5.17823e+11
7.31327e+11
2.91406e+11
1.4528e+11
1.90008e+11
1.59684e+11
2.72814e+11
2.78604e+11
1.84225e+11
3.4679e+11
7.67855e+11
5.93658e+11
7.23872e+12
6.12977e+12
3.31952e+12
3.93717e+12
1.34984e+12
2.10564e+12
1.02302e+12
1.88104e+12
9.65934e+11
1.23632e+12
8.03187e+11
4.96506e+12
2.00642e+12
3.05023e+12
1.34411e+12
1.61354e+12
9.35818e+11
5.95695e+11
9.10713e+11
9.59575e+11
2.39176e+11
3.00808e+11
1.91095e+12
4.3465e+11
2.13582e+12
3.56164e+11
1.50087e+12
5.72478e+11
7.8824e+11
4.04656e+11
2.87729e+11
3.02027e+11
2.23971e+11
5.41396e+11
3.74833e+11
8.02944e+11
1.66182e+11
6.52501e+11
1.03309e+11
3.39815e+11
)
;

boundaryField
{
    inlet
    {
        type            calculated;
        value           nonuniform 0();
    }
    outlet
    {
        type            calculated;
        value           nonuniform 0();
    }
    bottom
    {
        type            calculated;
        value           nonuniform List<scalar> 
40
(
1.28508e-12
3.20207e-13
7.30147e-13
3.97981e-13
1.90011e-12
8.32119e-13
2.51977e-13
1.79664e-12
1.30541e-12
2.26862e-13
2.42251e-12
1.26147e-12
8.78718e-13
2.27956e-12
1.32694e-12
7.67214e-13
1.92365e-12
1.3682e-12
7.52625e-13
6.72681e-13
1.56764e-12
7.90117e-13
7.01082e-13
7.27867e-13
1.0124e-12
7.73339e-13
7.2306e-13
8.19108e-13
8.10334e-13
7.08625e-13
7.37764e-13
8.07602e-13
5.98824e-13
6.69371e-13
8.81393e-13
9.67264e-13
5.85276e-13
7.71486e-13
1.00229e-12
8.94693e-13
)
;
    }
    top
    {
        type            symmetryPlane;
    }
    side1
    {
        type            symmetryPlane;
    }
    side2
    {
        type            symmetryPlane;
    }
    procBoundary11to3
    {
        type            processor;
        value           nonuniform List<scalar> 
50
(
2.03296e+12
1.73705e+12
1.68587e+12
2.28404e+12
6.65721e+11
1.11216e+12
1.67183e+12
1.81659e+12
8.56203e+11
8.39726e+11
7.27074e+11
5.13327e+11
6.09476e+11
3.67526e+11
1.13839e+12
7.60148e+11
1.07512e+11
6.26717e+11
9.21531e+11
7.47687e+11
1.14881e+12
2.6776e+12
5.14285e+11
9.61699e+11
1.05786e+12
1.04416e+12
8.71597e+11
4.10335e+11
9.37389e+11
4.09145e+11
7.84524e+12
3.30428e+12
2.35587e+12
1.78247e+12
1.1403e+12
1.59958e+12
3.49431e+11
1.56136e+12
7.22048e+11
1.03867e+12
1.02848e+13
3.86957e+12
4.61143e+12
1.72252e+12
2.37424e+12
1.51665e+12
2.328e+12
9.76077e+11
1.50534e+12
8.2373e+11
)
;
    }
    procBoundary11to10
    {
        type            processor;
        value           nonuniform List<scalar> 
20
(
7.61179e+11
4.39465e+11
1.85035e+11
4.01958e+11
1.46415e+12
2.09063e+11
1.60229e+11
1.6068e+11
9.17372e+11
3.48133e+11
3.12038e+11
2.18418e+11
1.5657e+12
5.11474e+11
2.21524e+11
3.44404e+11
1.34282e+12
6.76452e+11
2.88824e+11
3.09914e+11
)
;
    }
    procBoundary11to12
    {
        type            processor;
        value           nonuniform List<scalar> 
20
(
9.66691e+11
1.0319e+12
1.04367e+12
1.04562e+12
1.24772e+12
5.33202e+11
3.82582e+11
6.68587e+11
5.43578e+11
6.28255e+11
4.33836e+11
4.16016e+11
1.03698e+12
8.225e+11
7.39386e+11
3.77795e+11
8.22032e+11
8.52828e+11
7.98879e+11
2.47634e+11
)
;
    }
    procBoundary11to19
    {
        type            processor;
        value           nonuniform List<scalar> 
50
(
5.83324e+11
1.59849e+12
8.37428e+11
8.17908e+11
1.01234e+12
6.94777e+11
7.7283e+11
9.61986e+11
8.58344e+11
1.18858e+12
5.59003e+11
5.03739e+12
9.40956e+11
2.24855e+12
3.32165e+12
2.00805e+12
8.10742e+11
9.71112e+11
7.64286e+11
3.68011e+11
8.89829e+11
2.9499e+11
8.12311e+11
5.4021e+11
3.28719e+11
7.46003e+11
4.77151e+11
3.34865e+11
1.28647e+12
3.60047e+11
3.31694e+11
3.33564e+11
2.71559e+11
2.22626e+11
2.78045e+11
2.9844e+11
3.44917e+11
1.96357e+12
4.00428e+11
1.29782e+12
2.94353e+11
3.83034e+11
5.10685e+11
1.56645e+12
7.79448e+11
7.26831e+11
6.93767e+11
3.75442e+11
5.3101e+11
3.10297e+11
)
;
    }
}


// ************************************************************************* //
