/*--------------------------------*- C++ -*----------------------------------*\
| =========                 |                                                 |
| \\      /  F ield         | OpenFOAM: The Open Source CFD Toolbox           |
|  \\    /   O peration     | Version:  2.4.0                                 |
|   \\  /    A nd           | Web:      www.OpenFOAM.org                      |
|    \\/     M anipulation  |                                                 |
\*---------------------------------------------------------------------------*/
FoamFile
{
    version     2.0;
    format      ascii;
    class       volScalarField;
    location    "0.01";
    object      p;
}
// * * * * * * * * * * * * * * * * * * * * * * * * * * * * * * * * * * * * * //

dimensions      [1 -1 -2 0 0 0 0];

internalField   nonuniform List<scalar> 
40
(
2.26313e+17
1.48561e+18
2.14396e+18
2.36848e+18
2.19106e+18
-2.88602e+17
1.1015e+18
1.69215e+18
1.78599e+18
1.64777e+18
-1.53699e+18
-5.53444e+17
-2.2809e+17
1.73446e+17
5.28611e+17
-2.85476e+18
-2.09796e+18
-1.50213e+18
-9.94392e+17
-4.1996e+17
-1.56332e+19
-1.09572e+19
-5.11984e+18
-1.97132e+18
-1.23811e+18
-1.56084e+19
-9.94139e+18
-5.66565e+18
-2.91076e+18
-1.04571e+18
-1.0996e+19
-7.23251e+18
-4.77009e+18
-2.92654e+18
-1.1504e+18
-1.00201e+19
-6.59533e+18
-5.02823e+18
-3.97983e+18
-2.40072e+18
)
;

boundaryField
{
    inlet
    {
        type            zeroGradient;
    }
    outlet
    {
        type            fixedValue;
        value           nonuniform 0();
    }
    bottom
    {
        type            zeroGradient;
    }
    top
    {
        type            symmetryPlane;
    }
    side1
    {
        type            symmetryPlane;
    }
    side2
    {
        type            symmetryPlane;
    }
    procBoundary68to4
    {
        type            processor;
        value           nonuniform List<scalar> 
20
(
1.73548e+19
1.38817e+19
9.90936e+18
7.80189e+18
6.35841e+18
1.47397e+19
1.08422e+19
8.70927e+18
7.29002e+18
5.77754e+18
1.09997e+19
8.55171e+18
7.03735e+18
5.99314e+18
4.81413e+18
6.95259e+18
5.63314e+18
4.72613e+18
3.8642e+18
2.95948e+18
)
;
    }
    procBoundary68to67
    {
        type            processor;
        value           nonuniform List<scalar> 8(-2.00336e+18 -2.52793e+18 -2.30915e+18 -3.48958e+18 -1.96443e+19 -1.77206e+19 -1.49831e+19 -1.66184e+19);
    }
    procBoundary68to69
    {
        type            processor;
        value           nonuniform List<scalar> 8(1.93077e+18 1.66621e+18 9.68235e+17 4.83e+16 -8.62586e+17 -2.39567e+17 -2.42657e+17 -8.32685e+17);
    }
    procBoundary68to84
    {
        type            processor;
        value           nonuniform List<scalar> 10(-3.47859e+18 -2.32195e+18 -1.7185e+18 -7.11593e+17 -1.99492e+17 -1.02332e+19 -7.73228e+18 -5.53527e+18 -3.65856e+18 -2.21868e+18);
    }
}


// ************************************************************************* //
