/*--------------------------------*- C++ -*----------------------------------*\
| =========                 |                                                 |
| \\      /  F ield         | OpenFOAM: The Open Source CFD Toolbox           |
|  \\    /   O peration     | Version:  2.4.0                                 |
|   \\  /    A nd           | Web:      www.OpenFOAM.org                      |
|    \\/     M anipulation  |                                                 |
\*---------------------------------------------------------------------------*/
FoamFile
{
    version     2.0;
    format      ascii;
    class       volVectorField;
    location    "0.01";
    object      U;
}
// * * * * * * * * * * * * * * * * * * * * * * * * * * * * * * * * * * * * * //

dimensions      [0 1 -1 0 0 0 0];

internalField   nonuniform List<vector> 
40
(
(-1.06792e+11 -2.28014e+09 2.0195e+11)
(-8.21241e+10 -3.0316e+09 1.34175e+11)
(-7.29307e+10 -4.81883e+09 8.38334e+10)
(-3.90264e+10 1.02434e+10 1.24178e+11)
(-3.49706e+10 1.48024e+10 1.43309e+11)
(-7.75231e+10 -5.86198e+09 1.43411e+11)
(-7.98741e+10 1.48968e+10 1.22853e+11)
(-7.31239e+10 2.01104e+10 1.18119e+11)
(-8.6942e+10 4.35003e+10 1.73853e+11)
(-3.57064e+10 1.91078e+10 8.27667e+10)
(-1.56498e+11 -1.19938e+10 1.73435e+11)
(-1.84743e+11 1.55008e+10 1.56964e+11)
(-1.41044e+11 5.49769e+10 1.61856e+11)
(-9.79533e+10 5.68792e+10 1.10246e+11)
(-5.745e+10 2.75806e+10 5.3788e+10)
(-2.7574e+11 -4.71991e+10 2.2481e+11)
(-2.25307e+11 1.14358e+10 1.65859e+11)
(-1.95661e+11 3.00181e+10 1.70061e+11)
(-1.3011e+11 5.84937e+09 1.16428e+11)
(-1.07897e+11 -3.65779e+09 6.82576e+10)
(-2.28605e+11 -2.46973e+10 8.3679e+10)
(-1.81735e+11 -8.14292e+09 4.891e+10)
(-1.5357e+11 -1.76352e+09 3.48249e+10)
(-1.32402e+11 8.46607e+09 3.21088e+10)
(-1.28567e+11 1.26388e+10 3.20777e+10)
(-2.04645e+11 -5.98159e+10 7.55135e+10)
(-1.66465e+11 -3.10185e+10 5.52301e+10)
(-1.40979e+11 -1.71367e+10 5.27129e+10)
(-9.0116e+10 2.95007e+09 5.84945e+10)
(-6.44034e+10 -4.62223e+07 3.10485e+10)
(-1.3347e+11 -5.01211e+10 7.96303e+10)
(-1.13361e+11 -4.10165e+10 6.26068e+10)
(-8.4553e+10 -1.69774e+10 5.33788e+10)
(-6.3865e+10 1.86233e+09 3.15306e+10)
(-5.5909e+10 5.82701e+09 1.19712e+10)
(-2.21973e+11 -1.83787e+10 9.14609e+10)
(-1.83242e+11 -1.2611e+10 6.41713e+10)
(-1.62928e+11 8.59656e+08 6.17434e+10)
(-1.18435e+11 -2.32006e+09 4.86768e+10)
(-7.93633e+10 1.69737e+09 2.06355e+10)
)
;

boundaryField
{
    inlet
    {
        type            calculated;
        value           nonuniform 0();
    }
    outlet
    {
        type            calculated;
        value           nonuniform 0();
    }
    bottom
    {
        type            calculated;
        value           nonuniform 0();
    }
    top
    {
        type            symmetryPlane;
    }
    side1
    {
        type            symmetryPlane;
    }
    side2
    {
        type            symmetryPlane;
    }
    procBoundary68to4
    {
        type            processor;
        value           nonuniform List<vector> 
20
(
(7.07269e+10 2.06061e+10 2.85832e+11)
(5.56696e+10 2.1201e+10 1.70469e+11)
(9.52706e+10 1.68884e+10 1.94262e+11)
(9.70966e+10 2.05043e+10 2.27263e+11)
(1.0042e+11 2.3016e+10 1.86221e+11)
(8.1647e+10 4.35672e+10 1.41074e+11)
(6.50682e+10 5.0533e+10 1.35909e+11)
(8.49256e+10 5.16845e+10 1.87829e+11)
(8.24758e+10 6.75553e+10 2.96878e+11)
(8.88216e+10 3.93821e+10 1.41149e+11)
(3.81625e+10 3.76648e+10 2.09652e+11)
(4.02564e+10 4.69502e+10 2.02111e+11)
(3.64319e+10 6.8251e+10 2.0735e+11)
(3.63558e+10 8.3009e+10 1.75292e+11)
(4.06143e+10 4.94378e+10 1.09586e+11)
(9.83316e+09 3.54934e+10 1.87574e+11)
(3.74154e+09 3.77615e+10 1.58442e+11)
(-1.38968e+10 4.00222e+10 1.75481e+11)
(6.60436e+08 4.39524e+10 1.25254e+11)
(7.5295e+09 3.69267e+10 8.2677e+10)
)
;
    }
    procBoundary68to67
    {
        type            processor;
        value           nonuniform List<vector> 8((-1.43517e+11 -9.79433e+09 2.35419e+11) (-1.00918e+11 -2.90355e+10 2.05313e+11) (-2.35426e+11 -5.81653e+10 3.49096e+11) (-3.02353e+11 -4.25128e+10 2.87422e+11) (-3.33008e+11 -4.84537e+10 1.01127e+11) (-3.22693e+11 -6.18553e+10 7.87201e+10) (-1.81169e+11 -1.46201e+10 1.23141e+11) (-2.95993e+11 -1.84481e+10 1.25333e+11));
    }
    procBoundary68to69
    {
        type            processor;
        value           nonuniform List<vector> 8((-1.6311e+10 3.7476e+09 8.63022e+10) (-3.06988e+10 1.3445e+10 6.54915e+10) (-4.36724e+10 1.79849e+10 4.47732e+10) (-6.61959e+10 7.00332e+09 3.70414e+10) (-8.10789e+10 -1.28196e+10 3.322e+10) (-5.29264e+10 -1.13724e+10 1.59689e+10) (-5.4234e+10 7.21337e+09 8.53707e+09) (-6.76385e+10 6.22986e+09 1.21428e+10));
    }
    procBoundary68to84
    {
        type            processor;
        value           nonuniform List<vector> 10((-1.54647e+11 -8.28499e+10 2.16829e+11) (-1.10344e+11 -2.61252e+10 1.34446e+11) (-6.82424e+10 -6.76997e+09 8.05079e+10) (-6.76711e+10 -1.14657e+10 5.06899e+10) (-7.64761e+10 -1.8218e+10 4.46023e+10) (-4.19542e+11 -7.52618e+10 1.34841e+11) (-2.47053e+11 -6.25578e+10 4.94418e+10) (-1.92164e+11 -4.99968e+10 3.35602e+10) (-1.32607e+11 -3.52191e+10 2.66814e+10) (-1.16548e+11 -2.63193e+10 2.38724e+10));
    }
}


// ************************************************************************* //
