/*--------------------------------*- C++ -*----------------------------------*\
| =========                 |                                                 |
| \\      /  F ield         | OpenFOAM: The Open Source CFD Toolbox           |
|  \\    /   O peration     | Version:  2.4.0                                 |
|   \\  /    A nd           | Web:      www.OpenFOAM.org                      |
|    \\/     M anipulation  |                                                 |
\*---------------------------------------------------------------------------*/
FoamFile
{
    version     2.0;
    format      ascii;
    class       volVectorField;
    location    "0.03";
    object      Ub;
}
// * * * * * * * * * * * * * * * * * * * * * * * * * * * * * * * * * * * * * //

dimensions      [0 1 -1 0 0 0 0];

internalField   nonuniform List<vector> 
200
(
(65.8129 -20.8708 5.74628)
(53.3559 -15.2098 12.0366)
(58.6285 -19.648 6.16984)
(54.9968 -12.8657 -5.80557)
(56.1582 -21.8545 9.05952)
(56.1615 -6.74537 -9.5823)
(55.2281 -15.3101 7.56142)
(56.1529 5.33642 -10.8721)
(52.7275 -5.64005 6.65444)
(56.2314 16.2061 -14.0288)
(77.4197 11.516 -105.517)
(81.9391 -25.5573 7.07432)
(60.5998 -16.3706 28.5271)
(63.5076 -16.2533 3.5757)
(58.6661 -13.2562 -0.176399)
(61.06 -17.1762 10.9015)
(63.5626 -5.82647 -3.7079)
(59.6405 -11.0279 9.71624)
(64.9744 7.79125 -9.11102)
(63.0146 -14.0467 15.7896)
(42.8547 -27.2203 -5.22113)
(87.3447 23.4498 -138.51)
(78.5288 -16.053 7.42133)
(61.1403 -6.6309 19.8205)
(65.2951 -24.1302 -9.8105)
(64.3328 -32.7829 19.3243)
(68.2016 -13.7102 15.6626)
(72.4599 -8.2252 7.70988)
(65.6329 -20.4922 23.8866)
(69.435 6.39879 1.78034)
(70.7393 -12.2771 -36.6972)
(53.1087 -25.8313 -0.751666)
(94.9439 31.9637 -91.4716)
(81.9859 -7.69113 7.04897)
(62.9462 -28.4832 17.1454)
(69.6317 -38.7909 16.8149)
(61.7535 -58.874 44.964)
(71.2754 -23.1941 23.8428)
(63.0377 -20.6033 17.7395)
(65.4276 -9.16034 8.78506)
(47.9342 -12.4589 -4.98033)
(56.6927 -23.0404 3.92729)
(56.8843 -16.1279 -8.64863)
(60.5778 -26.2338 6.37726)
(61.441 -11.9283 -8.75699)
(63.8938 -22.3237 9.75156)
(61.1366 -6.15896 -2.95203)
(59.314 -14.0634 15.4767)
(58.1525 0.75275 2.95118)
(49.7698 -6.12795 15.8935)
(61.0894 -22.2308 -0.382816)
(48.211 -13.492 -3.03068)
(60.2758 -21.4231 6.07081)
(60.9511 -17.496 -2.71315)
(63.2516 -26.2885 11.1325)
(67.5955 -11.7836 0.459209)
(71.5996 -16.4661 15.0161)
(63.8935 -6.28783 7.82769)
(65.4 -6.73695 21.4841)
(63.7634 -5.58626 -18.5912)
(70.0473 -27.2089 -10.0164)
(73.6168 -23.6932 4.60708)
(56.0901 -22.3445 9.44878)
(71.8972 -18.4122 10.7314)
(60.6307 -22.5114 9.3007)
(67.2897 -8.30166 48.2608)
(82.0051 9.24702 38.33)
(78.8638 -8.83455 24.2569)
(65.7293 -19.8422 20.5287)
(67.9268 -3.47165 29.5332)
(75.7534 -37.7065 1.3502)
(75.4365 -33.7113 0.524639)
(81.4286 -23.8634 15.3929)
(67.3318 -31.1543 21.5196)
(95.5367 21.893 1.30221)
(49.6672 -143.244 -49.3054)
(72.1543 -63.0495 54.5047)
(69.2278 0.545197 42.0009)
(62.5013 1.15413 29.5787)
(46.4398 -1.34288 40.1073)
(63.538 -25.7119 -4.43034)
(63.0833 -20.4453 -9.61381)
(67.9844 -24.487 -2.37986)
(67.7053 -19.4371 -12.0669)
(73.525 -21.9762 3.00679)
(73.8688 -13.6026 -7.47334)
(78.4302 -29.1194 3.07719)
(66.0106 -1.18607 -29.7236)
(73.0969 2.30894 10.8871)
(71.7251 4.92275 13.3814)
(69.5558 -25.2091 -12.9866)
(78.3149 -21.5592 -4.47043)
(74.0694 -26.1059 -7.21279)
(78.4529 -17.7776 -1.40602)
(68.6159 -25.5371 -5.57828)
(79.5618 14.1855 13.7569)
(94.0867 15.9223 14.3871)
(88.6832 0.293671 45.5461)
(69.7391 -0.298677 40.7154)
(69.4616 0.889758 26.3559)
(88.0668 -40.6403 -22.2992)
(76.0062 -42.2907 -15.4486)
(89.5446 -8.1191 0.0500354)
(87.8533 -25.9733 3.53254)
(95.26 26.2431 -22.0517)
(65.118 -186.602 -60.0004)
(92.0852 -28.9361 57.3788)
(75.4925 4.26877 45.4662)
(74.3242 7.38135 36.3952)
(60.0429 7.12088 46.8337)
(54.4453 -74.3603 -14.3975)
(82.8244 -27.9278 -15.3548)
(72.1674 -52.0336 -12.977)
(95.7135 1.82217 8.03945)
(90.8498 -11.6234 25.9035)
(85.1634 39.037 56.5614)
(58.9863 18.6925 65.0196)
(72.8659 14.0212 48.3238)
(54.3761 14.8554 63.5751)
(59.3175 23.2929 46.087)
(70.2798 -27.0022 0.497643)
(79.956 -21.509 -7.74313)
(74.2041 -22.3375 -10.8535)
(83.0095 -16.0805 -15.2291)
(78.6747 -18.7224 -19.0063)
(90.1831 -3.32425 -7.50035)
(68.6023 -29.4639 1.44207)
(79.7814 32.8358 11.0391)
(101.901 41.633 -2.09871)
(98.0023 12.7326 3.71729)
(66.9552 -35.8659 -17.7597)
(73.5202 -31.9765 0.148565)
(87.6185 -12.9477 -10.27)
(79.5792 -30.4795 -12.589)
(91.2643 -4.78379 -21.1715)
(84.3474 -20.8246 -8.91172)
(122.452 94.6974 -44.3812)
(44.134 -340.776 81.1841)
(101.353 -61.9618 48.2506)
(78.4743 29.4713 25.5049)
(53.3088 -75.1521 -4.72152)
(71.8864 -40.6997 -19.9424)
(67.3959 -41.3797 -4.47834)
(88.7408 -7.96963 -14.0866)
(69.5374 -31.8613 -4.54367)
(82.7103 7.85055 5.89421)
(82.6931 -3.67936 27.7448)
(108.291 84.9945 6.1066)
(43.4188 44.2294 34.2111)
(69.9156 19.4923 22.3555)
(60.6439 -32.1905 -44.3674)
(51.0493 -71.9161 -21.4301)
(79.7368 -27.2861 -18.4814)
(57.2437 -17.9043 -6.23596)
(83.5351 5.98189 -7.37369)
(49.6491 2.00143 12.9814)
(78.9579 18.153 6.06049)
(46.5983 17.269 41.4294)
(71.8353 18.4594 32.6544)
(28.658 40.9682 82.476)
(71.9919 -32.0536 -23.9854)
(28.6147 -124.727 17.6302)
(101.092 -16.5522 -16.1361)
(84.0954 -9.24541 -12.3312)
(94.1426 -5.93972 -14.6683)
(68.2145 -23.0587 -7.66786)
(118.629 3.46893 -46.9727)
(-9.62571 -149.252 14.5691)
(94.2392 -38.5523 21.6038)
(73.3058 16.2323 4.6479)
(77.7942 -30.7125 17.0415)
(55.8218 -58.6739 -23.9575)
(47.8075 -88.666 -1.37947)
(85.2976 -11.221 -8.39109)
(66.3306 -22.5672 -13.5728)
(90.2214 -14.7488 -24.728)
(46.3813 -27.7387 6.69951)
(85.7798 -17.6047 5.13024)
(-4.46077 -41.4998 44.387)
(73.4226 -28.9418 14.747)
(59.8915 -33.3144 -25.7131)
(65.9833 -63.3865 1.00634)
(46.3718 -74.7364 -16.9055)
(31.752 -68.7559 -6.48964)
(58.3028 -28.7489 -15.4991)
(17.3969 -34.5774 0.914629)
(56.0722 -27.2824 -19.9465)
(-14.3264 28.9843 69.0252)
(40.9827 -5.14874 1.89093)
(-6.37564 25.42 56.3659)
(1.35214 -103.812 -15.7784)
(62.6994 -79.1424 -15.8128)
(-7.21849 -33.7527 -25.7455)
(32.2409 -45.8584 -27.0633)
(-18.1852 -26.3076 0.749411)
(25.3308 -25.5343 -24.5603)
(-61.7058 42.6439 93.8169)
(29.4925 6.78668 5.40807)
(-31.2692 65.3305 97.1766)
(12.1924 15.8973 19.4692)
)
;

boundaryField
{
    inlet
    {
        type            fixedValue;
        value           nonuniform 0();
    }
    outlet
    {
        type            zeroGradient;
    }
    bottom
    {
        type            fixedValue;
        value           uniform (0 0 0);
    }
    top
    {
        type            symmetryPlane;
    }
    side1
    {
        type            symmetryPlane;
    }
    side2
    {
        type            symmetryPlane;
    }
    procBoundary14to6
    {
        type            processor;
        value           nonuniform List<vector> 
50
(
(48.6749 -14.2081 3.40171)
(54.1799 -20.0274 6.96511)
(51.6617 -13.624 -6.44153)
(54.0124 -23.2966 9.49482)
(53.2423 -8.307 -9.95962)
(53.6924 -20.6571 10.2832)
(53.0144 -1.83411 -7.51174)
(47.693 -13.295 12.1268)
(44.8948 6.3773 -0.814063)
(35.4312 -1.03603 10.5749)
(56.0566 -19.8319 4.78018)
(55.3675 -13.6619 -7.69488)
(59.6048 -24.5232 5.82886)
(60.0523 -12.3213 -11.1442)
(63.4547 -25.9176 7.8201)
(62.9564 -10.153 -8.07688)
(63.0208 -27.4304 16.6307)
(62.1501 -19.2159 8.98441)
(45.1679 -27.5804 15.3056)
(45.7924 -17.0478 17.256)
(59.4559 -12.6833 -5.35522)
(63.5621 -20.5453 -0.416043)
(64.7011 -14.8015 -11.2707)
(67.9262 -24.1131 -1.61404)
(69.544 -14.6938 -15.9877)
(69.9964 -34.2936 -2.45843)
(72.7264 -10.7167 -49.0957)
(74.783 -12.2776 2.06553)
(71.212 -8.1242 6.09265)
(65.0585 -13.1298 18.6109)
(64.0572 -22.0415 -1.10646)
(65.4199 -12.3218 -8.74732)
(68.6267 -16.6749 -7.20182)
(70.9484 -14.7079 -17.7491)
(75.642 -15.7929 -11.6307)
(74.4706 -20.3358 -20.3262)
(75.2924 -16.5558 -5.78455)
(85.1258 -9.95579 -15.7461)
(85.7725 -9.68152 -15.9041)
(78.9306 -3.25282 -60.71)
(34.4023 -54.6512 11.2398)
(77.5532 -21.141 2.83754)
(95.1333 2.16155 -7.42224)
(81.0386 5.18762 -12.8712)
(65.4529 -16.7228 -11.8632)
(101.957 -12.2424 -18.5902)
(0.920209 -177.323 -24.7747)
(89.949 -37.1628 9.71508)
(112.677 14.5914 -5.49679)
(98.9 2.45205 -3.94863)
)
;
    }
    procBoundary14to13
    {
        type            processor;
        value           nonuniform List<vector> 
20
(
(66.4711 5.02949 -69.2906)
(44.0515 -21.3157 -4.35888)
(63.0955 -13.1818 -37.4615)
(53.6691 -24.4276 2.2187)
(55.3004 -19.8973 1.12888)
(58.9324 -18.1605 -13.7024)
(65.5404 -31.1947 -0.721855)
(60.267 -59.5267 -2.2314)
(57.1693 -19.0765 -9.53658)
(62.7078 -27.1329 -14.029)
(49.5866 -121.798 6.30104)
(68.6271 -23.0355 -23.8316)
(64.2153 -25.686 -9.8364)
(59.8312 -53.4618 22.3724)
(60.9241 -42.1067 -25.3847)
(49.7868 -59.2268 -44.3496)
(64.5615 -20.5902 13.1802)
(56.8986 -32.3779 -13.1741)
(54.0536 -52.0232 -5.99239)
(41.087 -54.724 -34.4899)
)
;
    }
    procBoundary14to15
    {
        type            processor;
        value           nonuniform List<vector> 
20
(
(54.5611 -14.2744 14.7345)
(63.8532 13.8202 -20.1516)
(63.278 0.470562 4.53688)
(62.8211 -9.208 19.111)
(45.833 27.316 -37.9521)
(65.7337 -16.3562 38.9821)
(50.9512 1.16202 30.4424)
(38.1416 17.9323 6.68962)
(63.9593 -2.85409 23.0296)
(62.2792 1.19198 29.0803)
(59.2824 12.1618 32.681)
(25.0569 45.5045 83.3104)
(82.7781 -3.21006 14.189)
(83.3325 20.0819 16.6222)
(44.3847 29.9854 59.539)
(46.7011 35.7328 38.4143)
(87.6211 6.07681 -1.86622)
(30.4578 11.7053 33.1993)
(26.1613 10.4302 20.5669)
(-33.9878 83.3852 116.134)
)
;
    }
    procBoundary14to22
    {
        type            processor;
        value           nonuniform List<vector> 
50
(
(63.8391 -30.3174 9.82667)
(74.3193 -12.2112 -25.1905)
(67.7138 -47.7155 21.6577)
(106.523 69.1294 -55.2801)
(92.5832 -9.77355 0.859586)
(76.4166 -42.0858 21.2503)
(71.6514 -51.1085 22.644)
(55.1283 -59.3869 31.5839)
(59.0923 -31.0059 20.5951)
(48.9466 -28.9975 24.8273)
(60.7701 -75.7802 11.5552)
(85.9119 -41.2768 7.03541)
(70.148 -36.9225 19.189)
(89.3301 -27.0883 33.2297)
(75.3004 -31.3846 44.2641)
(87.8222 5.28215 37.6522)
(55.1854 -17.0994 45.7483)
(62.6683 -7.96981 49.1549)
(45.4743 0.544756 54.989)
(44.1159 16.7671 26.0869)
(47.5343 -11.1314 -30.1692)
(52.9208 -62.8221 -8.977)
(82.5424 -16.2542 2.37305)
(58.8927 -22.7387 20.7008)
(93.9877 14.0487 35.5412)
(63.861 5.97661 55.2458)
(82.2078 14.0393 60.8935)
(50.5947 13.7739 79.9275)
(64.0603 23.524 60.1803)
(20.86 54.9636 105.766)
(-0.467311 -116.338 -19.1689)
(85.1065 -59.5548 -31.2109)
(27.1374 -46.5218 -33.1186)
(78.5217 20.4677 -9.38223)
(41.8176 27.5152 9.94143)
(72.4515 32.9345 18.527)
(43.5749 27.1468 44.4451)
(70.7025 27.2273 37.2882)
(19.4415 55.7079 96.3071)
(51.1486 47.5433 41.4953)
(26.3309 -88.3682 -9.32779)
(-15.1301 -66.625 -29.1129)
(-21.2546 -25.1474 -67.9615)
(-35.786 -44.5646 -16.6003)
(-19.765 -20.8677 -41.1873)
(-90.7417 21.7361 61.0257)
(5.79223 -13.4154 -18.8556)
(-80.7128 129.021 174.043)
(19.9749 19.7635 -5.38945)
(-67.1493 138.231 159.99)
)
;
    }
}


// ************************************************************************* //
