/*--------------------------------*- C++ -*----------------------------------*\
| =========                 |                                                 |
| \\      /  F ield         | OpenFOAM: The Open Source CFD Toolbox           |
|  \\    /   O peration     | Version:  2.4.0                                 |
|   \\  /    A nd           | Web:      www.OpenFOAM.org                      |
|    \\/     M anipulation  |                                                 |
\*---------------------------------------------------------------------------*/
FoamFile
{
    version     2.0;
    format      ascii;
    class       volVectorField;
    location    "0.13";
    object      Ub;
}
// * * * * * * * * * * * * * * * * * * * * * * * * * * * * * * * * * * * * * //

dimensions      [0 1 -1 0 0 0 0];

internalField   nonuniform List<vector> 
200
(
(1.00161e+11 -9.46773e+11 -1.17542e+10)
(-1.81249e+11 -8.46278e+11 1.00137e+10)
(-1.83456e+10 -8.27926e+11 6.46438e+10)
(-5.15421e+10 -6.27155e+11 7.71968e+10)
(-1.97223e+11 -6.85543e+11 1.55726e+11)
(7.23824e+10 -7.52051e+11 3.4027e+10)
(-2.17721e+11 -6.0007e+11 7.68211e+10)
(-8.37056e+10 -7.46426e+11 1.54612e+10)
(-1.34358e+11 -5.9921e+11 3.34377e+10)
(-1.19292e+11 -7.47818e+11 1.26796e+10)
(-5.00549e+10 -9.65869e+11 1.35293e+11)
(-1.64984e+11 -7.43868e+11 -1.1334e+11)
(-9.82286e+10 -7.60772e+11 6.61374e+10)
(-2.70875e+11 -7.20035e+11 4.24225e+10)
(-3.42576e+10 -9.67646e+11 4.18544e+10)
(-2.13413e+11 -6.15326e+11 4.47046e+10)
(-1.42093e+11 -7.46012e+11 1.78304e+10)
(-1.73463e+11 -6.50048e+11 3.08636e+10)
(-1.9116e+11 -7.68831e+11 1.6529e+10)
(-1.77675e+11 -6.65168e+11 1.23518e+11)
(-1.90078e+11 -6.44854e+11 -4.29674e+10)
(3.0996e+10 -8.71716e+11 1.63528e+11)
(-2.38566e+11 -6.5478e+11 5.07925e+09)
(-4.33014e+10 -1.00074e+12 1.78878e+10)
(-1.92194e+11 -6.79305e+11 3.01185e+10)
(-1.60209e+11 -6.70235e+11 2.54925e+09)
(-1.92201e+11 -7.19745e+11 5.53918e+10)
(-2.38431e+11 -7.63488e+11 2.40368e+10)
(-2.50257e+11 -6.63138e+11 1.6837e+11)
(-3.46496e+11 -6.96091e+11 -7.0048e+10)
(5.68087e+10 -8.52999e+11 1.31736e+11)
(-1.51088e+11 -6.74982e+11 4.33963e+10)
(-6.52216e+10 -8.4757e+11 1.73907e+10)
(-1.11065e+11 -6.8984e+11 6.21219e+10)
(-7.91291e+10 -6.1651e+11 -1.73029e+11)
(-1.38529e+11 -6.59195e+11 8.37059e+10)
(-2.33098e+11 -8.24302e+11 5.09098e+10)
(-2.87989e+11 -5.84214e+11 2.39365e+11)
(-4.40249e+11 -5.55806e+11 -9.35868e+10)
(-4.25485e+11 -6.55229e+11 1.7597e+11)
(-1.46861e+11 -8.16842e+11 -2.63741e+11)
(4.1921e+10 -6.29164e+11 -2.11247e+10)
(-7.32054e+10 -5.6892e+11 1.60931e+11)
(-7.42835e+10 -6.25299e+11 1.63768e+11)
(3.87958e+10 -5.85217e+11 2.66869e+11)
(-4.40616e+11 -1.94452e+11 -1.18988e+11)
(-1.33982e+11 -9.38366e+11 -5.34373e+10)
(-1.72917e+11 -4.75196e+11 -2.21543e+10)
(-2.66261e+10 -8.05607e+11 2.08718e+10)
(-1.20452e+11 -4.86863e+11 3.95444e+10)
(3.10373e+10 -7.05989e+11 7.22185e+10)
(-6.54382e+10 -7.6001e+11 2.08616e+11)
(-1.70315e+11 -6.83553e+11 1.52696e+11)
(-3.17871e+10 -6.70501e+11 2.90709e+11)
(-3.70936e+11 -1.64426e+11 -2.00161e+11)
(-1.50352e+11 -6.88394e+11 7.78027e+10)
(-2.2187e+11 -5.56029e+11 4.98333e+10)
(-5.60926e+10 -8.68849e+11 1.16653e+11)
(-1.77104e+11 -5.5265e+11 8.13012e+10)
(-1.68575e+11 -7.12448e+11 -3.84654e+10)
(-1.18297e+10 -8.72265e+11 3.3326e+11)
(-1.49115e+11 -6.84478e+11 1.44354e+11)
(-5.60435e+10 -8.05614e+11 2.74681e+11)
(-3.60939e+11 -3.27859e+11 -1.77937e+11)
(-1.5914e+11 -2.26794e+11 -6.35863e+09)
(-3.23816e+11 -5.99991e+11 7.79312e+10)
(-8.98055e+10 -1.2098e+12 2.5467e+11)
(-2.27667e+11 -6.01335e+11 1.21644e+11)
(-3.3652e+11 -5.49247e+11 -1.59983e+11)
(-7.88684e+10 -7.84772e+11 1.72732e+11)
(-2.08184e+11 -6.33508e+11 2.11617e+11)
(-1.16847e+11 -8.01324e+11 1.85405e+11)
(-9.82592e+10 -5.04349e+11 4.22596e+10)
(-2.88257e+11 4.09521e+11 -9.36073e+11)
(-1.22928e+11 -5.20562e+11 1.05124e+11)
(-1.61318e+11 -6.11129e+11 1.22461e+11)
(-2.63771e+11 -7.2262e+11 1.97641e+11)
(-5.0341e+11 -4.16984e+11 -3.01915e+11)
(-1.51927e+11 -8.18122e+11 1.97112e+11)
(-3.76798e+11 -7.3169e+11 -1.17286e+11)
(3.25696e+10 -7.1364e+11 2.03448e+10)
(2.94788e+10 -8.85486e+11 6.81849e+10)
(6.15528e+10 -7.19592e+11 1.55462e+11)
(1.56128e+11 -4.35805e+11 -8.61547e+10)
(-1.426e+11 -4.87971e+11 7.32005e+09)
(-4.0266e+10 -6.43182e+11 2.75574e+10)
(-1.20903e+11 -3.38977e+11 -1.08938e+11)
(-6.94783e+10 -9.90791e+11 2.17836e+11)
(-1.82812e+11 -4.52394e+11 4.19165e+10)
(-3.08515e+10 -7.04287e+11 -1.2918e+10)
(1.3707e+11 -8.44544e+11 1.57324e+11)
(-1.15661e+10 -1.05392e+12 3.87289e+11)
(3.62034e+11 -8.01454e+11 2.45105e+11)
(-2.76409e+11 -5.63702e+10 -3.62225e+11)
(-1.36981e+10 -3.928e+11 1.27131e+10)
(-2.50277e+11 -3.27474e+11 -1.04963e+11)
(-3.10209e+11 -5.3694e+11 4.22826e+09)
(-2.83584e+11 -5.35123e+11 6.69443e+10)
(-2.18074e+11 -8.04627e+11 6.32073e+10)
(-1.18171e+11 -5.46638e+11 6.85375e+10)
(3.85251e+10 -1.07573e+12 3.72626e+11)
(2.52251e+11 -9.48297e+11 4.30102e+11)
(-3.09506e+11 -1.37768e+11 -5.23692e+11)
(-2.19523e+11 3.85087e+11 -5.30314e+09)
(-4.3335e+11 -1.39622e+11 -1.87132e+11)
(-4.8416e+11 -3.02488e+11 2.01597e+10)
(-4.43445e+11 -4.46282e+11 1.55031e+11)
(-3.56901e+11 -9.24099e+11 1.8295e+11)
(-1.41025e+11 -6.65202e+11 1.30126e+11)
(-3.85612e+11 -8.33745e+11 -1.53956e+11)
(-2.31254e+11 -9.99772e+11 7.51545e+11)
(-1.54513e+11 -5.33753e+11 7.52625e+10)
(-8.89862e+11 1.98747e+12 -6.87918e+11)
(-3.797e+11 1.05339e+11 -6.06164e+11)
(-2.74916e+11 1.33116e+11 -2.43756e+10)
(-5.83617e+11 -3.11358e+11 2.87799e+09)
(-5.02583e+11 -7.85598e+11 1.77918e+11)
(-1.91434e+11 -7.58954e+11 1.87971e+11)
(-5.18209e+11 -9.28712e+11 -2.509e+11)
(-2.60359e+11 -5.71535e+11 1.17564e+11)
(-1.33374e+10 -6.47997e+11 4.05091e+10)
(7.41769e+10 -7.03777e+11 2.54711e+10)
(1.45644e+11 -8.207e+11 7.18444e+10)
(9.32186e+10 -7.00733e+11 2.5148e+10)
(9.4427e+10 -5.30139e+11 -3.21214e+10)
(9.04243e+10 -4.69575e+11 -4.92349e+10)
(-3.7303e+10 -5.3126e+11 -9.70657e+10)
(-7.623e+10 -5.15671e+11 1.07358e+10)
(-6.8189e+10 -5.76547e+11 2.21612e+10)
(1.6247e+10 -5.69358e+11 -5.70139e+10)
(1.83442e+10 -7.7294e+11 9.89975e+10)
(2.51481e+11 -1.01227e+12 1.76233e+11)
(-3.02208e+10 -7.31167e+11 1.73054e+11)
(2.17937e+11 -8.51074e+11 9.2588e+10)
(-9.28715e+10 -5.04317e+11 -8.93663e+10)
(-1.43709e+11 -3.82876e+11 -8.19756e+10)
(-3.70989e+11 -1.47582e+11 2.5782e+11)
(-3.84082e+11 -4.2948e+11 2.41828e+10)
(-1.45859e+11 -7.02645e+11 -1.84931e+11)
(7.58713e+10 -1.22566e+12 4.85107e+10)
(1.64681e+11 -1.01578e+12 2.18699e+11)
(1.37608e+11 -7.28445e+11 2.7011e+11)
(2.15071e+11 -7.51847e+11 1.09915e+11)
(-1.50632e+11 -5.82247e+11 5.42991e+10)
(-2.56837e+11 -2.44201e+11 -1.89245e+10)
(-5.64681e+11 -9.78023e+10 1.94778e+11)
(-4.29409e+11 -3.35483e+11 6.50097e+10)
(-2.90722e+11 -7.1762e+11 -2.54215e+11)
(1.19664e+10 -1.50103e+12 1.41562e+11)
(-2.39218e+11 -5.39005e+11 1.95086e+11)
(2.54216e+10 -1.12848e+12 6.78172e+11)
(1.23085e+11 -7.68863e+11 3.81883e+11)
(5.30104e+10 -4.92274e+11 1.98511e+10)
(-8.24291e+11 6.61415e+11 -4.56329e+11)
(-4.29425e+11 -2.18325e+11 2.46253e+10)
(-5.6357e+11 -4.91299e+10 8.94599e+10)
(-3.42142e+11 -4.58188e+11 -9.1926e+10)
(-2.38413e+11 -8.76006e+11 1.24029e+11)
(-2.4355e+11 -5.94419e+11 1.56767e+11)
(-4.44838e+11 -9.67618e+11 -5.09914e+11)
(1.02467e+10 -5.9839e+11 2.7771e+10)
(4.76401e+10 -6.19388e+11 -1.35881e+10)
(8.57556e+10 -6.76464e+11 2.71605e+10)
(1.50976e+11 -6.45229e+11 6.84082e+10)
(1.38945e+11 -7.07869e+11 7.53988e+10)
(2.31315e+11 -6.63905e+11 5.31205e+10)
(1.92196e+11 -5.30798e+11 3.28605e+09)
(2.15191e+11 -6.46862e+11 5.12056e+09)
(1.1023e+11 -9.63739e+11 -5.20739e+10)
(1.6412e+11 -6.04447e+11 -3.92168e+10)
(1.43258e+10 -6.78832e+11 2.302e+10)
(5.81811e+10 -6.67275e+11 -1.8956e+10)
(1.45227e+11 -8.65696e+11 7.59332e+10)
(1.92314e+11 -6.07015e+11 -4.55691e+10)
(1.67287e+11 -6.96506e+11 3.33247e+11)
(8.29411e+10 -7.23479e+11 6.50625e+10)
(2.0355e+11 -5.9443e+11 2.35161e+10)
(1.68285e+11 -5.52255e+11 -1.36795e+11)
(1.04307e+11 -5.74779e+11 -4.12271e+10)
(-2.26607e+10 -5.82872e+11 -9.96101e+10)
(1.79902e+10 -7.37704e+11 8.58119e+10)
(1.68877e+11 -7.85912e+11 1.09227e+11)
(-3.2038e+10 -8.14912e+11 3.92462e+11)
(1.93246e+11 -6.53625e+11 9.77318e+10)
(3.5822e+10 -5.40443e+11 -3.9596e+10)
(3.76346e+10 -6.05932e+11 1.61735e+11)
(-3.668e+10 -6.6663e+11 -1.59332e+10)
(2.60764e+10 -6.79389e+11 4.95479e+09)
(-1.04397e+11 -4.884e+11 -2.0289e+11)
(-2.36668e+10 -6.43808e+11 5.58453e+10)
(1.21338e+11 -8.64223e+11 2.64769e+11)
(1.3779e+11 -6.42842e+11 4.28206e+11)
(1.62931e+11 -6.61603e+11 2.43808e+11)
(-9.17456e+09 -5.64657e+11 1.9726e+11)
(-7.36169e+10 -4.37368e+11 -3.33602e+09)
(-1.67423e+11 -5.19002e+11 -3.40283e+11)
(-1.84042e+11 -4.95553e+11 3.38417e+10)
(-2.43391e+11 -6.17894e+11 -1.07035e+11)
(-1.65359e+11 -6.32358e+11 1.17558e+11)
(-1.87791e+11 -5.3833e+11 6.56613e+10)
)
;

boundaryField
{
    inlet
    {
        type            fixedValue;
        value           uniform (6 0 0);
    }
    outlet
    {
        type            zeroGradient;
    }
    bottom
    {
        type            fixedValue;
        value           uniform (0 0 0);
    }
    top
    {
        type            symmetryPlane;
    }
    side1
    {
        type            symmetryPlane;
    }
    side2
    {
        type            symmetryPlane;
    }
    procBoundary16to8
    {
        type            processor;
        value           nonuniform List<vector> 
50
(
(-6.26144e+10 -1.49888e+12 -1.02411e+11)
(2.29693e+11 -1.21458e+12 2.12634e+11)
(-5.17888e+09 -4.59582e+11 3.11409e+10)
(1.60598e+11 -7.45054e+11 1.97091e+11)
(2.89316e+10 -5.44926e+11 9.32908e+10)
(-1.69634e+11 -8.2782e+11 4.12387e+11)
(-5.35148e+09 -7.36034e+11 1.80563e+10)
(-8.67885e+10 -5.35891e+11 7.79202e+10)
(3.65954e+09 -7.64719e+11 -7.73546e+09)
(-5.56278e+10 -5.62004e+11 3.13179e+10)
(1.27249e+11 -7.76193e+11 -1.10663e+11)
(-1.536e+11 -5.67623e+11 -1.92269e+11)
(-1.16626e+10 -7.36839e+11 3.10293e+10)
(-1.23158e+11 -5.09747e+11 1.01625e+11)
(-2.56325e+11 -1.04372e+12 2.67235e+11)
(-3.20844e+11 -1.07445e+12 3.42709e+11)
(-4.1544e+11 -3.04606e+11 -1.34639e+10)
(9.30017e+10 -6.61366e+11 -7.78391e+10)
(-1.70254e+11 -3.89772e+11 4.6469e+08)
(8.22014e+10 -7.82791e+11 -2.79481e+09)
(-1.04736e+10 -6.10419e+11 7.68535e+10)
(1.30357e+11 -7.13362e+11 1.62587e+10)
(8.54003e+10 -4.9145e+11 -1.24215e+11)
(-5.3918e+10 -9.8185e+11 -8.50786e+09)
(3.28135e+09 -5.64888e+11 1.12136e+11)
(5.34858e+10 -4.3586e+11 1.05301e+11)
(1.57347e+11 -4.49478e+11 -3.4474e+10)
(4.51873e+09 -2.15905e+11 -2.47809e+11)
(1.02594e+11 -7.52256e+11 -9.16737e+10)
(4.70014e+10 -4.43764e+11 -5.25013e+09)
(-1.41911e+09 -5.31087e+11 3.23463e+10)
(6.11866e+10 -5.79754e+11 1.70407e+10)
(7.33075e+10 -7.70756e+11 3.69378e+10)
(1.01572e+11 -5.97611e+11 3.32032e+10)
(1.23229e+11 -4.73677e+11 4.60586e+10)
(1.61598e+11 -5.11171e+11 1.59181e+10)
(1.06064e+11 -6.27578e+11 -4.05091e+09)
(1.38414e+11 -6.3034e+11 -1.11555e+10)
(-7.14728e+09 -5.3982e+11 8.23294e+09)
(8.80965e+10 -6.09755e+11 -2.01611e+09)
(2.54354e+10 -6.00511e+11 1.74056e+10)
(2.71789e+10 -5.57187e+11 5.37562e+10)
(8.06881e+10 -6.27958e+11 1.83697e+10)
(1.02819e+11 -6.2235e+11 5.87583e+10)
(1.56464e+11 -6.0771e+11 2.72459e+10)
(1.81599e+11 -6.34079e+11 3.62813e+10)
(1.50507e+11 -6.2399e+11 7.51038e+09)
(1.28091e+11 -6.28215e+11 8.98215e+09)
(2.18406e+11 -6.62823e+11 -5.82636e+10)
(2.85111e+11 -5.59824e+11 -7.66001e+10)
)
;
    }
    procBoundary16to17
    {
        type            processor;
        value           nonuniform List<vector> 
20
(
(-1.21151e+11 -6.33945e+11 9.20975e+10)
(-2.23213e+11 -7.47526e+11 -7.50948e+10)
(-2.91783e+11 -7.55837e+11 1.60819e+11)
(-6.11576e+11 -7.42584e+11 8.66793e+10)
(-3.98482e+10 -7.88086e+11 -1.31066e+10)
(-1.49701e+10 -7.28166e+11 1.25922e+11)
(-2.36559e+11 -8.17184e+11 -5.49247e+10)
(-1.41921e+11 -8.01465e+11 1.83323e+11)
(-1.62498e+10 -5.14734e+11 3.00527e+10)
(-2.07045e+11 -8.06625e+11 -1.04383e+11)
(-1.50792e+11 -6.65892e+11 5.81726e+10)
(-5.04436e+11 -8.87386e+11 1.15763e+11)
(1.7106e+11 -1.1244e+12 2.21162e+10)
(-1.15424e+11 -5.65208e+11 1.03352e+11)
(-2.73203e+11 -7.66476e+11 -1.58695e+11)
(-3.77276e+11 -3.26606e+11 3.56464e+09)
(1.90026e+11 -6.38101e+11 -1.88185e+11)
(4.08564e+10 -7.41639e+11 1.15357e+11)
(-8.72739e+10 -5.60879e+11 4.94243e+10)
(-2.22661e+11 -6.27986e+11 -1.6785e+10)
)
;
    }
    procBoundary16to24
    {
        type            processor;
        value           nonuniform List<vector> 
50
(
(-1.05742e+11 -7.84685e+11 1.21062e+11)
(-2.85735e+10 -8.30931e+11 4.90451e+10)
(-7.61891e+09 -6.81749e+11 1.19863e+11)
(-2.19929e+10 -5.58313e+11 -6.46728e+11)
(-4.89747e+10 -5.00613e+11 1.38487e+11)
(-9.43675e+10 -6.40502e+11 -8.18441e+10)
(-2.69923e+11 -4.76638e+11 5.04556e+11)
(-4.49562e+11 -3.8433e+11 -1.3821e+11)
(-4.40861e+11 -4.45368e+11 1.68433e+11)
(-6.65419e+11 -4.11811e+11 2.51735e+09)
(-6.71762e+10 -7.45216e+11 2.6902e+11)
(3.68065e+10 -5.87062e+11 1.48362e+11)
(-1.91458e+11 -3.40985e+11 -1.01096e+12)
(-1.47301e+11 -3.94067e+11 3.10243e+11)
(-1.9497e+11 -1.21634e+11 -1.04499e+11)
(-2.27025e+11 -4.9964e+11 1.69594e+11)
(-4.88163e+11 -3.49297e+11 -2.50091e+11)
(-2.51847e+11 -6.79635e+11 1.77171e+11)
(-4.84798e+11 -6.68003e+11 -1.75736e+11)
(-3.51878e+11 -5.99894e+11 1.70845e+11)
(-1.59872e+11 -5.49631e+11 3.25366e+11)
(-4.69937e+11 -4.59014e+11 -3.76036e+11)
(-2.56158e+11 -6.77522e+11 5.13305e+11)
(-2.74952e+11 6.0242e+11 -4.70204e+10)
(-3.61197e+11 3.41473e+10 -3.02092e+11)
(-3.85862e+11 -6.41774e+10 4.18974e+10)
(-3.41864e+11 -8.24135e+11 2.6032e+11)
(-8.34817e+11 -1.71748e+12 -6.78122e+11)
(-3.54741e+11 -3.74885e+11 2.03719e+11)
(-6.67395e+11 -8.40037e+11 2.64908e+09)
(-3.53148e+11 -7.8423e+11 9.34189e+11)
(-2.56245e+10 -5.33544e+11 3.47821e+11)
(-1.31411e+12 1.01987e+12 -1.08349e+12)
(-7.3462e+10 -4.86592e+11 6.70049e+10)
(-5.64643e+11 2.28068e+10 4.56766e+10)
(-3.89838e+11 -2.76102e+11 7.51032e+10)
(-4.09252e+11 -5.15285e+11 2.0225e+11)
(-2.404e+11 -5.56123e+11 1.65829e+11)
(-5.16628e+11 -1.20312e+12 -8.67329e+11)
(-3.87521e+11 -2.31303e+11 -7.12409e+10)
(6.27894e+10 -5.5179e+11 7.99101e+11)
(1.23946e+11 -4.84131e+11 4.10023e+11)
(9.96168e+10 -4.10109e+11 2.6901e+11)
(-1.90269e+11 -2.55722e+11 5.70039e+09)
(-7.12229e+10 -4.62833e+11 -3.45149e+09)
(-2.08092e+11 -5.58845e+11 -2.97495e+11)
(-2.19917e+11 -5.00573e+11 2.00309e+11)
(-2.1531e+11 -5.04414e+11 1.64365e+11)
(-2.42444e+11 -5.61757e+11 1.34061e+11)
(-3.89607e+11 -6.38448e+11 -1.37871e+11)
)
;
    }
}


// ************************************************************************* //
