/*--------------------------------*- C++ -*----------------------------------*\
| =========                 |                                                 |
| \\      /  F ield         | OpenFOAM: The Open Source CFD Toolbox           |
|  \\    /   O peration     | Version:  2.4.0                                 |
|   \\  /    A nd           | Web:      www.OpenFOAM.org                      |
|    \\/     M anipulation  |                                                 |
\*---------------------------------------------------------------------------*/
FoamFile
{
    version     2.0;
    format      ascii;
    class       Cloud<softParticle>;
    location    "0.05/lagrangian/defaultCloud";
    object      positions;
}
// * * * * * * * * * * * * * * * * * * * * * * * * * * * * * * * * * * * * * //

70
(
(0 0 0) 0
(0 0 0) 0
(0 0 0) 0
(0 0 0) 0
(0 0 0) 0
(0 0 0) 0
(0 0 0) 0
(0 0 0) 0
(0 0 0) 0
(0 0 0) 0
(0 0 0) 0
(0 0 0) 0
(0 0 0) 0
(0 0 0) 0
(0 0 0) 0
(0 0 0) 0
(0 0 0) 0
(0 0 0) 0
(0 0 0) 0
(0 0 0) 0
(0 0 0) 0
(0 0 0) 0
(0 0 0) 0
(0 0 0) 0
(0 0 0) 0
(0 0 0) 0
(0 0 0) 0
(0 0 0) 0
(0 0 0) 0
(0 0 0) 0
(0 0 0) 0
(0 0 0) 0
(0 0 0) 0
(0 0 0) 0
(0 0 0) 0
(0 0 0) 0
(0 0 0) 0
(0 0 0) 0
(0 0 0) 0
(0 0 0) 0
(0 0 0) 0
(0 0 0) 0
(0 0 0) 0
(0 0 0) 0
(0 0 0) 0
(0 0 0) 0
(0 0 0) 0
(0 0 0) 0
(0 0 0) 0
(0 0 0) 0
(0 0 0) 0
(0 0 0) 0
(0 0 0) 0
(0 0 0) 0
(0 0 0) 0
(0 0 0) 0
(0 0 0) 0
(0 0 0) 0
(0 0 0) 0
(0 0 0) 0
(0 0 0) 0
(0 0 0) 0
(0 0 0) 0
(0 0 0) 0
(0 0 0) 0
(2.34375e-09 7.8125e-09 2.5e-09) 0
(2.34375e-09 7.8125e-09 2.5e-09) 0
(1.60462e-17 3.25261e-18 1.92446e-18) 0
(3.15503e-17 1.19262e-17 1.40946e-18) 0
(7.8125e-10 7.8125e-09 7.5e-09) 0
)


// ************************************************************************* //
