/*--------------------------------*- C++ -*----------------------------------*\
| =========                 |                                                 |
| \\      /  F ield         | OpenFOAM: The Open Source CFD Toolbox           |
|  \\    /   O peration     | Version:  2.4.0                                 |
|   \\  /    A nd           | Web:      www.OpenFOAM.org                      |
|    \\/     M anipulation  |                                                 |
\*---------------------------------------------------------------------------*/
FoamFile
{
    version     2.0;
    format      ascii;
    class       volVectorField;
    location    "0.14";
    object      Ub;
}
// * * * * * * * * * * * * * * * * * * * * * * * * * * * * * * * * * * * * * //

dimensions      [0 1 -1 0 0 0 0];

internalField   nonuniform List<vector> 
200
(
(6.66778e+12 -8.21341e+13 1.57501e+13)
(-1.63407e+13 -8.01034e+13 1.12196e+13)
(4.94544e+11 -7.19151e+13 1.91363e+13)
(-2.68399e+13 -5.45961e+13 1.13927e+12)
(-2.05853e+13 -5.68628e+13 1.68822e+13)
(-2.56989e+13 -7.32344e+13 8.88691e+12)
(-1.70024e+13 -1.39218e+14 -9.06673e+12)
(6.55619e+13 -1.64993e+14 -2.99557e+13)
(6.56986e+13 -4.72193e+14 1.07797e+14)
(-2.99584e+13 -7.06492e+13 1.21172e+13)
(-1.26305e+13 -9.24019e+13 1.77778e+13)
(3.13919e+12 -8.75154e+13 2.33226e+13)
(-2.29495e+13 -6.34172e+13 -8.37653e+12)
(-1.04896e+13 -6.07769e+13 1.81638e+13)
(-1.86262e+13 -5.36688e+13 6.87868e+12)
(-3.81848e+13 -1.17711e+14 -1.086e+13)
(1.3466e+14 -3.38273e+14 -9.20111e+13)
(4.49285e+13 -2.50775e+14 6.65658e+13)
(-4.41445e+13 -9.13327e+13 1.05459e+13)
(-3.86929e+13 -2.07931e+14 4.60793e+13)
(1.03095e+12 -1.04097e+14 3.20648e+13)
(-1.59085e+13 -8.12451e+13 -6.11843e+12)
(-2.39776e+12 -8.20718e+13 2.16948e+13)
(-7.33836e+12 -6.93837e+13 -2.30403e+10)
(-1.2921e+13 -9.50998e+13 2.01627e+12)
(9.84404e+13 -3.167e+14 -6.03136e+13)
(3.651e+13 -3.51223e+14 1.48645e+14)
(-5.55215e+13 -1.03768e+14 9.71123e+12)
(-4.85514e+13 -1.71113e+14 4.25388e+13)
(-9.02409e+13 -1.43352e+14 4.87223e+13)
(-1.48867e+13 -1.03875e+14 9.3003e+12)
(-3.27781e+12 -1.03324e+14 3.10814e+13)
(-1.80123e+13 -8.82995e+13 -3.23023e+12)
(-7.00749e+12 -1.0525e+14 1.73885e+13)
(1.25158e+13 -1.45565e+14 -3.15251e+12)
(1.39728e+12 -3.49596e+14 8.94168e+13)
(-1.01279e+14 -9.62748e+13 3.75382e+13)
(-7.7424e+13 -1.74461e+14 3.83633e+13)
(-1.03015e+14 -1.53535e+14 3.64819e+13)
(-3.06082e+13 -3.5327e+14 1.01945e+14)
(-1.17434e+13 -8.04346e+13 1.56383e+13)
(9.90091e+12 -7.26783e+13 2.63854e+13)
(-7.67795e+12 -6.09899e+13 2.27954e+13)
(5.74748e+12 -6.29807e+13 3.89797e+13)
(-1.97213e+13 -4.90516e+13 2.442e+13)
(-1.583e+13 -5.87159e+13 4.03353e+13)
(1.55509e+13 -9.35581e+13 3.79763e+13)
(1.01202e+14 -2.53903e+14 3.28051e+13)
(7.67154e+13 -1.69937e+14 1.25233e+14)
(4.05214e+13 -1.75487e+14 3.48133e+13)
(6.78137e+12 -8.99509e+13 3.44789e+13)
(-5.31019e+12 -7.67003e+13 2.49633e+13)
(8.30901e+12 -7.38405e+13 3.70356e+13)
(-1.45015e+13 -5.23899e+13 1.67981e+13)
(-7.77849e+12 -5.43249e+13 3.80422e+13)
(2.88403e+13 -6.78824e+13 3.69275e+13)
(5.731e+13 -6.23094e+14 -1.47229e+13)
(7.28212e+13 -2.91114e+14 2.05772e+14)
(2.55705e+13 -1.78483e+14 3.66593e+13)
(6.7726e+12 -1.1348e+14 8.31088e+13)
(-8.07101e+12 -8.91319e+13 3.82445e+13)
(8.60601e+12 -9.15515e+13 4.28075e+13)
(-1.09724e+13 -6.73776e+13 1.39196e+13)
(-1.77072e+12 -6.54014e+13 3.87132e+13)
(1.70166e+13 -7.22323e+13 2.51429e+13)
(3.57776e+13 -3.82901e+14 -2.22305e+12)
(6.61209e+13 -2.00335e+14 1.73e+14)
(-3.16785e+13 -1.60435e+14 3.9694e+13)
(-4.45231e+13 -1.3122e+14 7.82228e+13)
(-4.50667e+13 -9.98717e+13 1.3832e+14)
(3.03985e+12 -1.04695e+14 5.80148e+13)
(-8.01628e+12 -8.49335e+13 2.69864e+13)
(-4.12863e+12 -8.38626e+13 4.97098e+13)
(-2.62115e+12 -8.46148e+13 2.54975e+13)
(2.02865e+13 -2.17096e+14 2.69704e+13)
(4.38461e+13 -2.73154e+14 1.76564e+14)
(-6.08917e+12 -1.96222e+14 4.96062e+13)
(-4.69409e+13 -1.12133e+14 5.90995e+13)
(-7.29955e+13 -9.32235e+13 1.54823e+14)
(2.93328e+13 -2.41403e+14 -4.94347e+12)
(5.03226e+12 -6.59722e+13 2.63161e+13)
(9.41906e+11 -5.27804e+13 2.55877e+13)
(1.93909e+13 -6.30837e+13 4.24869e+13)
(6.4008e+12 -4.72651e+13 3.07973e+13)
(2.49227e+13 -4.97658e+13 4.50637e+13)
(1.47164e+13 -3.82928e+13 4.16483e+13)
(3.35607e+13 -4.70897e+13 7.50518e+13)
(4.54477e+13 -4.20779e+13 7.20864e+13)
(9.72167e+13 -1.84248e+14 6.72399e+13)
(8.39302e+13 -5.79495e+13 9.13185e+13)
(-4.22627e+12 -6.003e+13 2.50404e+13)
(1.86864e+13 -7.47905e+13 4.03713e+13)
(5.58609e+12 -5.83896e+13 3.10457e+13)
(2.41219e+13 -6.08576e+13 4.56832e+13)
(1.04629e+13 -4.70131e+13 3.19303e+13)
(2.82528e+13 -5.53114e+13 5.85217e+13)
(3.68196e+13 -5.65877e+13 6.23025e+13)
(8.89725e+13 -1.57771e+14 5.75407e+13)
(8.88682e+13 -7.78442e+13 1.04484e+14)
(8.0443e+13 -9.39922e+13 5.05551e+13)
(1.03928e+13 -8.8125e+13 4.70037e+13)
(3.35819e+12 -6.97313e+13 3.48654e+13)
(1.98948e+13 -7.46713e+13 4.693e+13)
(7.19711e+12 -5.86456e+13 2.78884e+13)
(1.98607e+13 -6.62418e+13 5.12399e+13)
(3.62884e+13 -6.14774e+13 5.69842e+13)
(5.66587e+13 -2.04199e+14 2.52742e+13)
(8.20705e+13 -1.22752e+14 1.09872e+14)
(7.0366e+13 -1.02298e+14 3.91047e+13)
(8.89172e+13 -8.10851e+13 4.1201e+13)
(-7.24715e+12 -7.9358e+13 5.4093e+13)
(1.27104e+13 -8.86049e+13 5.67071e+13)
(1.4433e+12 -7.07019e+13 3.28089e+13)
(1.13661e+13 -7.82163e+13 5.42342e+13)
(2.69994e+13 -7.05806e+13 6.08002e+13)
(5.47803e+13 -1.94427e+14 4.50936e+13)
(7.18212e+13 -1.22995e+14 1.08218e+14)
(4.53394e+13 -1.36415e+14 3.54733e+13)
(7.98156e+13 -1.33737e+14 3.24894e+13)
(6.65494e+13 -2.90063e+13 4.86287e+13)
(-7.96451e+11 -3.98537e+13 1.48582e+13)
(5.64161e+12 -6.04962e+13 2.20828e+13)
(8.25803e+12 -4.22507e+13 2.62104e+13)
(2.69662e+13 -4.78331e+13 3.12264e+13)
(1.89426e+13 -3.21373e+13 3.19009e+13)
(3.95728e+13 -3.35064e+13 3.46608e+13)
(3.38136e+13 -2.01486e+13 3.75751e+13)
(5.54053e+13 -1.5661e+13 4.01805e+13)
(6.07319e+13 -7.19272e+12 4.52646e+13)
(7.95517e+13 -4.1708e+13 3.38606e+13)
(6.90062e+12 -6.69403e+13 2.61277e+13)
(7.32751e+12 -4.65025e+13 2.11877e+13)
(2.64136e+13 -6.48751e+13 4.00714e+13)
(1.85358e+13 -4.22148e+13 2.98101e+13)
(4.08907e+13 -4.48254e+13 3.89347e+13)
(3.36334e+13 -2.99545e+13 3.36444e+13)
(5.7483e+13 -3.00813e+13 4.29508e+13)
(6.06771e+13 -1.57215e+13 5.27522e+13)
(8.69467e+13 -1.72553e+13 4.80233e+13)
(8.65459e+13 -4.23772e+12 4.99171e+13)
(-9.6446e+11 -5.55316e+13 2.10628e+13)
(2.37421e+13 -7.5651e+13 3.71471e+13)
(1.53309e+13 -5.54034e+13 3.07258e+13)
(3.65279e+13 -6.0296e+13 4.32605e+13)
(2.93385e+13 -4.40004e+13 3.14493e+13)
(5.63391e+13 -4.523e+13 4.91077e+13)
(6.09893e+13 -2.98649e+13 4.63649e+13)
(8.07481e+13 -6.80342e+13 4.85711e+13)
(1.03684e+14 -7.72314e+12 5.92803e+13)
(1.23822e+14 -8.67981e+12 3.85924e+13)
(1.23196e+13 -8.93921e+13 4.84161e+13)
(7.29243e+12 -6.1809e+13 3.3732e+13)
(2.74788e+13 -7.30672e+13 4.55107e+13)
(2.04949e+13 -6.10947e+13 3.28222e+13)
(4.29204e+13 -6.62026e+13 5.20092e+13)
(5.797e+13 -4.66358e+13 4.78932e+13)
(8.11276e+13 -9.11546e+13 4.91079e+13)
(1.0681e+14 -4.63512e+13 4.43318e+13)
(1.26626e+14 -4.24225e+13 2.92461e+13)
(1.44164e+14 -7.12992e+12 1.46089e+13)
(-4.78729e+12 -6.93768e+13 1.77349e+13)
(9.69111e+12 -4.21691e+13 1.42959e+13)
(1.75295e+13 -4.20994e+13 7.45109e+12)
(2.54848e+13 -3.33843e+13 8.50353e+12)
(3.50162e+13 -3.2104e+13 1.41958e+13)
(3.96693e+13 -2.26889e+13 7.69187e+12)
(4.95691e+13 -1.92071e+13 1.77942e+13)
(5.4008e+13 -1.74795e+13 6.37092e+12)
(6.49761e+13 -5.34387e+12 1.1817e+13)
(7.01962e+13 2.87644e+12 6.61823e+12)
(2.52611e+12 -4.606e+13 5.71639e+12)
(9.54663e+12 -6.5885e+13 1.70304e+13)
(2.05121e+13 -4.36701e+13 1.4183e+13)
(3.67437e+13 -4.80697e+13 1.29471e+13)
(4.12025e+13 -2.96953e+13 1.55391e+13)
(6.0484e+13 -2.98639e+13 1.38589e+13)
(5.42025e+13 -3.07473e+13 1.41133e+13)
(7.58311e+13 -1.60553e+13 1.56714e+13)
(7.76948e+13 1.36246e+12 9.335e+12)
(7.99138e+13 3.98421e+12 1.77312e+12)
(8.6802e+12 -8.00172e+13 1.97713e+13)
(1.38977e+13 -4.99069e+13 1.23554e+13)
(2.79757e+13 -6.63431e+13 2.1944e+13)
(3.20986e+13 -4.20805e+13 1.90133e+13)
(4.90455e+13 -4.3975e+13 1.70115e+13)
(5.26063e+13 -2.67353e+13 1.89059e+13)
(6.78274e+13 -2.55088e+13 1.31237e+13)
(6.89479e+13 -7.71222e+12 1.66834e+13)
(8.41029e+13 -6.60531e+10 3.2353e+11)
(8.70051e+13 1.42976e+13 9.89435e+12)
(1.5478e+12 -6.61457e+13 1.6313e+13)
(2.55541e+13 -7.78594e+13 2.74749e+13)
(2.46627e+13 -5.02508e+13 2.09211e+13)
(4.32162e+13 -5.86709e+13 2.49804e+13)
(4.6014e+13 -3.91021e+13 2.21176e+13)
(6.65125e+13 -3.85952e+13 1.86549e+13)
(7.08727e+13 -2.24388e+13 2.00889e+13)
(8.85213e+13 -1.72335e+13 6.37098e+12)
(8.9468e+13 4.3419e+12 1.51235e+13)
(9.97286e+13 1.03707e+13 -1.99229e+12)
)
;

boundaryField
{
    inlet
    {
        type            fixedValue;
        value           uniform (6 0 0);
    }
    outlet
    {
        type            zeroGradient;
    }
    bottom
    {
        type            fixedValue;
        value           uniform (0 0 0);
    }
    top
    {
        type            symmetryPlane;
    }
    side1
    {
        type            symmetryPlane;
    }
    side2
    {
        type            symmetryPlane;
    }
    procBoundary16to8
    {
        type            processor;
        value           nonuniform List<vector> 
50
(
(-2.49747e+13 -9.42067e+13 1.01567e+13)
(1.57353e+13 -7.78084e+13 1.37899e+13)
(-1.33077e+13 -6.11718e+13 9.9988e+12)
(2.26468e+12 -6.1479e+13 2.18602e+13)
(-2.31374e+13 -5.41233e+13 1.24037e+13)
(-1.30508e+13 -6.26048e+13 1.53691e+13)
(-1.63429e+13 -1.09571e+14 1.92422e+12)
(-1.4585e+13 -9.44817e+13 -1.11543e+12)
(5.00049e+13 -1.54018e+14 -2.42938e+12)
(6.3501e+13 -3.11115e+14 2.64143e+13)
(1.27248e+13 -8.25148e+13 6.1568e+12)
(-5.67392e+12 -5.94011e+13 1.74071e+13)
(1.07337e+13 -6.28926e+13 3.36967e+13)
(-8.39438e+12 -5.57267e+13 2.98185e+13)
(6.38772e+12 -5.7402e+13 3.78714e+13)
(-1.26197e+13 -5.47217e+13 3.07522e+13)
(3.09752e+12 -7.13629e+13 3.14399e+13)
(1.37366e+13 -9.50373e+13 2.6628e+13)
(1.04394e+14 -4.35293e+14 3.38431e+13)
(5.31977e+13 -1.10912e+14 8.33072e+13)
(-2.26778e+12 -4.89294e+13 2.60888e+13)
(4.22436e+12 -5.36717e+13 2.02953e+13)
(2.34035e+12 -4.44926e+13 2.88247e+13)
(1.99566e+13 -5.20097e+13 4.05791e+13)
(8.22724e+12 -3.95493e+13 3.33197e+13)
(2.47667e+13 -3.97949e+13 4.44717e+13)
(1.16964e+13 -3.24784e+13 4.63405e+13)
(2.3739e+13 -3.1073e+13 5.01344e+13)
(2.55292e+13 -4.67296e+13 5.72756e+13)
(7.93696e+13 -1.82232e+14 5.71648e+13)
(-3.83087e+12 -5.97879e+13 1.60312e+13)
(3.76557e+12 -4.02656e+13 2.32037e+13)
(1.29819e+13 -4.43614e+13 2.08577e+13)
(1.37949e+13 -3.22719e+13 2.40441e+13)
(2.98372e+13 -4.10086e+13 3.57293e+13)
(2.14096e+13 -2.59911e+13 3.35758e+13)
(3.83802e+13 -2.631e+13 3.73256e+13)
(3.05043e+13 -1.69912e+13 4.05568e+13)
(4.9114e+13 -6.94683e+12 3.38894e+13)
(3.88259e+13 -8.19502e+12 4.49863e+13)
(6.32744e+12 -5.75549e+13 2.9583e+13)
(1.10501e+13 -4.28322e+13 1.04096e+13)
(1.7082e+13 -3.29634e+13 5.64145e+12)
(2.00751e+13 -3.51748e+13 1.40473e+13)
(2.75639e+13 -2.90014e+13 3.95489e+12)
(3.18658e+13 -2.56269e+13 1.84442e+13)
(3.77934e+13 -2.29848e+13 6.52449e+12)
(4.52086e+13 -1.19772e+13 1.6115e+13)
(5.05265e+13 -8.81126e+12 5.90739e+12)
(5.39329e+13 -3.145e+12 1.35063e+13)
)
;
    }
    procBoundary16to17
    {
        type            processor;
        value           nonuniform List<vector> 
20
(
(-1.32315e+13 -1.9664e+14 3.24835e+13)
(-5.72365e+13 -1.46868e+14 4.31167e+13)
(1.89391e+13 -3.84534e+14 1.23122e+14)
(8.687e+13 -9.97122e+14 -1.25902e+14)
(2.06839e+13 -9.40375e+13 7.44756e+13)
(-1.11746e+13 -9.6013e+13 1.16011e+14)
(2.10155e+13 -1.9837e+14 2.83493e+13)
(-5.02627e+13 -8.929e+13 9.97315e+13)
(7.00037e+13 -1.36266e+14 4.54077e+13)
(8.53934e+13 -5.0696e+13 5.09106e+13)
(8.24133e+13 6.13671e+12 7.28494e+13)
(1.37138e+14 -1.26563e+14 -8.26115e+13)
(9.23852e+13 -3.48622e+12 5.37778e+13)
(9.1978e+13 -3.78887e+13 3.12113e+13)
(1.1895e+14 1.59936e+13 2.08097e+13)
(1.60265e+14 3.96152e+12 1.22055e+13)
(7.0007e+13 3.30755e+12 9.98321e+12)
(8.54611e+13 1.96138e+13 1.00112e+13)
(9.40639e+13 1.46347e+13 -3.63197e+12)
(9.84242e+13 3.31056e+13 3.77328e+12)
)
;
    }
    procBoundary16to24
    {
        type            processor;
        value           nonuniform List<vector> 
50
(
(-1.44651e+13 -1.23685e+14 4.82426e+13)
(-2.44972e+13 -9.51164e+13 -5.58542e+12)
(-2.40505e+13 -1.176e+14 2.88878e+13)
(-3.11117e+13 -1.19539e+14 2.67565e+11)
(-2.67734e+13 -1.96364e+14 4.1976e+13)
(-9.61165e+13 -2.08378e+14 1.95053e+13)
(-1.03182e+14 -2.02696e+14 3.91663e+13)
(-1.25737e+14 -1.84363e+14 3.27001e+13)
(-1.02059e+14 -2.8843e+14 7.09088e+13)
(-6.92995e+12 -7.08104e+14 -1.03684e+14)
(-8.62673e+12 -1.01813e+14 4.92577e+13)
(-8.5802e+12 -8.97518e+13 6.69181e+13)
(-2.87931e+13 -8.40171e+13 2.89827e+13)
(-1.65251e+13 -1.24518e+14 5.12475e+13)
(1.11087e+13 -2.34402e+14 1.38e+14)
(-2.1144e+13 -2.09449e+14 1.15021e+14)
(-5.09181e+13 -1.17441e+14 6.28142e+13)
(-1.298e+14 -5.09414e+13 1.30877e+14)
(1.34398e+13 -2.89136e+14 -4.11459e+13)
(-1.00511e+14 -8.05567e+13 8.21711e+13)
(3.91878e+12 -9.12001e+13 7.59518e+13)
(-3.72846e+12 -7.63021e+13 5.11041e+13)
(-7.26724e+12 -7.6599e+13 6.63888e+13)
(9.30679e+11 -7.10058e+13 5.98305e+13)
(2.18632e+13 -1.90147e+14 7.09078e+13)
(3.99098e+13 -9.08771e+13 8.63115e+13)
(2.3464e+13 -1.50453e+14 4.33933e+13)
(5.52231e+13 -1.64419e+14 6.93202e+11)
(1.50328e+13 -4.35595e+13 3.39753e+13)
(1.23679e+14 -1.71932e+14 -5.35376e+13)
(-8.15845e+12 -6.86701e+13 5.75284e+13)
(1.34426e+13 -8.18201e+13 5.8564e+13)
(6.49266e+12 -6.53034e+13 4.1038e+13)
(1.68306e+13 -7.60864e+13 5.98824e+13)
(3.07114e+13 -6.18011e+13 5.58319e+13)
(5.30911e+13 -1.27116e+14 5.88076e+13)
(7.10946e+13 -7.33781e+13 3.37707e+13)
(7.13941e+13 -1.15994e+14 3.40287e+13)
(1.15911e+14 -7.65129e+13 -3.85577e+12)
(1.34712e+14 -6.4641e+13 7.88591e+12)
(1.37046e+13 -9.57877e+13 4.2514e+13)
(1.26355e+13 -5.69444e+13 2.64231e+13)
(3.45148e+13 -6.55743e+13 3.24589e+13)
(3.30354e+13 -4.60721e+13 2.67629e+13)
(5.44155e+13 -5.02411e+13 3.12064e+13)
(6.01903e+13 -3.50986e+13 2.98856e+13)
(8.2773e+13 -3.33925e+13 2.26561e+13)
(9.59795e+13 -1.34234e+13 2.05846e+13)
(1.20486e+14 -9.6759e+12 9.72278e+12)
(1.17699e+14 -1.48182e+13 2.38293e+13)
)
;
    }
}


// ************************************************************************* //
