/*--------------------------------*- C++ -*----------------------------------*\
| =========                 |                                                 |
| \\      /  F ield         | OpenFOAM: The Open Source CFD Toolbox           |
|  \\    /   O peration     | Version:  2.4.0                                 |
|   \\  /    A nd           | Web:      www.OpenFOAM.org                      |
|    \\/     M anipulation  |                                                 |
\*---------------------------------------------------------------------------*/
FoamFile
{
    version     2.0;
    format      ascii;
    class       Cloud<softParticle>;
    location    "0.03/lagrangian/defaultCloud";
    object      positions;
}
// * * * * * * * * * * * * * * * * * * * * * * * * * * * * * * * * * * * * * //

11
(
(0.0452563 0.00798711 0.00481351) 102
(0.0487412 0.00986206 0.00440749) 117
(0.0454928 0.00551249 0.000912128) 2
(0.046725 0.00517321 0.00402604) 84
(0.0485845 0.0059784 0.00744369) 127
(0.0466783 0.00522766 0.00141376) 4
(0.0461219 0.00656753 0.00020393) 13
(0.0489498 0.00558729 0.00242732) 48
(0.0476282 0.00635084 0.00257563) 56
(0.0477412 0.00756624 0.00696917) 146
(0.0467052 0.00562363 0.00041337) 4
)


// ************************************************************************* //
