/*--------------------------------*- C++ -*----------------------------------*\
| =========                 |                                                 |
| \\      /  F ield         | OpenFOAM: The Open Source CFD Toolbox           |
|  \\    /   O peration     | Version:  2.4.0                                 |
|   \\  /    A nd           | Web:      www.OpenFOAM.org                      |
|    \\/     M anipulation  |                                                 |
\*---------------------------------------------------------------------------*/
FoamFile
{
    version     2.0;
    format      ascii;
    class       vectorField;
    location    "0.03/lagrangian/defaultCloud";
    object      U;
}
// * * * * * * * * * * * * * * * * * * * * * * * * * * * * * * * * * * * * * //


11
(
(3.22839 2.72829 3.08107)
(6.36411 4.8479 2.14103)
(-8.36757 1.45942 -0.221168)
(-8.07646 0.4304 0.866745)
(-5.43163 7.56667 -1.28275)
(-8.96804 -1.14536 0.74708)
(13.2423 0.424022 0.0662925)
(10.0943 -2.23929 0.961593)
(-11.3848 -0.287077 1.9479)
(-9.60839 2.4564 -2.50317)
(8.90732 0.685365 0.613297)
)


// ************************************************************************* //
