/*--------------------------------*- C++ -*----------------------------------*\
| =========                 |                                                 |
| \\      /  F ield         | OpenFOAM: The Open Source CFD Toolbox           |
|  \\    /   O peration     | Version:  2.4.0                                 |
|   \\  /    A nd           | Web:      www.OpenFOAM.org                      |
|    \\/     M anipulation  |                                                 |
\*---------------------------------------------------------------------------*/
FoamFile
{
    version     2.0;
    format      ascii;
    class       surfaceScalarField;
    location    "0.1";
    object      phib;
}
// * * * * * * * * * * * * * * * * * * * * * * * * * * * * * * * * * * * * * //

dimensions      [0 3 -1 0 0 0 0];

internalField   nonuniform List<scalar> 
490
(
-0.88326
0.00797726
0.873741
0.946531
-0.998917
-0.766797
3.12398
-1.19233
-0.986835
4.95471
-1.16225
-0.668553
6.73173
-0.720579
-1.05645
8.08966
-0.363086
-0.994847
10.4704
-0.319499
-2.06126
11.9123
0.308602
-1.75052
14.0907
0.209077
-2.38747
0.198733
-1.82985
1.67828
-0.832255
-0.838593
2.70499
-0.950546
-1.07404
4.81797
-2.67024
-0.635071
6.42156
-1.88895
-0.876896
8.10183
-1.7941
-0.606755
10.3121
-1.43445
-1.1389
11.0608
-0.625051
-0.443153
12.8045
-0.345384
-1.08975
13.2968
0.418195
-0.701387
0.10947
-1.01664
1.41314
-0.445431
-1.79957
4.27742
-2.92109
-0.893726
6.26429
-2.66717
-1.98995
8.21213
-2.97483
-0.861962
9.87811
-2.16096
-1.29912
10.7941
-1.84146
-0.508975
12.3216
-1.26634
-0.886248
12.731
-0.542842
-0.211956
14.311
-0.522849
-0.638902
0.456548
-0.124616
4.00712
-1.26157
6.05227
-2.88976
7.24329
-1.0074
9.89873
-3.04028
10.598
-0.653214
11.5387
-0.77111
12.1595
-0.287104
13.2585
-0.492476
13.2584
-0.0808048
0.162388
0.154008
2.47297
-1.81649
-0.00771044
0.623108
-1.22682
-0.357558
1.01534
-1.6523
2.17958
-1.47527
-1.73042
3.68893
-0.464119
-2.10168
6.79383
-1.35512
-2.74462
9.26164
-1.4415
-3.08757
10.9783
-0.357552
-3.10965
12.5806
-0.95927
-3.03053
-0.493837
-2.90287
0.914504
1.61526
-0.895432
-0.523724
2.19482
-1.20752
1.62436
-0.820162
-0.947645
2.62166
-2.45589
-0.893586
5.98535
-3.2991
-1.13547
6.64884
-2.25532
-0.902187
9.08789
-3.20905
-1.11466
10.1183
-1.34398
-1.13371
11.8621
-1.94856
-1.45593
-1.40072
-1.64384
-0.640678
1.66776
-1.21138
0.371539
1.24542
-0.956541
2.4388
-3.93554
-0.941828
4.42061
-3.99665
-1.30302
5.18857
-4.79516
-0.571017
8.00055
-4.69542
-0.880852
8.56162
-4.12763
-0.52874
11.8752
-4.29691
-0.572637
12.2193
-2.224
-0.707514
-2.94651
-0.380464
1.32173
-2.02284
5.36874
-1.79792
6.26331
-2.01302
5.65342
-1.0966
6.73206
-1.37953
7.50519
-0.513968
9.10471
-0.745091
9.48264
-0.256493
12.0857
-0.0611714
-0.29691
-2.02387
1.47079
-1.26307
-3.48199
1.63133
-1.40003
-2.60657
-0.948651
-1.57907
-1.90253
-0.867049
-1.56741
0.687224
-2.66572
-2.02572
2.72769
-2.7455
-2.03959
5.088
-3.06064
-2.38723
6.81187
-2.56799
-2.26553
9.31853
-2.94601
-2.59118
-2.19672
-2.52073
-1.3737
3.17378
-1.22471
-0.902861
0.83525
-0.88227
-1.33932
-0.696524
-0.763316
0.969852
-3.04537
-1.02444
2.50543
-4.68135
-0.65542
4.98341
-4.71842
-1.40724
6.26047
-4.64189
-0.810487
8.79862
-4.68712
-1.55272
9.86754
-4.29093
-1.17993
-4.79134
-1.65003
0.934223
1.73785
-0.709651
0.114396
1.63762
-0.939079
1.01144
-1.40093
-1.13447
2.64408
-5.2606
-0.720425
4.00226
-5.59304
-1.0175
5.4029
-6.52736
-0.472557
7.45739
-6.01789
-1.20723
8.76755
-6.17119
-0.398728
10.7646
-5.86067
-1.13478
-5.71678
-0.448312
0.593622
-1.28635
1.07054
-1.45197
4.50245
-1.77814
5.16382
-1.84267
5.96749
-0.989898
6.79611
-1.13387
7.94914
-0.482203
9.5154
-1.08169
10.6954
-0.0881348
-0.79096
-3.04604
2.54026
-0.757265
-4.42218
0.598639
-0.622528
-5.08188
0.0395942
-0.958966
-4.05095
-1.45942
-1.13893
-2.21399
-2.85141
-1.01126
0.488945
-3.14425
-1.59828
3.06083
-3.74933
-1.20979
5.93963
-3.43595
-1.70838
8.15515
-3.49431
-1.31238
-3.62198
-1.729
-0.820832
2.26882
-0.132432
-1.83501
1.49448
-0.76394
-1.2924
-0.614787
-0.651541
-0.580424
-2.6233
-0.572535
1.01608
-4.28388
-0.819466
3.01195
-5.60578
-0.941578
5.4013
-5.55221
-1.39696
7.09195
-6.02878
-0.65054
9.40925
-5.70028
-1.29125
-5.99251
-0.6622
0.421017
1.96365
-0.825482
0.953125
0.160746
-0.137451
1.48928
-1.23811
-1.0473
2.50862
-3.42218
-0.940889
4.25414
-6.21559
-0.83131
5.19168
-6.52385
-0.492019
6.59127
-7.27483
-0.884198
8.36229
-7.15252
-1.046
9.51533
-7.62938
-0.358723
-7.3754
-0.945609
1.53935
-0.436538
3.58717
-1.44786
4.42894
-1.71785
6.78769
-1.36864
7.13331
-1.25067
7.69147
-0.785751
8.4129
-0.734997
9.13955
-0.576658
10.5298
-0.785067
-0.11723
-2.59582
1.83857
-4.96665
1.7483
-6.25874
0.333125
-6.16285
-1.23483
-4.32619
-2.84792
-1.07545
-4.84902
1.99634
-4.28158
5.03557
-4.74762
7.86326
-4.14007
-4.29349
-0.968337
2.67449
-1.50924
1.52527
-1.84378
0.0161259
-0.69706
-2.95408
0.552663
-4.9171
3.09656
-8.33449
5.25521
-7.83719
7.07791
-7.22086
8.84257
-7.19597
-6.79257
0.797717
1.05131
2.17483
0.0107003
4.65577
-3.51211
6.15976
-5.39897
6.32423
-5.91288
6.802
-9.30429
7.58141
-9.50079
8.42212
-9.10758
9.70056
-8.83313
-8.87159
3.54949
6.10529
8.1914
9.14431
10.0406
9.34873
9.50887
9.87865
10.4001
)
;

boundaryField
{
    inlet
    {
        type            fixedValue;
        value           nonuniform List<scalar> 
20
(
-1.5e-05
-1.5e-05
-1.5e-05
-1.5e-05
-1.5e-05
-1.5e-05
-1.5e-05
-1.5e-05
-1.5e-05
-1.5e-05
-1.5e-05
-1.5e-05
-1.5e-05
-1.5e-05
-1.5e-05
-1.5e-05
-1.5e-05
-1.5e-05
-1.5e-05
-1.5e-05
)
;
    }
    outlet
    {
        type            calculated;
        value           nonuniform 0();
    }
    bottom
    {
        type            fixedValue;
        value           uniform 0;
    }
    top
    {
        type            symmetryPlane;
        value           nonuniform List<scalar> 
40
(
-2.91804e-15
-2.60333e-15
-1.71139e-15
-2.03342e-15
-1.87106e-15
-1.85491e-15
-1.75914e-15
-2.25018e-15
-1.62161e-15
-2.24784e-15
-2.78399e-15
-2.26731e-15
-1.59938e-15
-2.43558e-15
-2.85291e-15
-1.45064e-15
-1.57625e-15
-3.41653e-15
-2.69357e-15
-1.19596e-15
-1.86307e-15
-4.5962e-15
-2.61825e-15
-1.21351e-15
-2.51561e-15
-2.08714e-15
-1.93694e-15
-1.05557e-15
-1.7933e-15
-1.27678e-15
-9.17435e-16
-7.552e-16
-1.3467e-15
-1.00933e-15
-8.34424e-16
-7.05397e-16
-1.10411e-15
-9.11792e-16
-7.49997e-16
-6.83571e-16
)
;
    }
    side1
    {
        type            symmetryPlane;
        value           uniform 0;
    }
    side2
    {
        type            symmetryPlane;
        value           nonuniform 0();
    }
    procBoundary0to1
    {
        type            processor;
        value           nonuniform List<scalar> 
20
(
15.7219
14.4027
14.0885
14.7949
14.1475
13.3962
14.0209
12.508
11.1331
12.4683
11.7578
12.3037
10.9854
10.7919
11.3955
11.2599
10.4278
10.6794
10.834
11.4084
)
;
    }
    procBoundary0to8
    {
        type            processor;
        value           nonuniform List<scalar> 
50
(
-3.19096
-2.07648
-2.85078
-2.58998
-2.20705
-2.01106
-1.59995
-1.14939
-0.441934
-1.24232
1.10732
-3.89343
-3.8245
-5.33044
-5.14748
-5.72569
-5.26916
-4.91084
-4.84666
-2.90959
0.407754
0.814745
-5.06771
-5.1759
-6.78635
-6.73607
-7.43381
-6.91226
-7.01373
-6.83105
-0.425495
-1.89118
-2.14016
-6.25496
-6.30043
-7.43013
-7.74347
-8.38419
-8.32275
-8.77922
-2.93471
-3.99296
-7.31607
-7.72052
-8.05984
-9.39817
-10.3959
-10.054
-10.1397
-9.99706
)
;
    }
}


// ************************************************************************* //
