/*--------------------------------*- C++ -*----------------------------------*\
| =========                 |                                                 |
| \\      /  F ield         | OpenFOAM: The Open Source CFD Toolbox           |
|  \\    /   O peration     | Version:  2.4.0                                 |
|   \\  /    A nd           | Web:      www.OpenFOAM.org                      |
|    \\/     M anipulation  |                                                 |
\*---------------------------------------------------------------------------*/
FoamFile
{
    version     2.0;
    format      ascii;
    class       volVectorField;
    location    "0.1";
    object      Ub;
}
// * * * * * * * * * * * * * * * * * * * * * * * * * * * * * * * * * * * * * //

dimensions      [0 1 -1 0 0 0 0];

internalField   nonuniform List<vector> 
200
(
(-1.45305e+06 1.31348e+06 -2.31637e+06)
(816755 -1.21185e+06 781588)
(199348 -742520 -4.13162e+06)
(2.1394e+06 -746767 998137)
(1.96278e+06 -342431 -3.27509e+06)
(3.26864e+06 97014.2 1.33646e+06)
(3.37158e+06 -609860 -3.909e+06)
(4.84127e+06 1.00579e+06 664782)
(4.79445e+06 -1.30957e+06 -3.86787e+06)
(6.50533e+06 2.46886e+06 414162)
(1.62641e+06 -1.61953e+06 46172.9)
(-502698 -210682 -4.65981e+06)
(2.45321e+06 -1.41914e+06 580973)
(1.77241e+06 -1.23948e+06 -4.28458e+06)
(3.21844e+06 -1.05272e+06 1.12179e+06)
(3.42675e+06 -819380 -4.67488e+06)
(4.58157e+06 -174459 1.50833e+06)
(4.45214e+06 -562477 -4.09922e+06)
(5.67173e+06 1.54846e+06 1.56282e+06)
(4.94482e+06 -2.16829e+06 -3.00876e+06)
(-2.1117e+06 709079 -5.75853e+06)
(2.35229e+06 -1.50135e+06 122082)
(1.64501e+06 -2.58071e+06 -6.69453e+06)
(3.16381e+06 -1.77856e+06 906245)
(3.50962e+06 -1.71284e+06 -5.12025e+06)
(4.29599e+06 -1.54195e+06 1.07394e+06)
(4.49541e+06 -718139 -4.40783e+06)
(5.17986e+06 -145816 1.47706e+06)
(5.20323e+06 -903406 -3.65391e+06)
(6.0864e+06 2.22401e+06 1.60619e+06)
(1.81331e+06 -1.23342e+06 -306298)
(1.66825e+06 -2.56948e+06 -7.72558e+06)
(2.73248e+06 -1.67058e+06 686774)
(3.2359e+06 -2.82921e+06 -9.14063e+06)
(4.41103e+06 -1.85671e+06 1.04654e+06)
(4.35767e+06 -1.31645e+06 -3.7582e+06)
(4.7071e+06 -1.39982e+06 1.15782e+06)
(5.20579e+06 -595528 -3.84616e+06)
(5.21988e+06 57146.2 1.23374e+06)
(5.62017e+06 -1.34964e+06 -2.0102e+06)
(668374 -5931.08 1.53898e+06)
(-852817 116626 -2.96179e+06)
(482900 1.60099e+06 1.04234e+06)
(-132045 -1.45018e+06 -3.21491e+06)
(1.62305e+06 1.01965e+06 -84681.5)
(1.74947e+06 -1.44591e+06 -4.47841e+06)
(3.31146e+06 -1.10095e+06 -2.02649e+06)
(3.93974e+06 -977456 -5.35425e+06)
(4.86882e+06 -516059 -2.22239e+06)
(5.2191e+06 -998540 -5.00527e+06)
(-1.70099e+06 3.6486e+06 -2.65109e+06)
(1.28556e+06 186324 1.11175e+06)
(-700897 89341.7 -2.81039e+06)
(1.2847e+06 -1.36893e+06 1.34618e+06)
(1.59639e+06 -1.65937e+06 -2.96697e+06)
(2.63658e+06 -1.07224e+06 1.35004e+06)
(2.90333e+06 -1.52032e+06 -2.83931e+06)
(4.19785e+06 -202638 1.05732e+06)
(4.01152e+06 -1.5467e+06 -3.53377e+06)
(5.36728e+06 -312267 180698)
(2.24976e+06 -1.37856e+06 382892)
(-2.98113e+06 3.55293e+06 -2.96092e+06)
(2.30906e+06 -2.28551e+06 712829)
(1.01562e+06 -2.25443e+06 -3.44416e+06)
(1.76899e+06 -3.97853e+06 1.39276e+06)
(2.95452e+06 -2.33566e+06 -2.55966e+06)
(2.96604e+06 -3.68569e+06 1.84504e+06)
(4.2625e+06 -1.72073e+06 -2.17889e+06)
(4.80788e+06 -1.53003e+06 1.74989e+06)
(5.29135e+06 -1.66965e+06 -2.03478e+06)
(-4.57081e+06 4.67237e+06 -3.86515e+06)
(3.77065e+06 -1.72901e+06 -691357)
(1.8647e+06 -2.97372e+06 -3.64318e+06)
(2.25982e+06 -4.4362e+06 692829)
(2.97261e+06 -3.44669e+06 -3.00908e+06)
(2.12786e+06 -5.32822e+06 1.45643e+06)
(4.10519e+06 -2.733e+06 -2.08853e+06)
(2.89175e+06 -5.2001e+06 2.34262e+06)
(4.95819e+06 -1.79957e+06 -1.54333e+06)
(4.37176e+06 -3.14441e+06 2.24471e+06)
(-1.7675e+06 1.13808e+06 -4.1796e+06)
(-608708 1.22949e+06 177321)
(-1.72928e+06 -798003 -4.57947e+06)
(-756431 -52288.3 -696050)
(-205914 -939498 -4.54851e+06)
(414243 -2.46117e+06 -1.8889e+06)
(2.01777e+06 -990884 -4.93277e+06)
(1.93821e+06 -3.09515e+06 -2.10661e+06)
(3.58473e+06 -734251 -5.28591e+06)
(3.7274e+06 -2.68377e+06 -2.3181e+06)
(515945 434005 582163)
(-1.43289e+06 1.37076e+06 -3.48313e+06)
(-162079 -1.24667e+06 767457)
(23979 -1.36431e+06 -2.90052e+06)
(237394 -3.86251e+06 290515)
(2.22638e+06 -2.1478e+06 -3.19193e+06)
(1.4516e+06 -4.30289e+06 204619)
(3.79134e+06 -1.38799e+06 -3.65921e+06)
(2.95205e+06 -4.52101e+06 -13285.2)
(5.2366e+06 -1.15822e+06 -4.10926e+06)
(-2.70063e+06 4.65999e+06 -3.02015e+06)
(1.96927e+06 -1.04584e+06 435088)
(-785789 48694.8 -2.61679e+06)
(964845 -4.27011e+06 94677.6)
(1.93236e+06 -3.58216e+06 -2.47644e+06)
(884820 -5.6059e+06 456274)
(3.6102e+06 -3.06211e+06 -2.87103e+06)
(2.14845e+06 -6.13203e+06 926338)
(5.00801e+06 -2.13829e+06 -3.20476e+06)
(3.42046e+06 -6.49544e+06 1.23415e+06)
(3.64684e+06 -1.92798e+06 -623964)
(-3.95573e+06 4.18915e+06 -3.35153e+06)
(3.59934e+06 -3.00242e+06 -1.79943e+06)
(1.8171e+06 -3.6394e+06 -2.96729e+06)
(1.5838e+06 -5.506e+06 -402604)
(3.5579e+06 -4.70203e+06 -2.46311e+06)
(1.6718e+06 -6.6149e+06 372907)
(4.76375e+06 -3.66228e+06 -2.72773e+06)
(2.76139e+06 -7.30407e+06 1.52128e+06)
(5.85857e+06 -2.5935e+06 -2.79474e+06)
(-724126 116710 715427)
(-1.98839e+06 689209 -3.78507e+06)
(-1.93612e+06 -630896 269303)
(-1.74562e+06 -352414 -3.31553e+06)
(-1.61306e+06 -2.37985e+06 -782380)
(174437 -1.55399e+06 -3.23088e+06)
(121718 -3.39007e+06 -1.31592e+06)
(2.4767e+06 -1.40115e+06 -3.6224e+06)
(2.163e+06 -3.73938e+06 -1.29028e+06)
(4.35585e+06 -919225 -4.0189e+06)
(-1.68579e+06 3.77201e+06 -3.47983e+06)
(54726.5 -269829 940371)
(-1.11594e+06 499003 -2.64669e+06)
(-322222 -2.5241e+06 -23846)
(463613 -2.60473e+06 -1.85834e+06)
(217295 -4.18725e+06 -700884)
(2.42474e+06 -3.29972e+06 -2.31339e+06)
(1.65997e+06 -4.84129e+06 -367422)
(4.13908e+06 -2.45715e+06 -2.90459e+06)
(3.21775e+06 -5.46473e+06 -114078)
(1.57769e+06 -927042 973679)
(-1.41929e+06 2.45467e+06 -2.52362e+06)
(1.60148e+06 -2.1966e+06 -472691)
(251523 -1.75216e+06 -1.73458e+06)
(1.42918e+06 -4.75801e+06 -345360)
(2.44723e+06 -4.74666e+06 -1.70385e+06)
(1.48692e+06 -5.59256e+06 -446124)
(3.85896e+06 -4.65847e+06 -2.00344e+06)
(2.69342e+06 -6.62338e+06 182728)
(5.03611e+06 -3.97112e+06 -2.37361e+06)
(-3.35761e+06 4.10268e+06 -3.11687e+06)
(3.91874e+06 -2.53722e+06 -699297)
(-960699 276607 -2.50679e+06)
(3.93112e+06 -4.30775e+06 -2.20359e+06)
(2.68103e+06 -4.71969e+06 -1.9989e+06)
(2.41365e+06 -5.71442e+06 -580177)
(3.98492e+06 -5.92489e+06 -1.67746e+06)
(2.59965e+06 -6.80001e+06 -196226)
(4.79898e+06 -5.50735e+06 -1.79521e+06)
(3.50811e+06 -7.89224e+06 685783)
(-1.701e+06 3.64557e+06 -2.63569e+06)
(-1.10674e+06 -1.00717e+06 2.13102e+06)
(-2.66439e+06 836453 -2.60966e+06)
(-2.61504e+06 -1.30453e+06 349311)
(-1.96619e+06 -1.10648e+06 -1.71048e+06)
(-1.26739e+06 -2.43465e+06 -811064)
(486996 -2.86409e+06 -1.47641e+06)
(1.12954e+06 -3.53798e+06 -581327)
(2.90256e+06 -2.30057e+06 -1.86499e+06)
(3.23776e+06 -3.58267e+06 -250164)
(401908 -1.5502e+06 2.95649e+06)
(-1.22149e+06 3.51608e+06 -2.69454e+06)
(-581931 -857071 956327)
(-955432 -1.226e+06 -1.28298e+06)
(202085 -4.42726e+06 -196651)
(1.49789e+06 -6.52201e+06 -1.14497e+06)
(1.02746e+06 -5.00876e+06 -944664)
(2.74191e+06 -4.8867e+06 -1.04098e+06)
(2.82405e+06 -5.05927e+06 -269193)
(4.24393e+06 -3.93098e+06 -1.41599e+06)
(-1.53593e+06 5.44758e+06 -2.78921e+06)
(1.6826e+06 -1.89363e+06 2.2219e+06)
(-81741.9 123240 -1.90325e+06)
(3.45175e+06 -4.24524e+06 -689575)
(1.82836e+06 -3.8022e+06 -1.57987e+06)
(3.40469e+06 -7.38744e+06 599627)
(2.77981e+06 -7.3943e+06 -1.43357e+06)
(2.68477e+06 -6.5483e+06 -498458)
(3.96499e+06 -6.35572e+06 -943950)
(3.81826e+06 -6.84284e+06 41431.9)
(2.94732e+06 -3.80818e+06 2.41617e+06)
(-701380 1.97647e+06 -2.48267e+06)
(5.14265e+06 -5.35495e+06 -1.55053e+06)
(1.77801e+06 -4.05462e+06 -853368)
(5.11263e+06 -5.74333e+06 -1.35126e+06)
(3.49655e+06 -7.11818e+06 -1.33695e+06)
(3.92606e+06 -7.9797e+06 -101759)
(3.89365e+06 -7.93989e+06 -1.08614e+06)
(3.7397e+06 -7.74761e+06 -106929)
(4.61028e+06 -7.33963e+06 -867913)
)
;

boundaryField
{
    inlet
    {
        type            fixedValue;
        value           uniform (6 0 0);
    }
    outlet
    {
        type            zeroGradient;
    }
    bottom
    {
        type            fixedValue;
        value           uniform (0 0 0);
    }
    top
    {
        type            symmetryPlane;
    }
    side1
    {
        type            symmetryPlane;
    }
    side2
    {
        type            symmetryPlane;
    }
    procBoundary0to1
    {
        type            processor;
        value           nonuniform List<vector> 
20
(
(6.00193e+06 -2.54092e+06 -3.1365e+06)
(6.65237e+06 3.21029e+06 1.14103e+06)
(5.25461e+06 -2.72483e+06 -2.28103e+06)
(5.88465e+06 1.35051e+06 1.59604e+06)
(6.16888e+06 -625225 -2.28562e+06)
(5.47409e+06 -1.53768e+06 -3.76359e+06)
(5.66473e+06 -1.5635e+06 1.45753e+06)
(6.00793e+06 -1.42235e+06 -1.5936e+06)
(5.30682e+06 -694209 -5.34748e+06)
(4.41916e+06 -4.55684e+06 -311825)
(6.18424e+06 -1.93294e+06 -3.40037e+06)
(3.88148e+06 -7.88683e+06 2.16151e+06)
(4.31773e+06 -3.43109e+06 -1.53751e+06)
(5.55869e+06 -2.12722e+06 -3.15536e+06)
(3.94158e+06 -7.27454e+06 600672)
(5.62925e+06 -5.04843e+06 -1.91961e+06)
(5.03779e+06 -1.66779e+06 -2.08743e+06)
(4.2498e+06 -5.23834e+06 161680)
(4.85676e+06 -5.79759e+06 -1.12424e+06)
(4.50054e+06 -7.99396e+06 379881)
)
;
    }
    procBoundary0to8
    {
        type            processor;
        value           nonuniform List<vector> 
50
(
(1.6505e+06 -3.47742e+06 -8.84619e+06)
(1.62791e+06 -902120 273505)
(2.89636e+06 -2.79663e+06 -1.1765e+07)
(4.47602e+06 -1.46839e+06 806247)
(4.108e+06 -1.4457e+06 -3.0907e+06)
(4.24046e+06 -1.9046e+06 1.01818e+06)
(4.9595e+06 -999556 -3.11624e+06)
(4.45934e+06 -1.22939e+06 1.03433e+06)
(5.6647e+06 -627478 -2.12241e+06)
(4.70957e+06 -732970 1.31088e+06)
(1.85635e+06 -2.76888e+06 -2.00078e+06)
(2.17114e+06 -3.56246e+06 -5.05533e+06)
(2.70063e+06 -3.53039e+06 -798641)
(3.14749e+06 -3.64778e+06 -3.80351e+06)
(2.14506e+06 -4.82486e+06 479580)
(4.23666e+06 -3.66159e+06 -2.21567e+06)
(2.24929e+06 -5.74696e+06 1.47172e+06)
(5.0374e+06 -2.50677e+06 -1.72532e+06)
(2.68229e+06 -6.01295e+06 2.81078e+06)
(5.84722e+06 -1.30484e+06 -1.50506e+06)
(-4.66144e+06 3.26844e+06 -3.35008e+06)
(5.16723e+06 -2.35914e+06 -5.01021e+06)
(2.59964e+06 -3.42421e+06 -3.68445e+06)
(3.10961e+06 -4.45195e+06 -1.8184e+06)
(4.10872e+06 -4.8824e+06 -3.01245e+06)
(2.08472e+06 -5.99672e+06 -555201)
(4.7366e+06 -5.11928e+06 -2.29298e+06)
(2.24641e+06 -7.36853e+06 700667)
(5.53094e+06 -3.82272e+06 -2.4675e+06)
(3.19516e+06 -8.34679e+06 2.17023e+06)
(5.00249e+06 -3.25832e+06 -1.52534e+06)
(-1.9466e+06 638779 -2.625e+06)
(6.02841e+06 -2.94748e+06 -4.6956e+06)
(3.08954e+06 -4.26316e+06 -2.83575e+06)
(3.83707e+06 -5.25015e+06 -1.74345e+06)
(4.41929e+06 -5.86003e+06 -2.13339e+06)
(3.03045e+06 -6.4068e+06 -650358)
(4.7542e+06 -6.4941e+06 -1.53889e+06)
(3.31212e+06 -7.81265e+06 342804)
(5.22821e+06 -6.05431e+06 -1.47277e+06)
(-2.25311e+06 63197.6 -2.01677e+06)
(3.87381e+06 -6.89132e+06 -535539)
(819026 -5.40371e+06 -1.36261e+06)
(4.50317e+06 -7.47738e+06 -1.8815e+06)
(3.55668e+06 -6.30454e+06 -1.41688e+06)
(5.06266e+06 -7.59551e+06 -743202)
(4.53365e+06 -8.34297e+06 -1.16395e+06)
(4.06178e+06 -8.18229e+06 -139199)
(4.46093e+06 -8.43896e+06 -847775)
(4.28546e+06 -8.65323e+06 356582)
)
;
    }
}


// ************************************************************************* //
