/*--------------------------------*- C++ -*----------------------------------*\
| =========                 |                                                 |
| \\      /  F ield         | OpenFOAM: The Open Source CFD Toolbox           |
|  \\    /   O peration     | Version:  2.4.0                                 |
|   \\  /    A nd           | Web:      www.OpenFOAM.org                      |
|    \\/     M anipulation  |                                                 |
\*---------------------------------------------------------------------------*/
FoamFile
{
    version     2.0;
    format      ascii;
    class       surfaceScalarField;
    location    "0.04";
    object      phia;
}
// * * * * * * * * * * * * * * * * * * * * * * * * * * * * * * * * * * * * * //

dimensions      [0 3 -1 0 0 0 0];

internalField   nonuniform List<scalar> 
490
(
-2.5578e-05
9.80988e-06
3.648e-06
-3.04372e-05
1.12453e-05
-3.42978e-07
-8.55593e-07
1.12367e-05
3.5155e-08
3.0429e-05
9.78542e-06
5.75624e-06
3.93776e-05
9.07628e-06
6.29504e-06
4.41496e-05
8.25742e-06
6.83327e-06
4.41486e-05
8.25698e-06
6.8141e-06
4.02451e-05
8.25607e-06
5.17524e-06
3.33658e-05
7.49094e-06
4.88533e-06
6.90714e-06
4.71243e-06
-3.29575e-05
1.12493e-05
-1.36241e-06
-3.11004e-05
1.12495e-05
-5.1799e-06
7.27691e-06
1.11444e-05
-4.63837e-06
4.39792e-05
8.27594e-06
5.61606e-06
4.41615e-05
8.25633e-06
5.67021e-06
4.41616e-05
8.25632e-06
5.67023e-06
4.41616e-05
8.25632e-06
5.67023e-06
4.41615e-05
8.25632e-06
5.66975e-06
4.40964e-05
8.2563e-06
5.33652e-06
8.25439e-06
5.18921e-06
-3.29588e-05
1.12495e-05
-5.18935e-06
-3.21103e-05
1.12495e-05
-5.19264e-06
6.1271e-06
1.12165e-05
-4.93913e-06
4.38388e-05
9.75288e-06
5.57367e-06
4.41616e-05
8.28926e-06
5.67019e-06
4.41616e-05
8.25633e-06
5.67021e-06
4.41616e-05
8.25632e-06
5.67021e-06
4.41616e-05
8.25632e-06
5.67021e-06
4.39802e-05
8.25994e-06
5.67018e-06
8.54305e-06
5.62135e-06
-3.2959e-05
-5.18755e-06
-3.2959e-05
-5.19271e-06
-3.26362e-05
-5.19268e-06
5.07547e-06
-5.09616e-06
4.33128e-05
5.41661e-06
4.41613e-05
5.67012e-06
4.41615e-05
5.67018e-06
4.37841e-05
5.67018e-06
8.17435e-06
5.56926e-06
-3.45067e-06
-1.50306e-05
7.56875e-06
4.5053e-06
-1.54546e-05
9.50692e-06
4.52545e-06
-1.39414e-05
9.50933e-06
4.45744e-06
-1.06477e-05
7.39158e-06
7.43072e-06
-7.52774e-06
6.85928e-06
7.78103e-06
-5.76186e-06
6.31712e-06
7.66829e-06
9.02729e-06
6.31744e-06
6.25634e-06
2.4225e-05
6.35608e-06
4.61599e-06
2.48102e-05
5.22787e-06
4.55203e-06
4.76096e-06
4.552e-06
-2.46627e-05
9.37504e-06
2.86118e-06
-3.0873e-05
1.12436e-05
-5.14881e-06
7.45682e-06
1.11313e-05
-4.57543e-06
4.39577e-05
8.27822e-06
5.61046e-06
4.41605e-05
8.25629e-06
5.67026e-06
4.41606e-05
8.25629e-06
5.67027e-06
4.41518e-05
8.25628e-06
5.64565e-06
3.83776e-05
8.2546e-06
5.11553e-06
3.02199e-05
7.12433e-06
4.77742e-06
6.65678e-06
4.63839e-06
-3.29498e-05
1.12434e-05
-5.18104e-06
-3.2007e-05
1.12494e-05
-5.1926e-06
6.19043e-06
1.12125e-05
-4.91012e-06
4.37989e-05
9.75287e-06
5.56243e-06
4.41615e-05
8.29326e-06
5.67018e-06
4.41616e-05
8.25633e-06
5.67021e-06
4.41616e-05
8.25633e-06
5.67021e-06
4.41612e-05
8.25632e-06
5.6686e-06
4.39596e-05
8.26063e-06
5.20658e-06
8.59628e-06
5.11412e-06
-3.29457e-05
-5.17453e-06
-3.29589e-05
-5.1927e-06
-3.25962e-05
-5.19267e-06
5.01217e-06
-5.08492e-06
4.32095e-05
5.3876e-06
4.41612e-05
5.67009e-06
4.41614e-05
5.67017e-06
4.37492e-05
5.66982e-06
8.00973e-06
5.32672e-06
-3.32035e-06
-1.52182e-05
7.55247e-06
4.56991e-06
-1.55198e-05
9.54272e-06
4.59726e-06
-1.99749e-05
9.51553e-06
4.53664e-06
-2.19662e-05
6.46069e-06
4.7264e-06
-1.34099e-05
6.04223e-06
4.67717e-06
8.78161e-06
5.86607e-06
4.24329e-06
2.47436e-05
6.27378e-06
2.8088e-06
2.47981e-05
4.48011e-06
2.84007e-06
2.48106e-05
4.46326e-06
4.49593e-06
4.46325e-06
4.52038e-06
-2.40619e-05
9.29391e-06
3.4288e-06
-3.06354e-05
1.12358e-05
-5.10534e-06
7.63613e-06
1.11178e-05
-4.51011e-06
4.39355e-05
8.28046e-06
5.60267e-06
4.41585e-05
8.25622e-06
5.6665e-06
4.37321e-05
8.25618e-06
5.66072e-06
3.41404e-05
8.17271e-06
3.7892e-06
2.4893e-05
6.37191e-06
2.88035e-06
2.48107e-05
4.78723e-06
4.50504e-06
4.56563e-06
4.52583e-06
-3.29367e-05
1.12344e-05
-5.16932e-06
-3.19041e-05
1.12494e-05
-5.19255e-06
6.25332e-06
1.12085e-05
-4.88125e-06
4.3759e-05
9.75286e-06
5.55122e-06
4.41615e-05
8.29725e-06
5.67017e-06
4.41616e-05
8.25634e-06
5.67021e-06
4.41338e-05
8.25632e-06
5.66996e-06
3.61111e-05
8.24968e-06
5.44296e-06
2.6974e-05
5.80311e-06
4.6473e-06
6.75599e-06
4.56904e-06
-3.29256e-05
-5.15568e-06
-3.29588e-05
-5.19268e-06
-3.25563e-05
-5.19265e-06
4.94932e-06
-5.0737e-06
4.31066e-05
5.35873e-06
4.4161e-05
5.67005e-06
4.41552e-05
5.67011e-06
3.9411e-05
5.62844e-06
4.60841e-06
4.97504e-06
8.74731e-07
-1.53829e-05
7.61719e-06
4.61636e-06
-1.60914e-05
9.57106e-06
4.64144e-06
-3.50748e-05
9.43614e-06
4.46633e-06
-5.37941e-05
4.25136e-06
1.41467e-06
-5.42621e-05
4.14792e-06
1.22081e-06
-5.42578e-05
4.1037e-06
1.09445e-06
-5.33876e-05
7.80581e-07
1.0419e-06
-1.51838e-05
1.15801e-07
1.0941e-06
2.28274e-05
4.33107e-06
4.36991e-06
4.38923e-06
4.44553e-06
-2.38892e-05
9.30483e-06
3.70305e-06
-3.03875e-05
1.12258e-05
-5.04306e-06
7.76606e-06
1.11037e-05
-4.43738e-06
4.37831e-05
8.27866e-06
5.58094e-06
4.38694e-05
8.24925e-06
5.64306e-06
4.36409e-06
8.23888e-06
5.61042e-06
-4.30422e-05
4.9152e-06
1.62671e-06
-1.41899e-05
3.79796e-06
1.1482e-06
2.31568e-05
4.48374e-06
4.39821e-06
4.45995e-06
4.463e-06
-3.2919e-05
1.12221e-05
-5.14864e-06
-3.18017e-05
1.12494e-05
-5.18778e-06
6.31574e-06
1.12045e-05
-4.8478e-06
4.37192e-05
9.75286e-06
5.53448e-06
4.41615e-05
8.30119e-06
5.66499e-06
4.41564e-05
8.25635e-06
5.66554e-06
3.93561e-05
8.25581e-06
5.66367e-06
2.9477e-05
7.76997e-06
4.74753e-06
2.40833e-05
5.08567e-06
4.52979e-06
6.10886e-06
6.6569e-06
-3.28975e-05
-5.12547e-06
-3.29587e-05
-5.18838e-06
-3.25165e-05
-5.18792e-06
4.88689e-06
-5.04418e-06
4.30042e-05
4.37544e-06
4.41598e-05
5.66163e-06
4.32799e-05
5.66338e-06
3.40292e-05
6.71528e-06
4.21739e-06
6.88768e-06
6.92295e-06
-1.55219e-05
7.6911e-06
-1.71472e-05
9.59131e-06
-3.69036e-05
9.25345e-06
-5.51883e-05
4.11555e-06
-5.52486e-05
4.0661e-06
-5.51179e-05
4.01054e-06
-5.4569e-05
1.79456e-07
-1.73793e-05
1.119e-08
2.05529e-05
4.1806e-06
4.30295e-06
-2.38125e-05
9.3325e-06
-3.01307e-05
1.12134e-05
7.76734e-06
1.10885e-05
4.32862e-05
8.26607e-06
4.28029e-05
8.22377e-06
-3.42744e-06
8.17487e-06
-5.11637e-05
4.33704e-06
-1.64886e-05
2.89638e-06
2.12721e-05
4.22016e-06
9.11872e-07
-3.28963e-05
1.1206e-05
-3.17001e-05
1.12494e-05
6.37692e-06
1.12005e-05
4.36787e-05
9.62089e-06
4.41611e-05
4.85546e-06
4.41368e-05
8.24517e-06
2.93769e-05
8.24388e-06
1.80878e-05
3.07954e-06
1.78497e-05
7.67033e-07
-2.59828e-06
-3.28605e-05
-3.29586e-05
-3.24182e-05
-2.92326e-06
3.50693e-05
4.41041e-05
3.25426e-05
1.74585e-05
1.39294e-05
)
;

boundaryField
{
    inlet
    {
        type            calculated;
        value           nonuniform 0();
    }
    outlet
    {
        type            calculated;
        value           nonuniform 0();
    }
    bottom
    {
        type            calculated;
        value           uniform 0;
    }
    top
    {
        type            symmetryPlane;
        value           uniform 0;
    }
    side1
    {
        type            symmetryPlane;
        value           nonuniform 0();
    }
    side2
    {
        type            symmetryPlane;
        value           nonuniform 0();
    }
    procBoundary14to6
    {
        type            processor;
        value           nonuniform List<scalar> 
50
(
-8.55358e-06
-1.01388e-05
-2.03461e-05
-2.04287e-05
-1.97255e-05
-1.6929e-05
-1.54651e-05
-8.13425e-06
-5.59543e-06
-5.01189e-06
-8.18425e-06
-8.25627e-06
-8.32673e-06
-5.63791e-06
-3.9677e-06
-2.10128e-06
-2.1348e-06
-4.40573e-06
-4.46322e-06
-4.46317e-06
-8.24559e-06
-8.29989e-06
-8.33247e-06
-3.67795e-06
-2.7145e-06
-2.44062e-06
-4.45658e-06
-4.4616e-06
-4.46325e-06
-4.46325e-06
-8.29466e-06
-8.3382e-06
-7.98561e-06
-1.29437e-07
2.78672e-09
4.4805e-08
3.56144e-08
-3.20785e-08
-4.29638e-06
-4.36838e-06
-8.33486e-06
-8.37068e-06
-7.30592e-06
4.11498e-08
7.75199e-08
8.47552e-08
7.50137e-08
3.5722e-08
-4.10597e-06
-4.25845e-06
)
;
    }
    procBoundary14to13
    {
        type            processor;
        value           nonuniform List<scalar> 
20
(
1.65508e-05
3.13447e-05
3.29585e-05
3.29582e-05
1.47031e-05
1.45638e-05
2.00153e-05
1.5489e-05
1.49761e-05
1.42384e-05
1.66526e-05
1.25054e-05
1.51911e-05
1.43053e-05
1.50569e-05
1.12101e-05
1.5365e-05
1.44462e-05
1.40988e-05
1.04536e-05
)
;
    }
    procBoundary14to15
    {
        type            processor;
        value           nonuniform List<scalar> 
20
(
1.75292e-05
1.33828e-05
1.05074e-05
-2.72137e-05
2.46626e-05
1.52118e-05
1.0218e-05
-2.75632e-05
2.48108e-05
2.48106e-05
1.35434e-05
-2.68062e-05
2.41266e-05
2.42206e-05
9.50481e-07
-1.89496e-05
2.33316e-05
2.14392e-05
1.40264e-05
1.39236e-05
)
;
    }
    procBoundary14to22
    {
        type            processor;
        value           nonuniform List<scalar> 
50
(
1.04366e-05
1.03019e-05
1.04371e-05
1.05224e-05
8.33092e-06
8.25635e-06
8.25633e-06
8.27503e-06
9.10531e-06
9.39371e-06
5.23657e-06
1.04241e-05
1.05352e-05
1.05975e-05
8.34263e-06
8.25636e-06
8.25633e-06
8.27685e-06
9.10564e-06
9.44686e-06
4.87403e-06
1.05056e-05
1.06093e-05
1.06561e-05
8.35415e-06
8.25637e-06
8.25635e-06
8.27698e-06
8.21496e-06
9.39951e-06
4.73564e-06
1.05566e-05
1.06657e-05
1.06727e-05
6.5817e-06
8.25381e-06
9.27058e-06
7.62366e-06
1.77737e-06
2.85577e-06
4.65745e-06
1.05803e-05
8.16062e-06
-3.67659e-06
-8.46529e-06
-4.88417e-06
-1.86101e-06
-1.153e-06
-2.70241e-06
-2.70381e-06
)
;
    }
}


// ************************************************************************* //
