/*--------------------------------*- C++ -*----------------------------------*\
| =========                 |                                                 |
| \\      /  F ield         | OpenFOAM: The Open Source CFD Toolbox           |
|  \\    /   O peration     | Version:  2.4.0                                 |
|   \\  /    A nd           | Web:      www.OpenFOAM.org                      |
|    \\/     M anipulation  |                                                 |
\*---------------------------------------------------------------------------*/
FoamFile
{
    version     2.0;
    format      ascii;
    class       volVectorField;
    location    "0.04";
    object      U;
}
// * * * * * * * * * * * * * * * * * * * * * * * * * * * * * * * * * * * * * //

dimensions      [0 1 -1 0 0 0 0];

internalField   nonuniform List<vector> 
200
(
(75.4393 -366.195 -168.218)
(125.767 -143.62 -21.5334)
(153.087 -173.597 -5.98917)
(307.726 112.342 33.6653)
(178.947 -246.853 -126.583)
(221.935 389.685 16.3994)
(375.629 468.97 49.453)
(198.62 -92.2236 263.259)
(647.633 387.043 47.1099)
(160.299 -28.8298 622.266)
(42.5333 -153.539 -76.0023)
(96.5216 -235.932 -20.4286)
(59.9297 -143.749 -29.6824)
(124.754 -144.712 12.3071)
(137.679 482.65 -57.238)
(117.984 -87.4231 66.1803)
(242.575 -53.6833 131.975)
(339.421 162.123 54.1908)
(196.825 -28.0601 247.018)
(318.011 87.8755 -29.8683)
(122.039 -189.908 25.6329)
(13.33 -168.658 -85.9052)
(85.5969 -187.855 25.0291)
(7.15091 -128.489 -40.8569)
(97.7216 -130.135 70.7775)
(127.995 -62.05 19.3254)
(135.349 -26.1048 56.3776)
(113.297 -41.1276 50.6774)
(149.062 26.097 39.1273)
(142.143 -15.0913 82.767)
(-13.5621 -164.126 -113.354)
(102.922 -142.793 31.7217)
(-5.12973 -138.021 -93.9301)
(84.6118 -134.399 29.0321)
(19.2101 -90.6863 -60.1786)
(85.2839 -106.175 39.7456)
(51.8929 -64.6204 -18.3223)
(90.4704 -63.0954 45.5582)
(76.5363 -40.4307 -10.0812)
(101.704 -37.0359 46.5649)
(33.7546 -96.701 -4.33689)
(70.764 -108.286 78.5936)
(99.5315 -112.373 -25.7907)
(115.986 -180.262 -45.8607)
(161.9 77.8725 -21.9217)
(201.352 137.325 11.1901)
(115.938 -107.924 146.153)
(450.902 297.245 34.7044)
(108.304 -62.3417 392.345)
(173.696 -66.3084 22.2813)
(103.667 -127.829 22.9282)
(9.23884 -150.293 -68.3468)
(74.2919 -163.56 31.2273)
(28.4443 -73.1413 -21.9644)
(23.8331 -205.865 46.0893)
(97.078 -72.6277 64.4703)
(140.761 84.7026 32.2604)
(113.952 -13.786 131.724)
(190.315 85.8692 25.7038)
(179.709 1.49003 129.884)
(10.5822 -104.653 -54.9081)
(95.736 -101.32 22.7911)
(-10.186 -135.796 -76.212)
(65.8256 -123.833 41.9727)
(17.7294 -108.173 -4.17607)
(36.9483 -65.2684 53.0034)
(53.3344 -64.3793 40.3404)
(61.2854 27.2281 74.9962)
(118.109 -9.15037 92.5462)
(130.418 23.5249 49.6536)
(75.7887 -120.401 7.3919)
(-6.71844 -94.9689 -83.5545)
(58.0066 -84.0973 -5.35604)
(-15.7841 -105.335 -90.9628)
(42.7124 -108.4 2.48896)
(9.09122 -85.2981 -43.2533)
(55.4687 -70.172 29.6964)
(47.9508 -60.3501 -7.4771)
(75.7071 -16.5659 18.4094)
(83.4135 -20.0434 -20.6049)
(101.355 -1.94855 29.6521)
(98.8648 -66.7683 -12.3518)
(111.034 -51.8679 -16.0092)
(98.0449 -92.0629 -12.6377)
(129.86 117.776 7.76321)
(79.0717 -126.934 45.0378)
(143.532 412.943 285.099)
(143.044 -176.591 96.843)
(323.126 -63.6759 50.0755)
(288.527 -140.579 -1.63216)
(102.048 28.9821 13.9691)
(66.8856 -48.2027 -17.3406)
(55.5401 -89.1178 -34.2452)
(46.3448 -46.3387 16.7738)
(51.731 -108.141 4.32691)
(51.3917 187.884 124.869)
(98.1666 -169.621 50.6089)
(144.424 213.246 79.7109)
(316.961 -123.411 110.3)
(168.766 32.1389 14.5182)
(-8.77163 -212.782 -20.5749)
(77.1489 13.1638 -15.3258)
(56.7025 -52.8797 -23.8397)
(66.8321 -83.2213 -33.5674)
(38.8821 10.904 45.2588)
(121.334 -127.019 -14.8344)
(13.4753 67.6979 96.436)
(278.766 -809.665 43.0905)
(115.438 39.9226 -43.8921)
(141.48 34.5037 39.6708)
(32.8443 -39.6339 -74.592)
(25.1908 -182.624 -55.4702)
(72.34 -59.2464 -60.5387)
(71.4762 -53.4981 -35.5794)
(80.1034 -78.4802 -62.2123)
(102.294 -43.881 -7.38578)
(141.168 -159.288 -28.3469)
(72.5649 10.4714 -19.935)
(28.5851 22.2154 9.16904)
(32.6499 30.7998 -0.247716)
(111.3 -23.103 0.0383844)
(111.654 -16.5255 11.3815)
(91.2062 -45.7207 6.73717)
(89.0776 -21.4992 -24.8715)
(64.2478 -108.205 -16.038)
(72.9811 269.241 123.92)
(78.7966 -61.4449 72.0321)
(200.405 70.2067 91.8056)
(171.498 -56.712 63.5266)
(195.936 30.3152 -29.5118)
(138.035 18.2117 20.7489)
(111.291 -0.724388 -43.2756)
(72.8696 -19.7154 8.49369)
(65.9842 -65.6046 5.13249)
(47.7663 95.7716 59.6081)
(78.1748 -56.0414 42.562)
(121.728 135.559 110.834)
(151.172 -32.2874 85.4011)
(165.931 48.4749 47.948)
(138.384 -66.6808 89.0857)
(105.819 7.89013 -15.134)
(81.2833 7.39678 36.4162)
(69.5562 58.7139 -76.7616)
(70.7172 -12.3278 24.417)
(108.393 -45.5125 0.434293)
(96.9788 33.5028 66.741)
(133.838 -70.7742 14.2501)
(149.925 23.0045 2.56893)
(130.98 7.14658 56.4355)
(138.135 40.9386 95.5145)
(84.8483 -15.3373 38.2051)
(34.7867 136.577 -136.675)
(75.3302 -96.4246 -42.2106)
(119.326 -40.2783 -35.3359)
(112.278 -10.1575 4.65114)
(119.459 -32.7508 -22.7559)
(117.247 8.36822 1.9261)
(103.995 -8.54095 -7.15748)
(109.235 27.5184 47.7886)
(123.829 -26.4577 4.21429)
(152.879 62.7213 101.78)
(101.026 25.4044 -57.7942)
(165.467 224.169 57.911)
(104.077 18.0821 -53.4645)
(118.214 17.6779 22.5302)
(108.882 -48.6677 33.7152)
(158.484 52.7475 51.7191)
(133.815 -120.768 5.25998)
(176.399 48.6492 -18.4248)
(123.428 -148.147 21.3974)
(118.807 33.9963 -38.9287)
(140.836 106.189 78.2014)
(137.031 23.1572 -11.2113)
(117.749 60.1767 10.8385)
(79.8891 -33.1734 18.0359)
(115.895 34.686 73.0194)
(124.656 -61.877 21.7151)
(158.711 44.4022 56.2088)
(134.532 -120.301 3.54832)
(161.539 10.3059 -34.5218)
(139.152 51.5172 76.9727)
(152.692 51.9886 -35.1436)
(121.417 106.48 80.9717)
(89.2354 219.673 -159.575)
(98.2123 16.2778 27.2162)
(115.658 -51.2967 12.7515)
(134.893 28.6075 36.8824)
(123.4 -55.3385 11.7481)
(142.585 43.9825 73.7886)
(117.596 -63.1078 -11.8707)
(130.727 66.4206 -59.557)
(131.541 95.8868 157.513)
(69.9702 289.702 -234.147)
(103.666 -16.2013 -18.383)
(161.191 -48.9627 0.436619)
(129.746 27.6307 16.786)
(130.725 -41.271 -1.22299)
(135.568 46.3894 59.7814)
(137.369 -36.0158 -9.38516)
(151.928 50.3865 83.5024)
)
;

boundaryField
{
    inlet
    {
        type            calculated;
        value           nonuniform 0();
    }
    outlet
    {
        type            calculated;
        value           nonuniform 0();
    }
    bottom
    {
        type            calculated;
        value           uniform (0 0 0);
    }
    top
    {
        type            symmetryPlane;
    }
    side1
    {
        type            symmetryPlane;
    }
    side2
    {
        type            symmetryPlane;
    }
    procBoundary14to6
    {
        type            processor;
        value           nonuniform List<vector> 
50
(
(176.173 -22.2496 63.9149)
(180.7 -62.9647 -41.5896)
(289.375 34.4281 57.5233)
(195.663 -41.1536 -292.363)
(503.162 147.269 84.7509)
(267.898 131.649 -39.0356)
(117.677 155.848 128.578)
(373.839 744.647 33.6593)
(-27.1117 -61.0643 599.329)
(-39.5124 -98.5386 27.3515)
(125.807 5.67618 67.0576)
(144.307 -58.4902 23.5025)
(160.923 -75.9785 -92.773)
(199.11 -71.8604 -11.6738)
(200.482 -58.3724 -164.759)
(161.975 26.1261 49.7549)
(351.907 645.601 17.949)
(56.1205 -130.362 395.999)
(86.7305 -123.199 -11.2346)
(177.888 -128.422 -37.6222)
(131.532 -32.6863 35.601)
(151.863 -57.3813 -37.6516)
(127.2 -71.7462 6.05824)
(163.469 -5.76611 -193.449)
(115.263 -101.301 -41.1591)
(188.334 253.762 -63.511)
(62.3023 -131.619 81.8383)
(182.181 828.068 568.962)
(187.657 -163.486 152.859)
(134.803 -133.959 -13.3637)
(139.643 -40.37 17.0346)
(116.245 -41.8787 9.79815)
(133.044 -49.3165 -27.9759)
(104.076 -89.6212 -11.3733)
(118.606 49.9628 -154.53)
(76.278 -105.952 0.0512599)
(119.571 481.03 247.61)
(121.723 -73.395 52.8757)
(278.496 86.7193 46.4476)
(250.092 -110.833 -17.1216)
(101.579 7.70515 -61.0933)
(163.528 81.6673 169.345)
(111.541 30.0298 -98.4548)
(137.238 21.7525 50.8672)
(96.2525 -46.6063 10.6217)
(123.495 30.0427 -55.689)
(94.7917 -143.99 -22.0229)
(165.808 38.6212 -212.492)
(93.2194 -281.241 -61.3548)
(177.384 10.8042 6.10533)
)
;
    }
    procBoundary14to13
    {
        type            processor;
        value           nonuniform List<vector> 
20
(
(55.8918 -115.61 -44.0045)
(125.196 -227.629 -7.05355)
(17.3582 -160.854 -87.0267)
(117.775 -161.91 46.0727)
(43.845 -243.59 -20.416)
(27.6418 -117.784 -37.3798)
(102.754 -155.227 24.3821)
(-9.98445 -80.0272 -71.2967)
(119.878 17.9667 39.6913)
(-38.7085 -327.325 -31.7286)
(63.9608 -28.39 -31.2779)
(114.628 29.7849 -26.2504)
(137.54 34.8413 53.0679)
(124.165 11.8263 4.85737)
(89.1954 -64.1867 9.36634)
(85.4411 6.93841 -17.7813)
(111.464 15.6249 -29.9646)
(144.111 39.7606 53.8347)
(135.598 36.4979 -28.4424)
(122.358 26.0203 45.8096)
)
;
    }
    procBoundary14to15
    {
        type            processor;
        value           nonuniform List<vector> 
20
(
(141.875 -80.0246 35.8211)
(237.763 -10.6228 295.039)
(136.795 1.33056 62.9384)
(91.2582 -16.7298 -7.86386)
(227.632 -73.8018 10.0197)
(166.764 -30.496 39.2802)
(135.768 -19.7877 -4.8664)
(95.1134 -19.6964 14.9503)
(177.483 -71.4167 33.3876)
(190.3 16.5834 84.9534)
(131.803 41.6255 69.1293)
(87.7999 -34.9607 -21.4521)
(154.785 30.4427 112.851)
(195.723 -2.17732 -82.6841)
(130.8 -6.25724 24.9322)
(117.802 4.80951 79.5105)
(178.832 27.0042 -193.654)
(123.093 1.19244 24.8303)
(144.091 37.7807 108.116)
(129.615 31.2551 -37.7356)
)
;
    }
    procBoundary14to22
    {
        type            processor;
        value           nonuniform List<vector> 
50
(
(63.9889 -121.191 35.2195)
(-54.8227 -116.422 -96.0746)
(44.9801 -114.097 18.413)
(-42.5623 -76.9923 -80.3883)
(26.962 -101.085 2.34282)
(-12.1948 -41.7624 -71.2147)
(39.0663 -86.1811 -9.40785)
(35.9764 -20.1875 -16.6754)
(37.0622 -25.531 -38.776)
(42.0919 -8.63133 25.2195)
(-39.5244 -73.2396 -108.672)
(26.5109 -83.2174 -26.6033)
(-22.2951 -75.199 -105.517)
(12.2797 -85.431 -62.9094)
(-0.152371 -61.6472 -93.9211)
(-30.6738 -148.418 -194.449)
(55.653 -79.7339 -68.3708)
(-27.362 -48.2961 -197.352)
(54.0961 -69.2565 -35.7385)
(-39.7202 0.139715 -211.124)
(66.5586 -5.17269 -59.6291)
(38.5864 -73.1673 -96.6475)
(44.0493 -95.0309 -65.8305)
(47.3518 -71.8697 -66.0959)
(30.7006 -127.759 -116.111)
(71.4246 -104.875 -61.634)
(-19.3897 -46.4978 -233.588)
(68.5988 -108.473 -19.0466)
(-37.4242 -20.109 -123.848)
(46.5597 -72.7039 -29.3602)
(38.5151 51.7765 -57.0635)
(72.8884 -61.0565 -41.936)
(81.1502 -55.3036 -37.912)
(82.315 -71.697 -33.4236)
(106.594 -94.2699 -40.1595)
(14.315 -13.5142 -254.469)
(116.111 -89.2577 -36.7406)
(31.0174 -34.3868 -81.9684)
(101.985 -71.2607 -2.25317)
(19.557 2.6903 -26.3963)
(117.545 36.9112 151.22)
(74.1556 196.845 -175.614)
(108.927 11.5811 -15.752)
(167.775 -41.7733 -11.7845)
(129.581 29.8916 2.57051)
(150.952 -50.3142 -10.0361)
(115.435 16.8448 -5.01889)
(139.567 -64.6165 -35.4152)
(128.841 21.7467 42.4121)
(128.444 0.793364 -32.8243)
)
;
    }
}


// ************************************************************************* //
