/*--------------------------------*- C++ -*----------------------------------*\
| =========                 |                                                 |
| \\      /  F ield         | OpenFOAM: The Open Source CFD Toolbox           |
|  \\    /   O peration     | Version:  2.4.0                                 |
|   \\  /    A nd           | Web:      www.OpenFOAM.org                      |
|    \\/     M anipulation  |                                                 |
\*---------------------------------------------------------------------------*/
FoamFile
{
    version     2.0;
    format      ascii;
    class       volVectorField;
    location    "0.04";
    object      Ua;
}
// * * * * * * * * * * * * * * * * * * * * * * * * * * * * * * * * * * * * * //

dimensions      [0 1 -1 0 0 0 0];

internalField   nonuniform List<vector> 
200
(
(-19.579 -21.6907 1.9589)
(-18.386 -21.2319 1.52174)
(-17.4428 -20.7667 1.21375)
(-16.7533 -20.2724 1.04549)
(-16.2822 -19.7024 1.01601)
(-16.7531 -20.2723 1.04539)
(-17.1064 -20.6999 1.06745)
(-17.3813 -21.0326 1.0846)
(-17.6012 -21.2987 1.09832)
(-17.7734 -21.5 1.11358)
(-17.7574 -19.6781 1.76585)
(-16.5251 -19.0826 1.3677)
(-15.4805 -18.4304 1.0772)
(-14.6325 -17.7061 0.913165)
(-13.9261 -16.8514 0.868987)
(-14.6323 -17.706 0.913057)
(-15.1819 -18.3712 0.947356)
(-15.6217 -18.9034 0.9748)
(-15.9816 -19.3388 0.997255)
(-16.2799 -19.6834 1.01508)
(4.94161 -1.20645 -12.1625)
(-14.8975 -17.2261 1.16427)
(-13.9114 -16.5602 0.967443)
(-12.9842 -15.709 0.809774)
(-12.1602 -14.7123 0.758305)
(-12.9839 -15.7089 0.809654)
(-13.6435 -16.5068 0.850758)
(-14.1833 -17.1598 0.884383)
(-14.6545 -17.6054 0.889121)
(-20.9625 4.06971 -4.52952)
(5.56051 -0.713963 -12.5637)
(5.34588 -0.827027 -12.373)
(-12.1476 -12.224 2.01846)
(-11.6687 -14.1055 0.727777)
(-10.7899 -13.0466 0.671114)
(-11.6684 -14.1088 0.72572)
(-12.3881 -14.9785 0.770385)
(-13.0919 -15.2451 0.698486)
(-19.1368 4.72118 -4.32402)
(-21.1383 5.43071 -4.81985)
(-53.5568 -28.2081 16.824)
(-52.7281 -27.7676 16.5649)
(-51.6446 -27.1968 16.2241)
(-34.9145 -24.2336 8.81458)
(-16.7764 -20.2772 1.05547)
(-17.116 -20.7016 1.07168)
(-17.387 -21.0334 1.0872)
(-17.6053 -21.2992 1.10021)
(-17.7807 -21.5155 1.11121)
(9.62375 -11.9987 2.4207)
(-47.3356 -24.9823 14.7061)
(-46.8009 -24.6447 14.703)
(-45.1006 -23.7525 14.1676)
(-30.9835 -21.4995 7.81786)
(-14.6664 -17.7017 0.920582)
(-15.2005 -18.3612 0.947797)
(-15.6365 -18.8909 0.972959)
(-15.995 -19.3244 0.994147)
(-16.3472 -19.2215 0.91029)
(-19.9278 5.07183 -4.60866)
(5.48902 -0.746226 -12.5257)
(-34.5762 -18.6958 9.11717)
(-39.8614 -20.7481 12.3138)
(-30.0475 0.529268 -5.27965)
(-29.3363 2.15961 -6.52521)
(-29.2727 1.9932 -6.47439)
(-29.2102 1.82821 -6.42371)
(-29.0147 1.69807 -6.34619)
(-19.3715 4.86912 -4.40841)
(-21.1381 5.43084 -4.81735)
(5.56057 -0.713943 -12.5638)
(5.38716 -0.730052 -12.3644)
(-11.5286 -2.24445 7.19933)
(-21.1152 0.269695 0.591135)
(-30.0189 2.97308 -6.836)
(-30.0115 2.93104 -6.82971)
(-29.7624 2.90496 -6.76397)
(-17.1963 4.35591 -3.91785)
(-18.7604 4.81985 -4.2756)
(-20.874 5.36289 -4.75841)
(-52.7559 -27.774 16.576)
(-51.6654 -27.2001 16.2334)
(-50.2124 -26.4351 15.7768)
(-51.6651 -27.2 16.2333)
(-52.4171 -27.7057 16.4281)
(-52.5911 -28.0157 16.4)
(-52.2866 -28.1733 16.1832)
(-51.5907 -28.2104 15.8112)
(-16.7285 -17.7019 11.5131)
(50.5271 2.54423 4.31266)
(-46.092 -24.3161 14.3321)
(-45.1216 -23.7551 14.1773)
(-42.9428 -22.6079 13.4927)
(-45.1002 -23.716 14.1467)
(-35.7511 -6.02898 0.21935)
(-33.0454 -1.25412 -3.52095)
(-32.0091 0.484668 -4.88034)
(-31.4149 1.32308 -5.51244)
(-19.4799 4.81788 -4.4057)
(-20.7456 5.41503 -4.76381)
(5.49753 -0.742134 -12.5299)
(-33.3727 -17.8711 8.77309)
(-37.1924 -18.9274 11.1393)
(-30.5494 2.7799 -6.58154)
(-30.3542 3.27381 -6.98065)
(-30.3541 3.27401 -6.97889)
(-30.354 3.27407 -6.97701)
(-30.2012 3.28672 -6.93959)
(-18.9372 4.79639 -4.31346)
(-20.8742 5.36296 -4.75507)
(5.56046 -0.713946 -12.5637)
(5.07024 -0.75332 -11.9886)
(-11.538 -2.05285 7.6005)
(-21.0834 0.567542 0.50066)
(-30.3393 3.26981 -6.96692)
(-30.348 3.27239 -6.97213)
(-30.1147 3.28144 -6.91757)
(-16.5427 4.1982 -3.76775)
(-18.2321 4.68414 -4.15309)
(-20.5439 5.2781 -4.68118)
(-52.7568 -28.1646 16.7554)
(-52.7553 -27.7742 16.576)
(-51.6665 -27.2006 16.2337)
(-52.6499 -27.6273 16.4646)
(-33.4051 -0.8764 -3.83652)
(-31.6181 1.57041 -5.68783)
(-31.0793 2.29837 -6.23622)
(-30.7849 2.62555 -6.46501)
(-19.728 4.82546 -4.4683)
(-21.0485 5.42718 -4.79525)
(-46.4253 -24.0669 14.0256)
(-45.8179 -23.0872 13.5298)
(-43.0808 -20.1381 11.3727)
(-30.4313 3.14245 -6.86796)
(-30.3541 3.27409 -6.97321)
(-30.354 3.27415 -6.97037)
(-30.354 3.27416 -6.96751)
(-30.2772 3.28052 -6.9468)
(-19.1088 4.77363 -4.34672)
(-20.8745 5.36298 -4.74859)
(-12.1479 0.777555 -7.07869)
(-27.1908 2.46384 -4.76322)
(-29.1531 2.97661 -6.16307)
(-30.3532 3.27399 -6.97272)
(-30.354 3.27419 -6.97615)
(-30.354 3.27419 -6.97328)
(-30.354 3.27419 -6.97041)
(-30.2082 3.28395 -6.93369)
(-18.4006 4.66471 -4.18639)
(-20.5442 5.27817 -4.67537)
(-1.88565 -1.27577 -3.768)
(-11.6018 -1.99027 7.80333)
(-11.374 -1.94754 7.6451)
(-20.9777 0.641085 0.421156)
(-30.3422 3.2708 -6.96374)
(-30.3491 3.27277 -6.9664)
(-30.1244 3.27782 -6.91265)
(-15.7443 3.99777 -3.58164)
(-17.5719 4.51455 -3.99863)
(-20.1196 5.1691 -4.58059)
(-50.3504 -25.4635 14.6351)
(-49.7733 -23.2023 13.057)
(-45.1732 -17.3896 8.71239)
(-30.3874 3.2287 -6.91025)
(-30.3541 3.27416 -6.95031)
(-30.354 3.27418 -6.9446)
(-30.354 3.27418 -6.93888)
(-30.3027 3.27843 -6.92129)
(-19.2761 4.7517 -4.36523)
(-20.8751 5.36312 -4.72896)
(-28.0148 2.72521 -5.46791)
(-29.0886 2.98852 -6.18029)
(-29.9031 3.17714 -6.68882)
(-30.3537 3.27413 -6.95017)
(-30.354 3.27419 -6.95606)
(-30.354 3.27419 -6.95034)
(-30.354 3.27419 -6.94461)
(-30.2807 3.2791 -6.92194)
(-18.5652 4.64596 -4.20672)
(-20.5449 5.27833 -4.65794)
(-24.8829 1.89887 -3.16387)
(-27.1273 2.48795 -4.79644)
(-29.1231 2.98598 -6.16795)
(-30.3534 3.27404 -6.95564)
(-30.354 3.27419 -6.9618)
(-30.354 3.27419 -6.95607)
(-30.354 3.27419 -6.95034)
(-30.2152 3.28107 -6.91251)
(-17.733 4.49937 -4.02051)
(-20.1204 5.1693 -4.56538)
(-11.604 -1.99134 7.78133)
(-11.366 -1.94979 7.62572)
(-11.0522 -1.89348 7.41312)
(-20.858 0.661642 0.339254)
(-30.3447 3.27157 -6.94872)
(-30.35 3.27306 -6.94716)
(-30.1341 3.27415 -6.89249)
(-14.7493 3.74682 -3.34324)
(-16.7241 4.29672 -3.794)
(-19.5544 5.02389 -4.44048)
)
;

boundaryField
{
    inlet
    {
        type            calculated;
        value           nonuniform 0();
    }
    outlet
    {
        type            calculated;
        value           nonuniform 0();
    }
    bottom
    {
        type            calculated;
        value           uniform (0 0 0);
    }
    top
    {
        type            symmetryPlane;
    }
    side1
    {
        type            symmetryPlane;
    }
    side2
    {
        type            symmetryPlane;
    }
    procBoundary14to6
    {
        type            processor;
        value           nonuniform List<vector> 
50
(
(-21.7741 -24.1274 2.17712)
(-20.7114 -23.918 1.7139)
(-19.9659 -23.7705 1.38933)
(-19.5811 -23.6942 1.22193)
(-19.5809 -23.6942 1.22185)
(-19.5809 -23.6941 1.22185)
(-19.5809 -23.6941 1.22185)
(-19.5809 -23.6941 1.22185)
(-19.5808 -23.694 1.22185)
(-19.5491 -23.6281 1.23644)
(-60.2212 -31.7439 18.9108)
(-60.3088 -31.7702 18.9436)
(-60.37 -31.7894 18.9659)
(-39.9688 -27.7404 10.091)
(-19.6012 -23.6982 1.23067)
(-19.5896 -23.6958 1.22563)
(-19.5863 -23.6952 1.22421)
(-19.5848 -23.6948 1.22358)
(-19.584 -23.6946 1.22323)
(-19.5412 -23.6197 1.23926)
(-60.3902 -31.7934 18.9748)
(-60.3904 -31.7935 18.9748)
(-60.3905 -31.7935 18.9748)
(-60.3902 -31.7934 18.9747)
(-60.0041 -31.7168 18.8068)
(-59.2534 -31.5677 18.4802)
(-58.1781 -31.3543 18.0124)
(-56.8316 -31.0871 17.4267)
(-55.2659 -30.7752 16.7484)
(5.9598 -10.9931 8.88161)
(-56.7835 -31.3955 18.5312)
(-60.3879 -31.7932 18.9745)
(-60.3904 -31.7935 18.9748)
(-60.3902 -31.7934 18.9747)
(-60.2548 -31.7607 18.9133)
(-59.9847 -31.6938 18.7899)
(-59.5836 -31.5918 18.6055)
(-59.0575 -31.4544 18.3621)
(-56.3496 -29.3591 16.8714)
(-21.088 5.33706 -4.72126)
(-53.5182 -31.0338 18.0785)
(-60.3839 -31.7925 18.927)
(-60.3899 -31.7929 18.9327)
(-59.7783 -31.079 18.4009)
(-31.359 2.09856 -6.07802)
(-30.7341 2.82819 -6.61074)
(-30.5635 3.02663 -6.75143)
(-30.4695 3.11534 -6.80048)
(-19.9118 4.8189 -4.49887)
(-21.1414 5.43106 -4.78476)
)
;
    }
    procBoundary14to13
    {
        type            processor;
        value           nonuniform List<vector> 
20
(
(-20.9396 -22.097 2.51002)
(1.5394 -3.86902 -10.1434)
(5.56047 -0.714032 -12.5638)
(5.56054 -0.713937 -12.5638)
(-53.4701 -28.2049 16.799)
(4.72539 -1.09557 -12.1366)
(5.56056 -0.713948 -12.5639)
(5.56055 -0.713937 -12.5639)
(-52.9372 -27.9026 16.6363)
(4.81542 -1.0547 -12.1786)
(5.56056 -0.713947 -12.5639)
(5.56055 -0.713938 -12.5639)
(-51.3048 -27.9573 16.5492)
(4.71486 -1.09904 -12.1286)
(5.55452 -0.713521 -12.5615)
(5.55821 -0.714116 -12.5611)
(-48.4072 -26.004 14.9861)
(-25.8628 2.32074 -4.83952)
(-21.5637 1.22983 -1.99942)
(-10.8539 -1.95288 6.79753)
)
;
    }
    procBoundary14to15
    {
        type            processor;
        value           nonuniform List<vector> 
20
(
(-7.30191 -0.83014 6.1347)
(-9.92389 -1.85921 2.28022)
(-23.4156 6.04176 -5.42825)
(-23.5142 6.04125 -5.36264)
(51.1092 2.52096 4.38984)
(-16.8343 5.72731 -4.48331)
(-23.5124 6.04163 -5.35864)
(-23.5147 6.04136 -5.36163)
(51.0716 2.52677 4.3791)
(-21.5296 5.94805 -5.09669)
(-23.5143 6.04148 -5.35789)
(-23.5151 6.04148 -5.35989)
(-23.0511 6.01946 -5.289)
(-23.5148 6.0414 -5.35173)
(-23.5152 6.0415 -5.35403)
(-23.5156 6.04159 -5.35632)
(-23.5149 6.04141 -5.33193)
(-23.5153 6.04151 -5.33642)
(-23.5157 6.04161 -5.34091)
(-23.516 6.04171 -5.34539)
)
;
    }
    procBoundary14to22
    {
        type            processor;
        value           nonuniform List<vector> 
50
(
(4.92124 -0.663331 -11.24)
(-12.7401 -2.23325 8.36073)
(-13.2793 -2.2814 8.96077)
(-13.0358 -3.23659 8.20503)
(-9.73786 -11.6101 0.688241)
(-10.6088 -12.7544 0.687187)
(-11.3525 -13.6757 0.718424)
(-12.4222 -12.5186 0.290376)
(-17.5557 4.47042 -3.99485)
(-19.1777 4.93501 -4.37726)
(4.67166 -0.672325 -10.9221)
(-13.0496 -2.25976 8.7028)
(-13.2797 -2.28019 8.96)
(-13.2808 -2.27986 8.95724)
(-14.2838 -1.95789 8.01433)
(-15.9724 -1.41935 6.43105)
(-17.9066 -0.7578 4.5283)
(-15.6655 3.93147 -3.43945)
(-17.0318 4.37563 -3.88059)
(-18.7611 4.82011 -4.2756)
(3.9486 -0.722976 -10.062)
(-13.2161 -2.27449 8.8841)
(-13.2798 -2.2802 8.95701)
(-13.2806 -2.27992 8.95376)
(-14.2853 -1.95309 8.014)
(-15.9768 -1.40281 6.43412)
(-17.9019 -0.727118 4.53628)
(-14.9504 3.75601 -3.28444)
(-16.3831 4.209 -3.73062)
(-18.2326 4.68426 -4.15306)
(-13.2773 -2.27998 8.94081)
(-13.2798 -2.2802 8.9472)
(-13.2798 -2.2802 8.95089)
(-13.2805 -2.27997 8.94656)
(-14.2851 -1.95316 8.0065)
(-15.9766 -1.40288 6.42725)
(-17.8934 -0.731408 4.53625)
(-14.0919 3.54251 -3.09467)
(-15.5906 4.00543 -3.54598)
(-17.5722 4.51456 -3.99859)
(-13.2798 -2.2802 8.91776)
(-13.2798 -2.2802 8.92512)
(-13.2798 -2.2802 8.93248)
(-13.2803 -2.28003 8.92462)
(-14.2849 -1.95322 7.98364)
(-15.9764 -1.40293 6.40626)
(-17.8889 -0.736581 4.52703)
(-13.0433 3.28013 -2.85434)
(-14.6012 3.75129 -3.3091)
(-16.7239 4.29666 -3.79395)
)
;
    }
}


// ************************************************************************* //
