/*--------------------------------*- C++ -*----------------------------------*\
| =========                 |                                                 |
| \\      /  F ield         | OpenFOAM: The Open Source CFD Toolbox           |
|  \\    /   O peration     | Version:  2.4.0                                 |
|   \\  /    A nd           | Web:      www.OpenFOAM.org                      |
|    \\/     M anipulation  |                                                 |
\*---------------------------------------------------------------------------*/
FoamFile
{
    version     2.0;
    format      ascii;
    class       volScalarField;
    location    "0.04";
    object      alpha;
}
// * * * * * * * * * * * * * * * * * * * * * * * * * * * * * * * * * * * * * //

dimensions      [0 0 0 0 0 0 0];

internalField   nonuniform List<scalar> 
200
(
1.13466e-07
3.83696e-06
1.13398e-07
1.91942e-09
1.26002e-10
4.11861e-12
8.79538e-14
5.27253e-13
6.22539e-11
6.54971e-09
9.54195e-10
2.82482e-08
9.76807e-10
1.23504e-09
3.60646e-08
1.21693e-09
2.31058e-11
3.31066e-13
6.57452e-13
6.19306e-11
5.21193e-12
1.82456e-10
4.91735e-09
2.88335e-07
9.76439e-06
2.88333e-07
4.86649e-09
6.16063e-11
6.53711e-13
3.32284e-13
6.51361e-11
6.67372e-09
5.82058e-07
3.90395e-05
0.00154223
3.90393e-05
5.76567e-07
6.4881e-09
6.1604e-11
5.21199e-13
3.922e-05
0.00154817
3.92145e-05
5.79521e-07
6.52587e-09
6.20141e-11
5.23986e-13
6.44092e-15
2.56312e-13
2.42739e-11
2.88645e-07
9.77226e-06
2.88717e-07
4.88052e-09
1.80487e-10
5.15721e-12
1.01077e-13
1.55084e-15
2.97463e-15
2.54852e-13
1.23447e-09
3.69944e-08
2.93171e-08
1.91929e-09
2.81475e-08
9.49233e-10
1.80174e-11
2.53362e-13
2.95809e-15
1.50512e-15
1.89813e-09
1.12389e-07
3.80525e-06
2.24713e-07
3.81073e-06
1.12473e-07
1.89779e-09
2.40192e-11
2.5334e-13
2.35797e-15
3.94464e-06
3.94465e-06
1.15225e-07
1.94007e-09
2.45578e-11
2.59346e-13
2.41213e-15
2.62797e-17
5.80713e-16
5.00388e-14
2.91761e-08
3.03655e-08
3.69156e-08
1.23077e-09
2.34881e-11
3.35783e-13
3.99815e-15
4.19774e-17
7.68504e-18
5.77206e-16
4.97189e-09
2.8751e-07
9.73632e-06
2.87388e-07
4.89486e-09
6.31121e-11
6.84084e-13
6.57782e-15
5.79667e-17
4.4661e-18
5.74674e-07
3.89271e-05
0.00153843
3.89273e-05
5.80164e-07
6.64938e-09
6.48675e-11
5.67038e-13
4.57687e-15
8.55333e-17
0.00154817
3.922e-05
5.79708e-07
6.52905e-09
6.20485e-11
5.24183e-13
4.05946e-15
2.94083e-17
1.15676e-18
7.56241e-17
9.77226e-06
2.8865e-07
4.99178e-09
6.621e-11
7.46429e-13
7.52968e-15
6.99911e-17
6.10692e-19
1.80203e-20
9.50824e-19
3.60649e-08
2.16371e-09
2.8106e-08
9.47547e-10
1.80395e-11
2.55258e-13
2.98947e-15
3.0651e-17
2.87867e-19
1.27273e-19
1.99539e-09
1.12268e-07
3.80335e-06
1.12264e-07
1.90044e-09
2.42122e-11
2.57943e-13
2.42641e-15
2.1983e-17
4.63888e-17
3.83696e-06
1.13404e-07
1.91579e-09
2.42751e-11
2.56337e-13
2.38212e-15
2.01255e-17
1.57913e-19
2.44617e-21
9.36811e-20
2.82479e-08
9.53548e-10
1.83319e-11
2.64157e-13
3.68294e-15
5.72156e-17
9.1988e-19
1.37551e-20
1.56636e-21
5.1051e-20
1.19128e-10
6.27973e-12
4.64407e-11
1.77023e-12
2.78162e-13
1.07382e-14
2.42926e-16
4.05714e-18
6.51978e-19
2.3587e-17
3.89303e-12
1.85259e-10
5.49125e-09
1.89094e-10
1.05013e-10
3.90183e-12
8.18435e-14
1.26638e-15
2.51719e-16
1.01608e-14
)
;

boundaryField
{
    inlet
    {
        type            zeroGradient;
    }
    outlet
    {
        type            zeroGradient;
    }
    bottom
    {
        type            fixedValue;
        value           uniform 0;
    }
    top
    {
        type            symmetryPlane;
    }
    side1
    {
        type            symmetryPlane;
    }
    side2
    {
        type            symmetryPlane;
    }
    procBoundary6to5
    {
        type            processor;
        value           nonuniform List<scalar> 
20
(
8.46549e-09
8.00429e-11
4.28262e-13
5.71584e-13
5.79732e-07
4.87353e-09
2.3358e-11
2.43036e-11
1.15123e-07
9.70113e-10
6.66069e-11
6.52549e-09
3.92145e-05
2.88599e-07
1.21652e-09
2.80663e-11
1.13398e-07
9.53479e-10
4.52139e-12
6.59064e-14
)
;
    }
    procBoundary6to7
    {
        type            processor;
        value           nonuniform List<scalar> 
20
(
5.81433e-07
4.88959e-09
2.31869e-11
8.55215e-14
1.91608e-09
1.81155e-11
9.54216e-14
4.18381e-16
3.55573e-12
3.73338e-14
2.54283e-16
6.00754e-15
4.88976e-15
5.6454e-17
2.86126e-18
1.02092e-15
5.55776e-18
1.05416e-18
5.08661e-16
2.40987e-13
)
;
    }
    procBoundary6to14
    {
        type            processor;
        value           nonuniform List<scalar> 
50
(
6.8706e-13
6.33661e-11
4.91285e-09
2.88336e-07
9.76439e-06
2.88334e-07
4.8665e-09
6.16065e-11
6.4993e-13
6.03777e-15
1.79904e-11
9.47717e-10
2.81009e-08
1.8962e-09
2.81472e-08
9.49232e-10
1.80175e-11
2.53363e-13
2.93963e-15
4.96314e-17
4.8485e-09
2.87387e-07
9.73631e-06
2.87389e-07
4.89509e-09
6.31216e-11
6.84301e-13
6.58168e-15
8.78179e-17
4.03918e-15
1.82178e-11
9.47235e-10
2.8083e-08
9.5173e-10
1.3675e-10
4.76017e-12
9.80038e-14
1.50659e-15
3.86553e-16
1.58618e-14
4.2089e-14
2.09379e-12
6.96919e-11
1.21869e-09
3.60643e-08
1.21693e-09
2.31057e-11
3.26251e-13
8.50343e-14
3.85218e-12
)
;
    }
}


// ************************************************************************* //
