/*--------------------------------*- C++ -*----------------------------------*\
| =========                 |                                                 |
| \\      /  F ield         | OpenFOAM: The Open Source CFD Toolbox           |
|  \\    /   O peration     | Version:  2.4.0                                 |
|   \\  /    A nd           | Web:      www.OpenFOAM.org                      |
|    \\/     M anipulation  |                                                 |
\*---------------------------------------------------------------------------*/
FoamFile
{
    version     2.0;
    format      ascii;
    class       volVectorField;
    location    "0.04";
    object      gradp;
}
// * * * * * * * * * * * * * * * * * * * * * * * * * * * * * * * * * * * * * //

dimensions      [1 -2 -2 0 0 0 0];

internalField   nonuniform List<vector> 
200
(
(-7.66583e+06 -1.16621e+06 -4.7752e+06)
(-1.06247e+07 1.71e+06 -3.46767e+06)
(-1.29518e+07 -705812 -5.37266e+06)
(-8.99298e+06 2.11465e+06 -1.89599e+06)
(-7.54287e+06 -3.57012e+06 -4.04493e+06)
(-6.76526e+06 -787648 -2.99485e+06)
(-2.00554e+07 -9.06116e+06 -7.25266e+06)
(-2.65079e+07 791866 3.32999e+06)
(1.12637e+07 7.75803e+06 1.25039e+07)
(2.74533e+07 5.75352e+06 1.10008e+07)
(-3.20787e+06 -948019 -2.98275e+06)
(-9.70392e+06 2.33524e+06 -3.9867e+06)
(-1.21425e+07 3.21847e+06 -2.76695e+06)
(-1.47216e+07 6.06091e+06 -4.56811e+06)
(-1.33475e+07 1.1542e+07 -1.77627e+06)
(-1.77473e+07 7.79447e+06 -3.44624e+06)
(-1.68964e+07 -5.8725e+06 2.61792e+06)
(7.13046e+06 1.23067e+06 6.29138e+06)
(2.11871e+07 9.7248e+06 9.03663e+06)
(1.63867e+07 5.20102e+06 3.28588e+06)
(-3.47312e+06 -2.83437e+06 -2.99844e+06)
(-2.29175e+06 -4.66185e+06 -3.26313e+06)
(-5.50043e+06 -1.64773e+06 -4.56525e+06)
(7.65414e+06 -4.88463e+06 -4.64226e+06)
(-4.07574e+06 1.12392e+07 -1.11386e+07)
(-4.15943e+07 6.25701e+06 -6.60846e+06)
(-3.3183e+07 -7.17454e+06 -48606.6)
(4.68667e+06 2.40977e+06 5.51638e+06)
(1.92045e+07 4.46647e+06 4.16055e+06)
(8.37189e+06 747314 2.73957e+06)
(-9.38942e+06 -4.1028e+06 -933954)
(-7.33064e+06 -7.99375e+06 -78376.4)
(-1.2588e+07 -1.16718e+07 -463183)
(1.10523e+07 -8.9489e+06 1.51591e+06)
(8.9358e+06 -1.73426e+07 -6.84478e+06)
(-5.45748e+07 -1.34718e+07 -5.16221e+06)
(-2.45908e+07 1.32418e+06 1.04273e+07)
(3.04125e+07 5.05593e+06 5.5434e+06)
(1.78621e+07 6.53011e+06 3.25262e+06)
(6.00891e+06 9.69135e+06 2.20658e+06)
(-8.91461e+06 1.70171e+06 -2.60646e+06)
(-1.25366e+07 879553 -1.16825e+06)
(-7.92239e+06 3.46332e+06 -908224)
(-4.74427e+06 -2.16074e+06 327944)
(-1.10592e+07 59747.5 -539223)
(-1.703e+07 -1.50987e+06 199264)
(184079 6.73176e+06 1.64902e+06)
(3.67131e+07 5.53009e+06 1.00364e+07)
(3.58103e+07 2.21036e+06 1.40872e+07)
(2.46027e+06 -6.59036e+06 7.58324e+06)
(-7.57222e+06 1.8948e+06 -1.77689e+06)
(-9.01338e+06 2.66251e+06 -2.10858e+06)
(-1.4003e+07 4.51032e+06 -674881)
(-1.15514e+07 1.66688e+06 521300)
(-9.75749e+06 192199 2.11408e+06)
(-3.68596e+06 2.01268e+06 2.98533e+06)
(1.4264e+07 5.65398e+06 6.66056e+06)
(2.76703e+07 4.72889e+06 1.06984e+07)
(1.15694e+07 -3.6246e+06 7.31768e+06)
(-1.16624e+07 -8.01695e+06 3.12504e+06)
(-4.46836e+06 443700 -1.81731e+06)
(-7.30556e+06 1.59147e+06 -2.79995e+06)
(-9.91364e+06 2.0383e+06 -2.16618e+06)
(-1.33805e+07 4.8498e+06 -2.33529e+06)
(-1.03676e+07 3.12959e+06 -5.73938e+06)
(-6.10641e+06 3.51144e+06 -2.47924e+06)
(5.6165e+06 5.32043e+06 5.50179e+06)
(1.8156e+07 1.213e+06 6.54369e+06)
(1.03186e+07 -4.78794e+06 5.24251e+06)
(-1.88918e+06 -979559 3.19297e+06)
(-1.31688e+06 67053.5 444157)
(-5.82417e+06 -519198 1.54506e+06)
(-7.48629e+06 740264 1.20632e+06)
(-9.36882e+06 824669 4.27197e+06)
(-1.24342e+07 5.09225e+06 -3.74244e+06)
(695715 9.2163e+06 1.64221e+06)
(9.66712e+06 1.26634e+07 1.20836e+07)
(7.45361e+06 1.19304e+07 8.94483e+06)
(7.18431e+06 1.2644e+07 6.23398e+06)
(-1.60961e+06 9.64958e+06 4.95917e+06)
(-4.69223e+06 161102 3.4299e+06)
(-5.19037e+06 205473 4.12091e+06)
(-8.16393e+06 -332464 5.80844e+06)
(-7.81218e+06 2.42402e+06 5.35798e+06)
(-7.95465e+06 675172 6.11736e+06)
(237137 3.67006e+06 8.72919e+06)
(1.14236e+07 -1.04271e+06 1.28853e+07)
(1.32944e+07 1.85097e+06 9.63087e+06)
(3.41349e+06 -3.07328e+06 1.54481e+06)
(-7.04775e+06 -1.37961e+06 -2.6199e+06)
(-5.49513e+06 314617 2.23869e+06)
(-6.1775e+06 -275475 2.94944e+06)
(-3.72683e+06 1.20573e+06 4.2575e+06)
(-5.79691e+06 1.79973e+06 6.77777e+06)
(-5.46257e+06 3.22177e+06 7.52082e+06)
(-3.19863e+06 3.50887e+06 9.57228e+06)
(7.78539e+06 291933 8.94277e+06)
(9.23324e+06 -4.35773e+06 6.20684e+06)
(-3.04766e+06 -4.42677e+06 66649.3)
(-3.0833e+06 -1.8234e+06 1.56776e+06)
(-6.38061e+06 719302 1.79506e+06)
(-3.40814e+06 1.18398e+06 2.64913e+06)
(-4.01353e+06 1.3622e+06 2.8964e+06)
(-3.7801e+06 1.11644e+06 4.69013e+06)
(-4.53636e+06 1.86878e+06 6.87472e+06)
(-5.62254e+06 4.10801e+06 7.46168e+06)
(-4.30964e+06 1.50241e+06 8.92888e+06)
(3.85696e+06 -395907 7.63428e+06)
(8.48216e+06 2.73256e+06 7.91568e+06)
(-1.27441e+06 3.68193e+06 4.37343e+06)
(-3.21848e+06 672574 2.19225e+06)
(-4.8917e+06 1.98702e+06 2.44563e+06)
(-3.8619e+06 1.06801e+06 3.62139e+06)
(-4.78376e+06 3.04279e+06 3.98468e+06)
(520549 3.1479e+06 5.92432e+06)
(-3.93136e+06 6.6556e+06 7.35474e+06)
(-1.22244e+06 1.0301e+07 6.86811e+06)
(1.16936e+07 1.64104e+07 7.87599e+06)
(5.10801e+06 9.7739e+06 5.02551e+06)
(1.82385e+06 9.92069e+06 4.37966e+06)
(-1.66511e+06 -204226 3.20266e+06)
(-4.92527e+06 -994797 3.98448e+06)
(-3.96374e+06 981806 5.55142e+06)
(-3.75573e+06 110931 6.96906e+06)
(-271334 2.30529e+06 7.8957e+06)
(4.62744e+06 -160931 1.0005e+07)
(3.06945e+06 423714 6.82537e+06)
(423580 51634.6 4.19398e+06)
(-3.39213e+06 -154697 -14299.7)
(-3.15297e+06 109895 1.06185e+06)
(-3.08942e+06 -720946 2.39994e+06)
(-2.55321e+06 307666 3.90021e+06)
(-1.75228e+06 -148952 4.58529e+06)
(-1.10876e+06 598318 4.82739e+06)
(-815059 1.40398e+06 6.86769e+06)
(864283 -15337.6 6.70745e+06)
(3.49458e+06 -676286 8.02014e+06)
(-733242 1.53434e+06 2.51163e+06)
(-3.27561e+06 6.56879e+06 1.13221e+06)
(-2.82503e+06 3.17237e+06 1.23378e+06)
(-804350 369383 3.21717e+06)
(-3.78128e+06 785374 3.50838e+06)
(-3.38244e+06 1.02053e+06 3.19148e+06)
(-649874 380857 4.36742e+06)
(-1.49864e+06 575185 4.03588e+06)
(466908 -36620.7 5.1068e+06)
(6.16881e+06 2.00097e+06 4.89656e+06)
(1.49137e+07 3.88365e+06 4.1792e+06)
(-116078 3.14623e+06 916576)
(-1.25372e+07 3.51948e+06 753629)
(-958977 845764 1.41398e+06)
(-1.25091e+06 335346 1.94574e+06)
(-2.56132e+06 2.556e+06 2.26955e+06)
(-1.99945e+06 1.88102e+06 2.87526e+06)
(-1.65001e+06 2.59347e+06 4.06524e+06)
(3.71584e+06 3.27235e+06 2.86768e+06)
(1.13351e+07 6.25048e+06 5.78671e+06)
(1.55729e+06 590660 2.79076e+06)
(-4.00395e+06 -3.50083e+06 1.32645e+06)
(-4.55675e+06 -870793 795191)
(1.2091e+06 -1.12324e+06 1.94149e+06)
(2.32567e+06 70642 2.16299e+06)
(1.38672e+06 -1.87826e+06 4.20741e+06)
(-310482 -1.00264e+06 3.83501e+06)
(1.76033e+06 -969638 5.28405e+06)
(-3.18792e+06 -1.606e+06 4.46991e+06)
(-7.17166e+06 868925 2.84175e+06)
(-8.59256e+06 -840792 1.26956e+06)
(-6.60933e+06 -1.23886e+06 24208.3)
(-2.74224e+06 -1.10453e+06 264187)
(1.44814e+06 337840 1.36711e+06)
(815622 -1.03724e+06 2.82889e+06)
(-759852 -2.57017e+06 2.41987e+06)
(1.50677e+06 -2.3629e+06 3.13903e+06)
(553620 -2.95394e+06 3.23722e+06)
(489203 -4.32824e+06 3.56674e+06)
(-5.64125e+06 -2.79415e+06 3.12001e+06)
(-1.28081e+07 -4.38139e+06 711795)
(-7.13679e+06 -2.93737e+06 -653390)
(-191756 -2.31656e+06 -494826)
(-514121 -858245 2.60323e+06)
(-3.49036e+06 -1.94317e+06 1.32243e+06)
(-1.26462e+06 -2.34298e+06 2.69415e+06)
(-1.07802e+06 -2.00697e+06 1.98425e+06)
(-2.17034e+06 -2.61514e+06 2.56035e+06)
(-2.86834e+06 -2.03562e+06 1.77434e+06)
(-7.27795e+06 -2.07108e+06 1.51809e+06)
(-8.879e+06 50705.5 -2.42777e+06)
(-2.47966e+06 3.04335e+06 -5.91714e+06)
(1.324e+06 2.98019e+06 -3.16639e+06)
(-2.04692e+06 -2.02054e+06 599840)
(-2.15385e+06 -1.44924e+06 1.12355e+06)
(-887443 -516794 317673)
(962441 -250461 1.64664e+06)
(496310 -436556 1.24327e+06)
(1.57733e+06 260987 2.31736e+06)
(-1.46859e+06 21340.6 574980)
(-2.57926e+06 2.73204e+06 -1.68379e+06)
(-1.27782e+06 2.6258e+06 -717695)
(-2.7219e+06 2.265e+06 -831879)
)
;

boundaryField
{
    inlet
    {
        type            zeroGradient;
    }
    outlet
    {
        type            zeroGradient;
    }
    bottom
    {
        type            zeroGradient;
    }
    top
    {
        type            symmetryPlane;
    }
    side1
    {
        type            symmetryPlane;
    }
    side2
    {
        type            symmetryPlane;
    }
    procBoundary6to5
    {
        type            processor;
        value           nonuniform List<vector> 
20
(
(-2.77049e+06 -518982 -3.07743e+06)
(-4.18194e+06 238880 -2.62284e+06)
(-2.07942e+06 -1.57107e+06 -2.95211e+06)
(-8.53981e+06 -4.53641e+06 -2.60105e+06)
(-9.73485e+06 208358 -2.0975e+06)
(-6.42775e+06 439384 -1.39381e+06)
(-5.37944e+06 -1.5362e+06 -1.89136e+06)
(-929456 -55530.7 -383356)
(-5.22408e+06 606920 1.85544e+06)
(-4.92801e+06 568713 1.54856e+06)
(-4.26476e+06 45661 1.50413e+06)
(-2.0838e+06 409456 2.33378e+06)
(-2.26191e+06 -282641 2.14031e+06)
(-2.10537e+06 -122715 1.73044e+06)
(-2.74107e+06 -279849 1.6751e+06)
(-626916 274958 1.57963e+06)
(645867 -48878.8 1.2648e+06)
(-323253 -175625 1.4109e+06)
(1.29856e+06 -195640 1.23173e+06)
(-2.02183e+06 -755109 1.46353e+06)
)
;
    }
    procBoundary6to7
    {
        type            processor;
        value           nonuniform List<vector> 
20
(
(1.49227e+07 2.22476e+06 4.69361e+06)
(-2.84282e+06 184109 271267)
(-970183 -722439 953964)
(1.02445e+06 7.42929e+06 871832)
(-1.82947e+07 -4.85098e+06 3.30567e+06)
(-1.36876e+07 -5.79932e+06 1.23329e+06)
(-1.22449e+07 238464 2.22804e+06)
(353159 8.8744e+06 4.92615e+06)
(-3.9711e+06 -1.09105e+06 -209325)
(-3.47993e+06 -1.5401e+06 2.82833e+06)
(1.8356e+06 5.18614e+06 4.58816e+06)
(-3.41005e+06 9.26085e+06 4.10453e+06)
(-3.31381e+06 9270.51 1.33117e+06)
(-2.92897e+06 1.87666e+06 2.03582e+06)
(-8.81217e+06 2.28038e+06 1.72858e+06)
(-7.75254e+06 -1.13397e+06 -94095.9)
(-2.68801e+06 36388.2 152560)
(-555170 -904247 169509)
(1.53514e+06 1.77827e+06 -1.58551e+06)
(-2.95292e+06 1.36104e+06 -144306)
)
;
    }
    procBoundary6to14
    {
        type            processor;
        value           nonuniform List<vector> 
50
(
(-1.03878e+07 -1.70507e+06 -392277)
(-1.74297e+07 274500 1.40847e+06)
(-7.41072e+06 647928 3.19227e+06)
(-3.68753e+06 6.73006e+06 1.46623e+06)
(-1.31216e+07 -4.8938e+06 2.88321e+06)
(-4.26072e+06 2.59421e+06 7.57161e+06)
(3.87251e+06 2.24341e+07 7.0384e+06)
(1.50985e+07 1.54686e+07 9.81295e+06)
(2.84753e+07 1.3652e+07 7.9817e+06)
(1.01703e+07 9.38207e+06 2.71346e+06)
(-5.39569e+06 708282 1.1673e+06)
(-5.95914e+06 1.58197e+06 3.43804e+06)
(-7.2259e+06 2.49447e+06 5.79618e+06)
(-4.67652e+06 4.25523e+06 5.15952e+06)
(6.41565e+06 6.76385e+06 7.06718e+06)
(9.03586e+06 1.10784e+07 1.01004e+07)
(1.10448e+07 1.06238e+07 1.11123e+07)
(1.81171e+07 1.34005e+07 1.36403e+07)
(5.75695e+06 9.03602e+06 7.26988e+06)
(-9.42829e+06 6.99698e+06 3.33631e+06)
(-3.22548e+06 243564 2.28176e+06)
(-2.61727e+06 882505 3.18322e+06)
(-1.90199e+06 2.4877e+06 4.03123e+06)
(379678 2.64013e+06 5.35035e+06)
(2.68925e+06 5.47282e+06 5.31298e+06)
(8.68361e+06 4.17034e+06 3.74671e+06)
(1.52e+07 1.30184e+07 4.92081e+06)
(2.80281e+06 1.03324e+07 546922)
(-4.49733e+06 4.44589e+06 -2.17481e+06)
(-2.30051e+06 3.1769e+06 -2.20181e+06)
(-683575 209384 1.53398e+06)
(-360819 1.10007e+06 1.36071e+06)
(-291096 709223 2.20098e+06)
(-574921 2.30973e+06 2.30913e+06)
(1.28403e+06 1.48023e+06 1.79559e+06)
(7.78092e+06 3.92426e+06 1.11016e+06)
(805428 -581096 -1.52821e+06)
(-4.58888e+06 -3.4014e+06 -4.3698e+06)
(-3.03898e+06 -2.03081e+06 -3.55098e+06)
(-7.80352e+06 -3.391e+06 -4.03118e+06)
(-1.90239e+06 8245.74 811795)
(-482872 23348.4 207061)
(1.13295e+06 2.08225e+06 773653)
(-917540 166907 652075)
(-1.14745e+06 276527 666585)
(-1.95255e+06 -874418 -107761)
(-2.33585e+06 -1.82806e+06 -2.37512e+06)
(-3.67008e+06 -1.50505e+06 -1.08941e+06)
(-3.41374e+06 -2.10137e+06 -2.088e+06)
(-1.20552e+06 -2.59989e+06 -1.20652e+06)
)
;
    }
}


// ************************************************************************* //
