/*--------------------------------*- C++ -*----------------------------------*\
| =========                 |                                                 |
| \\      /  F ield         | OpenFOAM: The Open Source CFD Toolbox           |
|  \\    /   O peration     | Version:  2.4.0                                 |
|   \\  /    A nd           | Web:      www.OpenFOAM.org                      |
|    \\/     M anipulation  |                                                 |
\*---------------------------------------------------------------------------*/
FoamFile
{
    version     2.0;
    format      ascii;
    class       surfaceScalarField;
    location    "0.04";
    object      phia;
}
// * * * * * * * * * * * * * * * * * * * * * * * * * * * * * * * * * * * * * //

dimensions      [0 3 -1 0 0 0 0];

internalField   nonuniform List<scalar> 
490
(
-7.64329e-05
2.87864e-05
-6.41979e-07
-7.99261e-05
2.94043e-05
1.60294e-06
-7.99265e-05
2.94197e-05
2.63297e-06
-7.99262e-05
2.94349e-05
3.05083e-06
-7.92519e-05
2.94495e-05
3.54299e-06
-7.8014e-05
2.68041e-05
4.71677e-06
-7.69581e-05
2.45907e-05
5.20732e-06
-6.6244e-05
2.26923e-05
5.57519e-06
-3.83694e-05
1.65041e-05
4.24381e-06
7.61504e-06
4.70695e-06
-7.98779e-05
1.94946e-05
1.328e-06
-7.99267e-05
2.95168e-05
2.27052e-06
-7.99267e-05
2.95594e-05
2.63327e-06
-7.99264e-05
2.95592e-05
3.05097e-06
-7.92521e-05
2.95583e-05
3.54302e-06
-7.80138e-05
2.69172e-05
4.71696e-06
-7.6953e-05
2.47013e-05
5.20756e-06
-5.84321e-05
1.63968e-05
5.57349e-06
-2.27196e-05
9.88651e-06
4.03968e-06
5.73008e-06
4.58152e-06
-4.94332e-05
9.0991e-06
4.98437e-06
-7.97976e-05
1.92552e-05
1.35316e-06
-7.99265e-05
2.94417e-05
2.62249e-06
-7.99262e-05
2.9558e-05
3.05083e-06
-7.92519e-05
2.95564e-05
3.54299e-06
-7.7983e-05
2.62584e-05
4.71676e-06
-4.15206e-05
2.3684e-05
5.18857e-06
9.57044e-06
8.9978e-06
4.07244e-06
2.47998e-05
4.46563e-06
4.55177e-06
4.46364e-06
4.55198e-06
-1.75008e-05
5.1164e-06
-4.86061e-05
5.01574e-06
-7.95676e-05
1.37359e-06
-7.9915e-05
3.01907e-06
-7.49111e-05
3.54338e-06
-6.6184e-05
4.96249e-06
-2.78939e-05
5.53078e-06
1.5735e-05
4.26978e-06
2.48036e-05
4.55186e-06
4.55199e-06
-1.60097e-05
1.08394e-05
9.3174e-07
-5.90106e-05
8.66626e-06
3.29933e-06
-6.77104e-05
6.53596e-06
5.78077e-06
-6.66655e-05
4.66612e-06
9.06082e-06
-6.54238e-05
2.46133e-06
9.83334e-06
-6.47475e-05
-1.76102e-07
1.07266e-05
-6.46652e-05
-1.76882e-07
8.28403e-06
-3.54271e-05
-1.70652e-07
5.88154e-06
2.77444e-06
3.20254e-06
5.53383e-06
2.4579e-06
5.03522e-06
-4.3573e-05
8.77286e-06
3.02178e-06
-6.85046e-05
8.45921e-06
5.18063e-06
-6.77111e-05
6.57909e-06
8.38738e-06
-6.6665e-05
4.68828e-06
9.06216e-06
-6.54234e-05
2.47172e-06
9.83384e-06
-6.47472e-05
-1.76744e-07
1.07275e-05
-6.46331e-05
-1.62436e-07
8.27819e-06
-2.8404e-05
2.0497e-06
5.93037e-06
1.29235e-05
4.01893e-06
5.09707e-06
3.78343e-06
4.80203e-06
-1.73828e-05
8.73651e-06
5.07924e-06
-4.27685e-05
8.73255e-06
5.12302e-06
-6.75047e-05
7.65513e-06
8.32705e-06
-6.66654e-05
4.72671e-06
8.99781e-06
-6.54236e-05
2.47262e-06
9.67169e-06
-6.44542e-05
-1.75907e-07
1.01495e-05
-2.15443e-05
-1.28047e-07
7.62286e-06
2.29407e-05
4.31077e-06
4.67785e-06
2.48096e-05
4.46319e-06
4.55204e-06
4.46314e-06
4.55202e-06
-1.70066e-05
5.11643e-06
-1.718e-05
5.11642e-06
-4.18282e-05
5.13819e-06
-6.62008e-05
8.84953e-06
-6.54225e-05
9.49744e-06
-6.40921e-05
9.67369e-06
-2.03845e-05
7.59688e-06
2.37391e-05
4.6241e-06
2.48099e-05
4.55203e-06
4.55201e-06
1.7959e-05
1.29633e-05
9.23733e-07
2.82068e-06
1.16253e-05
9.2409e-07
-3.91977e-05
6.58406e-06
2.6949e-06
-6.5766e-05
2.45824e-06
5.52134e-06
-6.50962e-05
1.20176e-06
5.67892e-06
-6.20676e-05
-1.76791e-07
5.89648e-06
-5.6071e-05
-7.44053e-08
3.40765e-06
-1.50092e-05
1.31286e-07
1.05393e-06
2.31777e-05
4.3659e-06
2.71932e-06
4.40078e-06
2.73977e-06
4.41814e-06
1.09139e-05
9.28997e-07
-3.78682e-05
9.55513e-06
2.50527e-06
-6.63831e-05
3.65809e-06
5.4148e-06
-6.57746e-05
2.4956e-06
5.52244e-06
-6.50966e-05
1.3021e-06
5.67923e-06
-6.16779e-05
2.56348e-07
5.89724e-06
-5.45114e-05
2.19711e-06
3.40171e-06
-1.326e-05
2.3288e-06
1.10485e-06
2.40846e-05
4.4371e-06
2.74546e-06
4.44823e-06
2.75557e-06
-1.67793e-05
8.77485e-06
4.99903e-06
-4.10624e-05
8.74022e-06
4.91367e-06
-6.43636e-05
6.19532e-06
5.37126e-06
-6.19893e-05
2.61457e-06
5.46354e-06
-5.40995e-05
1.49878e-06
5.52386e-06
-1.17322e-05
1.04779e-06
5.32793e-06
2.46414e-05
4.4514e-06
2.77841e-06
2.47814e-05
4.46065e-06
2.78363e-06
2.48106e-05
4.46325e-06
4.42642e-06
4.46325e-06
4.47797e-06
-1.70065e-05
5.11642e-06
-1.71665e-05
5.1164e-06
-3.87725e-05
5.01567e-06
-5.73913e-05
5.35613e-06
-4.43863e-05
5.3577e-06
-4.77779e-06
4.86258e-06
2.47151e-05
2.79189e-06
2.47939e-05
2.80969e-06
2.48106e-05
4.47802e-06
4.50959e-06
1.79527e-05
1.29436e-05
9.22338e-07
-9.70362e-06
9.05595e-06
9.22469e-07
-4.69925e-05
1.78901e-06
1.38548e-06
-5.64905e-05
-2.26878e-08
1.32104e-06
-5.6257e-05
-9.8549e-08
1.15444e-06
-5.61258e-05
-1.24374e-07
1.03662e-06
-5.60848e-05
-1.23937e-07
9.75314e-07
-5.60681e-05
-1.24001e-07
9.75472e-07
-5.60196e-05
-1.21346e-07
9.76419e-07
-1.14772e-07
9.77076e-07
-5.15064e-06
1.09519e-05
9.25459e-07
-4.26263e-05
6.67835e-06
1.46667e-06
-5.68329e-05
1.33136e-07
1.52675e-06
-5.64915e-05
-1.53683e-08
1.32126e-06
-5.62569e-05
-8.99782e-08
1.15464e-06
-5.61257e-05
-1.13787e-07
1.03681e-06
-5.60848e-05
-1.09441e-07
9.75507e-07
-5.60556e-05
-9.83118e-08
9.75674e-07
-5.59802e-05
2.0099e-06
9.77495e-07
2.0797e-06
9.79408e-07
-1.76659e-05
8.8189e-06
4.90194e-06
-3.82034e-05
8.418e-06
4.4183e-06
-5.65518e-05
4.14538e-06
1.53603e-06
-5.61912e-05
7.55009e-09
1.32953e-06
-5.5898e-05
-7.00638e-08
1.16491e-06
-5.56637e-05
-8.90923e-08
1.04992e-06
-5.53589e-05
-7.59274e-08
9.93599e-07
-1.80176e-05
-3.9419e-08
1.00751e-06
2.02948e-05
4.20717e-06
4.15851e-06
4.31399e-06
4.3142e-06
-1.70066e-05
5.11062e-06
-1.83633e-05
5.11002e-06
-3.78485e-05
4.64568e-06
-5.58081e-05
1.34292e-06
-5.54672e-05
1.17712e-06
-5.5099e-05
1.06574e-06
-5.44554e-05
1.01579e-06
-1.62726e-05
1.04719e-06
2.21775e-05
4.31436e-06
4.41189e-06
1.7943e-05
1.29227e-05
-1.33029e-05
8.09738e-06
-5.03987e-05
9.68151e-07
-5.62196e-05
-9.76379e-08
-5.61422e-05
-1.17443e-07
-5.60985e-05
-1.23976e-07
-5.60848e-05
-1.23872e-07
-5.60754e-05
-1.23936e-07
-5.60411e-05
-1.224e-07
-1.16539e-07
-9.66412e-06
1.09934e-05
-4.68244e-05
5.16147e-06
-5.63352e-05
-5.32263e-08
-5.62202e-05
-9.39614e-08
-5.61421e-05
-1.13e-07
-5.60985e-05
-1.18371e-07
-5.60848e-05
-1.15992e-07
-5.60681e-05
-1.09453e-07
-5.60196e-05
1.83233e-06
1.97018e-06
-1.96684e-05
8.86786e-06
-4.03565e-05
7.8443e-06
-5.61793e-05
3.54128e-06
-5.60513e-05
-8.20317e-08
-5.59412e-05
-1.01849e-07
-5.58388e-05
-1.04647e-07
-5.56709e-05
-9.72626e-08
-2.13326e-05
-7.59697e-08
1.52664e-05
3.92202e-06
4.14264e-06
-1.70069e-05
-2.05839e-05
-4.00346e-05
-5.58434e-05
-5.57031e-05
-5.55262e-05
-5.51641e-05
-1.86301e-05
1.91543e-05
)
;

boundaryField
{
    inlet
    {
        type            calculated;
        value           nonuniform 0();
    }
    outlet
    {
        type            calculated;
        value           nonuniform 0();
    }
    bottom
    {
        type            calculated;
        value           uniform 0;
    }
    top
    {
        type            symmetryPlane;
        value           uniform 0;
    }
    side1
    {
        type            symmetryPlane;
        value           uniform -0;
    }
    side2
    {
        type            symmetryPlane;
        value           nonuniform 0();
    }
    procBoundary6to5
    {
        type            processor;
        value           nonuniform List<scalar> 
20
(
2.76501e-05
5.15203e-05
1.81024e-05
1.70066e-05
-1.78518e-05
1.74107e-05
1.70067e-05
1.70066e-05
-1.79615e-05
-1.79165e-05
1.62803e-05
1.70065e-05
-1.79615e-05
-1.79324e-05
1.54396e-05
1.70065e-05
-1.79615e-05
-1.79334e-05
1.45025e-05
1.70064e-05
)
;
    }
    procBoundary6to7
    {
        type            processor;
        value           nonuniform List<scalar> 
20
(
-9.25422e-06
-1.40146e-06
2.40477e-05
2.43774e-05
7.03115e-06
1.02036e-05
2.44557e-05
2.46106e-05
2.41236e-05
2.45025e-05
2.48106e-05
2.48106e-05
-1.43876e-05
-1.43616e-05
2.32095e-05
2.38933e-05
-1.4401e-05
-1.43877e-05
2.13778e-05
2.2826e-05
)
;
    }
    procBoundary6to14
    {
        type            processor;
        value           nonuniform List<scalar> 
50
(
8.55358e-06
1.01388e-05
2.03461e-05
2.04287e-05
1.97255e-05
1.6929e-05
1.54651e-05
8.13425e-06
5.59543e-06
5.01189e-06
8.18425e-06
8.25627e-06
8.32673e-06
5.63791e-06
3.9677e-06
2.10128e-06
2.1348e-06
4.40573e-06
4.46322e-06
4.46317e-06
8.24559e-06
8.29989e-06
8.33247e-06
3.67795e-06
2.7145e-06
2.44062e-06
4.45658e-06
4.4616e-06
4.46325e-06
4.46325e-06
8.29466e-06
8.3382e-06
7.98561e-06
1.29437e-07
-2.78672e-09
-4.4805e-08
-3.56144e-08
3.20785e-08
4.29638e-06
4.36838e-06
8.33486e-06
8.37068e-06
7.30592e-06
-4.11498e-08
-7.75199e-08
-8.47552e-08
-7.50137e-08
-3.5722e-08
4.10597e-06
4.25845e-06
)
;
    }
}


// ************************************************************************* //
