/*--------------------------------*- C++ -*----------------------------------*\
| =========                 |                                                 |
| \\      /  F ield         | OpenFOAM: The Open Source CFD Toolbox           |
|  \\    /   O peration     | Version:  2.4.0                                 |
|   \\  /    A nd           | Web:      www.OpenFOAM.org                      |
|    \\/     M anipulation  |                                                 |
\*---------------------------------------------------------------------------*/
FoamFile
{
    version     2.0;
    format      ascii;
    class       volVectorField;
    location    "0.04";
    object      Ur;
}
// * * * * * * * * * * * * * * * * * * * * * * * * * * * * * * * * * * * * * //

dimensions      [0 1 -1 0 0 0 0];

internalField   nonuniform List<vector> 
200
(
(-122.504 23.927 260.789)
(-129.309 -89.6094 -113.625)
(-143.299 72.7011 676.384)
(-276.016 63.4508 -35.0279)
(-341.327 -68.9101 -69.5847)
(-201.593 148.511 165.313)
(-519.644 -47.277 143.127)
(-230.853 154.114 77.8543)
(-661.478 154.805 492.504)
(-328.592 -90.7547 -1797.59)
(-156.893 -36.3101 -122.266)
(-127.563 11.6224 295.085)
(-224.658 -61.7722 -141.359)
(-212.099 27.4594 601.325)
(-326.898 46.7158 -32.9112)
(-352.232 -34.1112 -36.926)
(-166.171 75.1298 90.7623)
(-416.058 -38.7266 202.774)
(-95.8134 69.0575 -559.197)
(-105.838 -207.016 49.9659)
(-138.453 15.8574 124.204)
(-190.757 -40.9406 -88.5922)
(-191.27 -13.9982 379.15)
(-288.955 -72.5219 -93.3254)
(-311.006 -129.844 659.037)
(-222.749 48.5508 -68.3949)
(-153.428 -232.29 9.19856)
(21.6761 30.46 -215.88)
(30.8001 -96.4215 70.6538)
(61.0288 -17.6349 -9.10668)
(-197.947 -1.87783 -61.7377)
(-201.411 39.0467 43.3035)
(-309.341 -58.1986 -56.134)
(-215.244 17.4594 293.585)
(-522.743 -170.964 -83.5291)
(-287.479 -155.343 40.2575)
(-137.258 -179.542 -127.356)
(-393.42 -768.341 -32.4375)
(7.53085 37.3703 -598.107)
(19.9633 74.9106 -26.1151)
(-204.263 4.6559 -112.014)
(-167.423 3.74664 137.102)
(-201.714 20.5051 -36.5182)
(-107.45 -42.4804 130.941)
(-188.073 88.5621 -71.3795)
(-321.213 38.7278 1.75271)
(-169.671 201.299 122.771)
(-557.343 97.9653 421.037)
(-145.395 -113.339 -1147.61)
(-92.4035 -308.262 -444)
(-158.276 38.0165 75.7572)
(-180.379 11.0113 -60.0366)
(-141.751 12.3062 211.454)
(-197.461 7.10738 -45.1941)
(-180.384 -49.98 166.692)
(-159.581 108.886 -61.7711)
(-245.461 50 99.4175)
(-47.4383 6.82991 -214.174)
(-87.6877 -159.021 -198.395)
(-152.885 -50.3121 -12.5588)
(-132.03 21.2641 -75.9452)
(-139.041 51.0034 117.242)
(-230.652 -9.53718 -1.07157)
(-214.005 -12.9001 296.801)
(-220.202 -5.46235 -39.239)
(-236.821 -203.745 46.6112)
(-85.8609 116.345 -124.321)
(-34.2704 31.3749 1.42056)
(-106.178 88.042 139.097)
(-84.523 25.3019 -129.063)
(-186.028 -37.4201 -48.1468)
(-204.616 26.72 -4.55893)
(-221.292 44.1891 111.739)
(-239.079 44.12 21.7648)
(-220.083 34.6742 165.989)
(-181.564 -49.8219 -48.5292)
(-371.493 -669.297 -16.7248)
(-75.7053 106.667 -394.776)
(-106.315 99.5044 12.4579)
(-197.429 104.802 38.8614)
(-199.185 7.77754 0.171798)
(-181.936 1.35381 -33.5208)
(-177.224 -25.9461 78.8649)
(-152.093 -30.0228 126.234)
(-114.03 1.6597 368.826)
(-140.504 76.6079 48.7987)
(-229.539 -14.5195 59.6283)
(-31.1432 1.31056 -485.108)
(23.8098 -219.494 -652.76)
(-167.96 -25.3614 -44.272)
(-148.293 -11.0383 -13.3243)
(-177.359 32.9257 57.9167)
(-214.4 -12.2853 85.6695)
(-204.781 -14.5452 273.611)
(-211.381 -31.4392 110.718)
(-216.097 10.0276 166.095)
(-119.95 29.3853 35.266)
(-88.2792 -127.72 -322.09)
(-80.3404 25.9764 56.2879)
(-74.7352 -80.1829 -555.422)
(-244.355 9.99261 42.1038)
(-199.283 5.80876 14.5201)
(-205.773 17.8119 234.926)
(-180.158 -7.59564 71.5383)
(-224.697 -64.2246 330.968)
(-185.289 1.87745 84.8031)
(-155.515 -286.335 -58.8814)
(-175.299 91.5291 -10.2384)
(-71.4469 61.1744 -129.553)
(-137.75 163.582 205.071)
(-191.922 0.892956 -16.6262)
(-212.253 25.5878 56.6264)
(-187.591 39.9527 12.9166)
(-223.86 -26.0273 212.424)
(-175.267 69.5838 59.9659)
(-247.588 -285.33 81.9912)
(-120.48 100.264 -63.8259)
(-239.012 -859.156 -551.535)
(-242.925 132.713 -136.113)
(-128.843 122.966 22.2453)
(-170.605 -1.80542 -14.6114)
(-198.164 -45.2269 -25.3348)
(-177.829 48.7676 57.2122)
(-165.707 -111.04 -228.638)
(-88.6032 66.5023 165.153)
(-49.9663 -94.9366 -158.269)
(-43.4209 71.2336 -72.1321)
(8.43048 -166.576 -631.508)
(-138.497 -14.3836 23.8097)
(-184.085 30.6753 22.8775)
(-213.17 26.2826 127.296)
(-169.059 31.2465 -6.61712)
(-170.987 -41.7164 -167.042)
(-136.562 25.6754 178.614)
(-85.7728 -49.2796 57.5213)
(-77.6416 24.9186 134.37)
(-24.9474 -105.155 -332.763)
(-56.4304 31.1332 126.923)
(-26.7771 -66.1343 -784.106)
(-164.619 5.23037 14.8441)
(-174.949 19.785 -54.2091)
(-208.084 -47.8956 -166.34)
(-197.059 6.89371 58.7894)
(-196.587 -18.278 210.274)
(-162.425 -4.67847 94.8298)
(-163.832 -167.188 160.638)
(-142.192 -11.1973 65.0737)
(-51.8194 -81.4612 374.13)
(-177.837 58.7419 18.6861)
(-255.933 33.2743 -10.8812)
(-196.426 8.9745 1.49664)
(-176.633 10.0856 9.17634)
(-193.435 17.523 46.9507)
(-164.466 57.8278 30.348)
(-178.861 -81.7235 173.444)
(-136.263 74.2579 18.7387)
(-179.155 -512.622 -229.004)
(-180.781 41.9406 -34.5136)
(-334.846 -116.078 -29.5762)
(-271.18 116.17 12.4003)
(-142.629 -71.5323 -88.8662)
(-113.031 23.0629 54.0459)
(-163.127 -120.973 -284.793)
(-111.882 23.9115 153.809)
(-171.07 -144.357 -417.511)
(-125.975 33.3567 135.788)
(-141.434 -69.8549 -249.124)
(-222.038 -54.6433 47.1154)
(-250.72 10.6543 24.0272)
(-191.904 -14.2304 8.511)
(-101.717 4.37308 36.8518)
(-142.56 -75.3278 -199.727)
(-112.153 -15.2872 134.211)
(-157.566 -139.545 -324.413)
(-138.041 -39.5192 172.484)
(-128.526 -109.667 -119.908)
(-150.016 -30.0664 104.187)
(-158.537 -100.018 -433.534)
(-242.374 -166.091 84.6588)
(-237.977 -57.6559 -2.45886)
(-141.361 -73.1135 -161.058)
(-99.6052 -29.5053 148.43)
(-242.123 -177.426 -347.728)
(-206.602 -45.4989 85.3851)
(-188.973 -51.7164 66.8456)
(-153.676 6.34354 54.557)
(-192.359 -72.4505 21.8893)
(-206.089 30.2689 -0.0280109)
(-127.32 -259.045 1470.01)
(-146.357 -88.9844 64.3499)
(-155.097 -38.739 79.1718)
(-223.912 -113.46 -150.418)
(-171.931 -61.8227 117.388)
(-197.017 -52.8314 -32.4663)
(-127.611 48.7048 -16.6997)
(-154.229 -27.2145 49.0782)
(-125.355 147.017 15.2715)
(-196.278 -35.5058 205.691)
(-113.131 286.06 56.8559)
(-198.525 -5.37314 -10.8901)
)
;

boundaryField
{
    inlet
    {
        type            calculated;
        value           nonuniform 0();
    }
    outlet
    {
        type            calculated;
        value           nonuniform 0();
    }
    bottom
    {
        type            calculated;
        value           uniform (0 0 0);
    }
    top
    {
        type            symmetryPlane;
    }
    side1
    {
        type            symmetryPlane;
    }
    side2
    {
        type            symmetryPlane;
    }
    procBoundary6to5
    {
        type            processor;
        value           nonuniform List<vector> 
20
(
(-131.829 -8.45549 -107.196)
(-126.24 50.693 148.639)
(-128.319 10.8264 -102.444)
(-77.9878 390.389 204.233)
(-177.992 18.6816 29.6453)
(-154.676 8.78593 -107.29)
(-171.46 6.31387 -41.8928)
(-193.382 -50.6603 -80.4225)
(-173.288 -13.015 -47.6392)
(-168.958 19.2354 42.6983)
(-203.048 -22.6211 -46.6495)
(-215.1 -30.9649 -12.36)
(-183.363 10.0029 68.7826)
(-166.866 -73.2224 -17.5388)
(-181.501 58.4553 87.4481)
(-179.633 -0.934337 -17.3055)
(-113.924 -5.06095 4.04114)
(-150.942 -18.6907 16.0739)
(-95.2539 -5.74369 41.8008)
(-190.747 -39.0393 -38.2054)
)
;
    }
    procBoundary6to7
    {
        type            processor;
        value           nonuniform List<vector> 
20
(
(74.8279 -278.431 -459.296)
(-46.6083 -62.6042 -95.4842)
(-17.7444 -82.5953 -47.9216)
(-61.431 134.779 23.5411)
(-249.201 -53.621 -43.9285)
(-148.725 -82.0487 -274.474)
(-200.472 58.059 35.0457)
(-134.398 82.1391 -32.6093)
(-175.464 4.58941 -5.34387)
(-184.191 -57.7115 6.46447)
(-174.881 24.2472 20.1818)
(-171.024 -52.7153 -19.3657)
(-167.504 1.30739 3.95415)
(-203.754 18.5029 21.9088)
(-200.658 16.5265 -0.116586)
(-220.849 60.1823 -24.2429)
(-194.81 12.1051 23.9761)
(-188.562 -31.494 -12.9976)
(-174.959 -3.50582 -13.7668)
(-194.585 -37.009 -37.4062)
)
;
    }
    procBoundary6to14
    {
        type            processor;
        value           nonuniform List<vector> 
50
(
(-95.0183 344.504 170.177)
(-144.153 122.388 23.0551)
(-170.53 152.83 7.20292)
(-324.479 -132.614 -32.6198)
(-195.229 227.151 127.599)
(-238.689 -409.957 -15.354)
(-392.736 -489.67 -48.3856)
(-216.001 71.191 -262.175)
(-665.234 -408.342 -46.0115)
(-178.072 7.32985 -621.152)
(-87.3115 68.4929 21.1609)
(-123.492 80.5188 -62.0287)
(-151.176 85.1766 42.0148)
(-150.901 156.028 54.6753)
(-178.677 -98.1497 22.9772)
(-218.468 -158.027 -10.1184)
(-133.325 86.8902 -145.066)
(-468.507 -318.545 -33.6042)
(-126.085 40.8263 -391.234)
(-164.072 54.3097 -19.8606)
(-154.111 -25.8255 -13.0761)
(-150.53 39.5682 28.5852)
(-161.247 25.4329 31.786)
(-149.71 64.8628 28.871)
(-182.277 -145.482 8.66489)
(-131.663 98.9178 -28.6378)
(-195.819 -441.116 -268.916)
(-194.635 148.381 -81.0317)
(-339.854 45.974 -38.5624)
(-238 143.124 5.94482)
(-164.056 -5.06161 16.717)
(-164.41 -11.2487 5.19446)
(-142.873 18.5201 9.49654)
(-141.727 -6.12818 41.3362)
(-97.6529 107.329 12.2015)
(-104.599 -267.67 -129.608)
(-109.876 63.7433 -78.2683)
(-231.189 -67.5812 -98.2706)
(-191.225 61.5374 -67.9949)
(-216.984 -24.888 24.7165)
(-203.23 -88.1848 -87.145)
(-150.799 -48.6067 70.8512)
(-210.64 -241.559 -49.1986)
(-134.465 -14.8534 46.5542)
(-148.568 -14.4037 -29.4805)
(-139.236 51.9419 -40.6598)
(-188.838 -49.4733 -58.6579)
(-164.118 124.046 -12.1813)
(-195.675 -43.8975 14.0595)
(-144.303 153.51 -26.1264)
)
;
    }
}


// ************************************************************************* //
