/*--------------------------------*- C++ -*----------------------------------*\
| =========                 |                                                 |
| \\      /  F ield         | OpenFOAM: The Open Source CFD Toolbox           |
|  \\    /   O peration     | Version:  2.4.0                                 |
|   \\  /    A nd           | Web:      www.OpenFOAM.org                      |
|    \\/     M anipulation  |                                                 |
\*---------------------------------------------------------------------------*/
FoamFile
{
    version     2.0;
    format      ascii;
    class       volVectorField;
    location    "0.02";
    object      A_Source_unsmoothed;
}
// * * * * * * * * * * * * * * * * * * * * * * * * * * * * * * * * * * * * * //

dimensions      [1 -2 -2 0 0 0 0];

internalField   nonuniform List<vector> 
200
(
(-524.085 155.316 -264.261)
(-7843.27 -4287.59 3012.04)
(-5683.92 5793.07 -6205.92)
(-731.089 -1631.64 -3085.76)
(-47.4419 241.048 1326.19)
(204.75 -591.749 -81.1187)
(-223.845 1597.36 6916.41)
(-0 -0 -0)
(-0 -0 0)
(-0 -0 -0)
(-0 -0 0)
(-373.626 100.79 -352.391)
(-2078.94 -933.556 1114.11)
(-829.518 446.576 -1029.44)
(-0 -0 -0)
(-0 -0 0)
(-672.653 -2924.42 -960.179)
(-855.901 -485.616 4970.43)
(-1122.38 -2036.83 -595.821)
(-0 -0 0)
(-322.256 -61.6138 -208.095)
(-0 -0 0)
(-634.765 378.486 -718.951)
(0 0 0)
(0 0 0)
(0 0 0)
(-479.471 -472.437 327.742)
(0 0 0)
(0 0 0)
(0 0 0)
(0 0 0)
(0 0 0)
(-561.344 24.0068 388.003)
(0 0 0)
(-388.203 -45.4259 -34.6164)
(0 0 0)
(0 0 0)
(0 0 0)
(0 0 0)
(0 0 0)
(0 0 0)
(-0 -0 -0)
(0 0 0)
(-569.666 -50.0247 -435.045)
(-290.347 -114.584 -286.933)
(-1338.73 1407.35 4081.91)
(-370.795 -690.418 209.067)
(0 0 0)
(-0 -0 0)
(0 0 0)
(-0 0 -0)
(-0 0 -0)
(-692.598 1333.71 -1392.59)
(-422.593 10.8654 -678.344)
(-837.442 118.656 -412.083)
(-922.627 -73.1638 -543.548)
(-1728.02 940.285 3085.35)
(-1293.22 -1420.63 -1510.15)
(0 0 0)
(0 0 0)
(0 0 0)
(0 0 0)
(0 0 0)
(-172.28 -31.4709 -13.4358)
(0 0 0)
(0 0 0)
(0 0 0)
(0 0 0)
(0 0 0)
(0 0 0)
(0 0 0)
(0 0 0)
(0 0 0)
(0 0 0)
(0 0 0)
(0 0 0)
(0 0 0)
(0 0 0)
(0 0 0)
(0 0 0)
(0 0 0)
(0 0 0)
(0 0 0)
(0 0 0)
(0 0 0)
(0 0 0)
(0 0 0)
(0 0 0)
(0 0 0)
(0 0 0)
(0 0 0)
(0 0 0)
(0 0 0)
(0 0 0)
(0 0 0)
(0 0 0)
(0 0 0)
(0 0 0)
(0 0 0)
(0 0 0)
(0 0 0)
(0 0 0)
(0 0 0)
(0 0 0)
(0 0 0)
(0 0 0)
(0 0 0)
(0 0 0)
(0 0 0)
(0 0 0)
(0 0 0)
(0 0 0)
(0 0 0)
(0 0 0)
(0 0 0)
(0 0 0)
(0 0 0)
(0 0 0)
(0 0 0)
(0 0 0)
(0 0 0)
(0 0 0)
(0 0 0)
(0 0 0)
(0 0 0)
(0 0 0)
(0 0 0)
(0 0 0)
(0 0 0)
(0 0 0)
(0 0 0)
(0 0 0)
(0 0 0)
(0 0 0)
(0 0 0)
(0 0 0)
(0 0 0)
(0 0 0)
(0 0 0)
(0 0 0)
(0 0 0)
(0 0 0)
(0 0 0)
(0 0 0)
(0 0 0)
(0 0 0)
(0 0 0)
(0 0 0)
(0 0 0)
(0 0 0)
(0 0 0)
(0 0 0)
(0 0 0)
(0 0 0)
(0 0 0)
(0 0 0)
(0 0 0)
(0 0 0)
(0 0 0)
(0 0 0)
(0 0 0)
(0 0 0)
(0 0 0)
(0 0 0)
(0 0 0)
(0 0 0)
(0 0 0)
(0 0 0)
(0 0 0)
(0 0 0)
(0 0 0)
(0 0 0)
(0 0 0)
(0 0 0)
(0 0 0)
(0 0 0)
(0 0 0)
(0 0 0)
(0 0 0)
(0 0 0)
(0 0 0)
(0 0 0)
(0 0 0)
(0 0 0)
(0 0 0)
(0 0 0)
(0 0 0)
(0 0 0)
(0 0 0)
(0 0 0)
(0 0 0)
(0 0 0)
(0 0 0)
(0 0 0)
(0 0 0)
(0 0 0)
(0 0 0)
(0 0 0)
(0 0 0)
(0 0 0)
)
;

boundaryField
{
    inlet
    {
        type            zeroGradient;
    }
    outlet
    {
        type            zeroGradient;
    }
    bottom
    {
        type            zeroGradient;
    }
    top
    {
        type            symmetryPlane;
    }
    side1
    {
        type            symmetryPlane;
    }
    side2
    {
        type            symmetryPlane;
    }
    procBoundary3to2
    {
        type            processor;
        value           uniform (0 0 0);
    }
    procBoundary3to4
    {
        type            processor;
        value           uniform (0 0 0);
    }
    procBoundary3to11
    {
        type            processor;
        value           uniform (0 0 0);
    }
}


// ************************************************************************* //
