/*--------------------------------*- C++ -*----------------------------------*\
| =========                 |                                                 |
| \\      /  F ield         | OpenFOAM: The Open Source CFD Toolbox           |
|  \\    /   O peration     | Version:  2.4.0                                 |
|   \\  /    A nd           | Web:      www.OpenFOAM.org                      |
|    \\/     M anipulation  |                                                 |
\*---------------------------------------------------------------------------*/
FoamFile
{
    version     2.0;
    format      ascii;
    class       volScalarField;
    location    "0.02";
    object      nut;
}
// * * * * * * * * * * * * * * * * * * * * * * * * * * * * * * * * * * * * * //

dimensions      [0 2 -1 0 0 0 0];

internalField   nonuniform List<scalar> 
200
(
0.000197948
0.00026076
0.000534499
0.000330166
0.000371341
0.000834555
0.000893088
0.00127078
0.00108119
0.00221549
0.000212442
0.000255855
0.000109104
0.000552672
0.000329484
0.000434199
0.000510657
0.00032385
0.0010463
0.000696924
0.000261587
0.000191123
0.000215311
0.000106834
0.000557136
0.000245274
0.000448811
0.000422059
0.000838658
0.000590692
0.00015155
0.000221656
0.000145894
0.000321103
3.89914e-05
0.000358254
0.000214084
0.00115123
0.00065949
0.00116574
0.000330831
0.00057319
0.000276926
0.000213022
0.000694442
0.000588449
0.00128263
0.00141266
0.00166163
0.00178987
0.000240426
0.000113339
0.000724133
0.000131345
0.000385411
0.000500886
0.000559906
0.000946803
0.000463272
0.00202441
0.000175993
0.000300913
0.000151214
0.000249962
0.000334681
0.000605569
0.000193343
0.000589817
0.000747428
0.00122966
0.000149373
0.000114631
0.000207108
0.000205933
0.000127532
0.000182017
0.000584888
0.000241116
0.00176753
0.000230963
0.000530265
0.00066572
0.000447701
0.000443698
0.000437836
0.000752617
0.000990138
0.00178897
0.00218356
0.0019276
0.000709143
0.000501358
0.000488614
0.000689594
0.000524667
0.00090037
0.000637412
0.000820832
0.00168612
0.00137133
0.000354302
0.00030447
0.000332178
0.000531968
0.000495188
0.000681078
0.00145672
0.000502281
0.00117574
0.000812506
0.000240152
0.000413509
0.000190656
0.000397006
0.000690289
0.000308679
0.000141383
0.00160703
0.000100286
0.00232622
0.00152822
0.000250488
0.000378824
0.000278034
0.000211456
0.000448519
0.000954506
0.00101656
0.00135292
0.00218164
0.000368811
0.00123633
0.000206213
0.000309223
0.000807087
0.000416865
0.000872478
0.000630164
0.000700919
0.00238456
0.000506098
0.000606573
0.000216089
0.000405037
0.000335923
0.000801757
0.000569412
0.00139748
0.000436368
0.00141313
0.000463398
0.0003131
0.000227898
0.000489241
0.000362906
0.000368395
0.000966347
8.60938e-05
0.00117756
0.000187299
0.000187582
0.000301825
0.000182753
0.000266435
0.000328768
0.000365968
0.000417029
0.000412493
0.000860517
0.00142494
0.000363034
0.000277171
0.000269362
0.000141047
0.000263966
0.000561533
0.000289482
0.000313448
0.00058989
0.000715235
0.000708913
0.000241809
0.000327577
0.000341861
0.000248022
0.000429961
0.000458403
0.000384693
0.000311413
0.000395544
0.000251922
0.000669121
0.000337985
0.000158153
0.000405095
0.00031773
0.000309696
0.0001669
0.000112826
0.000214208
)
;

boundaryField
{
    inlet
    {
        type            calculated;
        value           nonuniform 0();
    }
    outlet
    {
        type            calculated;
        value           nonuniform 0();
    }
    bottom
    {
        type            calculated;
        value           nonuniform List<scalar> 
40
(
1.64629e-28
4.89287e-28
1.48044e-28
4.20627e-28
4.73985e-28
1.39138e-28
5.38196e-28
1.52885e-28
4.40454e-28
4.58697e-28
1.83365e-28
4.60899e-28
2.44508e-28
4.38529e-28
3.73954e-28
2.6282e-28
6.73231e-28
2.95193e-28
4.3059e-28
1.32751e-28
4.4503e-28
8.51242e-28
2.86741e-28
3.09192e-28
2.25448e-27
4.4686e-28
5.32222e-28
2.41383e-28
8.63825e-29
1.29676e-27
4.50542e-28
1.13595e-27
2.72547e-27
6.45047e-28
8.53373e-28
6.42965e-28
7.86216e-28
9.50502e-28
4.75503e-28
1.27859e-27
)
;
    }
    top
    {
        type            symmetryPlane;
    }
    side1
    {
        type            symmetryPlane;
    }
    side2
    {
        type            symmetryPlane;
    }
    procBoundary3to2
    {
        type            processor;
        value           nonuniform List<scalar> 
20
(
0.000412613
0.000177861
0.000199577
0.000226303
0.000250349
0.000182912
0.00028908
0.000144359
0.000684867
0.000286415
9.51664e-05
0.000297014
0.000945161
0.0010595
0.000366119
0.000155731
0.00037123
0.000376576
0.000257086
0.00032382
)
;
    }
    procBoundary3to4
    {
        type            processor;
        value           nonuniform List<scalar> 
20
(
0.000912758
0.00103544
0.000757256
0.000609919
0.00411945
0.00274767
0.000290874
0.00217492
0.00347573
0.00282745
0.00228578
0.000186115
0.00317687
0.00125482
0.00133674
0.0004713
0.000988209
0.000674481
0.000710044
0.000226825
)
;
    }
    procBoundary3to11
    {
        type            processor;
        value           nonuniform List<scalar> 
50
(
0.000182345
0.000183495
0.000314175
0.000125926
0.000469593
0.000200017
0.000324452
0.000398301
0.00100806
0.000493947
0.000159275
0.000156828
8.67807e-05
0.000525371
0.000161148
0.00040313
0.000279496
0.00272376
0.00015828
0.00317508
0.000327586
0.000291579
0.000300328
0.000482462
0.000209295
0.000413247
0.00108302
7.73336e-05
0.00262329
4.25046e-05
0.000373768
0.000424837
0.000388967
9.51044e-05
0.0010121
0.000737688
0.000158102
0.001101
3.14351e-05
0.000415756
0.000402665
0.000405393
0.000483496
0.00124895
0.000414593
0.00135596
0.000396316
9.28401e-05
0.00019501
9.05123e-05
)
;
    }
}


// ************************************************************************* //
