/*--------------------------------*- C++ -*----------------------------------*\
| =========                 |                                                 |
| \\      /  F ield         | OpenFOAM: The Open Source CFD Toolbox           |
|  \\    /   O peration     | Version:  2.4.0                                 |
|   \\  /    A nd           | Web:      www.OpenFOAM.org                      |
|    \\/     M anipulation  |                                                 |
\*---------------------------------------------------------------------------*/
FoamFile
{
    version     2.0;
    format      ascii;
    class       volVectorField;
    location    "0.02";
    object      Ua;
}
// * * * * * * * * * * * * * * * * * * * * * * * * * * * * * * * * * * * * * //

dimensions      [0 1 -1 0 0 0 0];

internalField   nonuniform List<vector> 
200
(
(1.32645 0.326578 0.239072)
(1.18758 0.16242 0.209236)
(1.15405 0.0996624 0.173428)
(1.08634 0.11028 0.188294)
(0.671737 0.0903428 0.0848222)
(1.50324 0.191364 0.162603)
(0.647657 0.150186 0.0410031)
(1.2652 0.206269 0.126693)
(1.04105 0.623821 -0.0529664)
(1.19065 -0.0558588 -0.0131134)
(1.28614 0.49763 0.0897976)
(1.31853 0.463348 0.0722119)
(1.72679 0.538948 0.238305)
(1.883 0.517194 0.2916)
(1.7705 0.472218 0.276456)
(1.53494 0.203834 0.223932)
(1.49581 0.169471 0.229104)
(2.51753 0.320127 0.302172)
(1.0537 0.696934 -0.0634878)
(1.03332 0.703233 -0.0690971)
(1.11822 0.797825 0.0266178)
(1.4352 0.741639 0.033375)
(1.60992 0.74954 0.0336406)
(1.72379 0.663171 0.144656)
(1.93544 0.968509 0.138324)
(2.66869 0.985048 0.203651)
(2.6739 0.98624 0.203955)
(2.64607 0.852389 0.223968)
(1.22778 0.723643 -0.0339662)
(1.10745 0.716231 -0.056388)
(1.13381 0.799459 0.0278469)
(1.39768 0.825458 0.0483853)
(1.39948 0.826205 0.048584)
(1.65046 0.946905 0.0820064)
(1.9034 1.07172 0.114651)
(1.9148 1.07055 0.115968)
(2.655 0.990841 0.201338)
(2.65338 0.915084 0.213997)
(1.40173 0.751757 -0.00463751)
(1.19022 0.729363 -0.0422224)
(1.32248 0.319479 0.239271)
(1.20182 0.163636 0.220318)
(1.4338 0.103641 0.402056)
(1.80197 -0.145579 0.722873)
(1.99681 0.0763883 0.725313)
(2.0931 0.115987 0.623678)
(2.15982 0.0807708 0.503944)
(2.20841 0.119018 0.459672)
(2.19941 0.161955 0.413624)
(1.31995 -0.0365502 0.0252834)
(1.71205 0.629501 0.566403)
(1.75571 0.640239 0.612078)
(1.78081 0.648268 0.641119)
(1.84214 0.32501 0.603385)
(1.98187 0.261785 0.554655)
(2.31852 0.701175 0.256494)
(2.19088 0.162291 0.859145)
(2.40117 0.276318 0.297883)
(2.27891 0.315983 0.259016)
(2.17186 0.349869 0.228862)
(1.12139 0.797234 0.0290528)
(1.75339 0.691275 0.454266)
(1.84903 0.690554 0.508899)
(1.93036 0.697898 0.535788)
(1.94189 0.609055 0.538821)
(2.30458 0.704636 0.272386)
(2.39858 0.514435 0.579705)
(2.40648 0.291499 0.298187)
(2.28358 0.323564 0.25957)
(2.17658 0.355263 0.229537)
(1.1386 0.799207 0.0299906)
(1.42654 0.816805 0.0794332)
(1.44267 0.814443 0.091928)
(1.92429 0.704605 0.525366)
(1.90601 1.0384 0.147949)
(2.01431 0.967361 0.164831)
(2.47051 0.663859 0.460414)
(2.41281 0.310494 0.297797)
(2.28916 0.332953 0.259928)
(2.1817 0.361559 0.230055)
(1.31961 0.312886 0.240193)
(1.21904 0.165264 0.23375)
(1.54535 0.105242 0.493044)
(1.81028 -0.146405 0.728294)
(1.9994 0.0756331 0.726158)
(2.09385 0.115956 0.623735)
(2.16115 0.0807774 0.505318)
(2.20959 0.11871 0.460821)
(2.22077 0.153112 0.422826)
(1.4378 -0.016389 0.0646655)
(1.7435 0.638988 0.601525)
(1.76774 0.644707 0.626808)
(1.78104 0.647696 0.641711)
(1.84211 0.326217 0.60504)
(1.98272 0.26368 0.553865)
(2.3164 0.696475 0.260673)
(2.19362 0.164903 0.855248)
(2.40002 0.275736 0.300315)
(2.33766 0.29733 0.275792)
(2.27682 0.317047 0.257169)
(1.12629 0.796336 0.0328372)
(1.79737 0.684136 0.512467)
(1.86377 0.686649 0.538281)
(1.93027 0.697454 0.53591)
(1.94214 0.608699 0.538795)
(2.29689 0.698053 0.278456)
(2.32433 0.387606 0.678644)
(2.40272 0.284299 0.301461)
(2.3398 0.301855 0.276499)
(2.27903 0.320422 0.257769)
(1.14457 0.798744 0.0330554)
(1.45796 0.807409 0.113279)
(1.48823 0.802012 0.137764)
(1.92693 0.701996 0.529774)
(1.90885 1.00247 0.183811)
(2.06996 0.905277 0.196278)
(2.3912 0.523635 0.569973)
(2.40596 0.295024 0.302201)
(2.34234 0.307417 0.277072)
(2.28134 0.324343 0.258242)
(1.31786 0.306778 0.241879)
(1.23862 0.167226 0.249037)
(1.60541 0.106117 0.541899)
(1.81362 -0.145441 0.729994)
(2.00001 0.0749192 0.726045)
(2.09418 0.115971 0.623476)
(2.16143 0.0808365 0.50636)
(2.20983 0.118492 0.461634)
(2.22793 0.14993 0.426313)
(1.5429 0.00315165 0.102587)
(1.75506 0.642303 0.614387)
(1.77194 0.645998 0.631867)
(1.78121 0.646998 0.641851)
(1.84221 0.328004 0.60567)
(1.98352 0.265567 0.553075)
(2.31426 0.691817 0.264786)
(2.19539 0.167481 0.850578)
(2.39904 0.275224 0.302736)
(2.35822 0.290543 0.282552)
(2.31604 0.30461 0.268324)
(1.13314 0.795089 0.0381666)
(1.81486 0.681174 0.535612)
(1.86908 0.685058 0.548912)
(1.93016 0.697002 0.53601)
(1.94239 0.608423 0.53868)
(2.29148 0.693221 0.283988)
(2.29035 0.329869 0.72218)
(2.40086 0.281553 0.304144)
(2.3596 0.293934 0.283345)
(2.31749 0.307171 0.268939)
(1.15185 0.798047 0.0371455)
(1.49021 0.797773 0.148064)
(1.53281 0.789815 0.182718)
(1.92778 0.700962 0.531293)
(1.91171 0.966575 0.219604)
(2.10435 0.863333 0.219075)
(2.34744 0.446565 0.629005)
(2.40302 0.289402 0.305258)
(2.36123 0.298054 0.284039)
(2.31895 0.310116 0.269453)
(1.31726 0.301135 0.243932)
(1.25996 0.169443 0.265215)
(1.64304 0.106677 0.57123)
(1.81569 -0.144021 0.729385)
(2.00014 0.0742307 0.724336)
(2.0944 0.115992 0.621981)
(2.16144 0.0809115 0.506364)
(2.20983 0.118299 0.461405)
(2.23145 0.148202 0.427358)
(1.63501 0.0212461 0.13732)
(1.76109 0.643897 0.619647)
(1.77411 0.64646 0.633105)
(1.78137 0.646264 0.640686)
(1.84235 0.329899 0.604898)
(1.98431 0.267434 0.551271)
(2.31215 0.687212 0.268329)
(2.19689 0.170017 0.844202)
(2.3981 0.274738 0.304568)
(2.36854 0.286942 0.286029)
(2.33646 0.298005 0.273949)
(1.14217 0.793454 0.0451134)
(1.82425 0.679485 0.546813)
(1.8718 0.6841 0.55327)
(1.93005 0.696545 0.535113)
(1.94263 0.608164 0.537434)
(2.28673 0.688906 0.28866)
(2.27117 0.297549 0.743836)
(2.39948 0.279949 0.306025)
(2.36955 0.289744 0.286807)
(2.33755 0.300127 0.274521)
(1.16055 0.797094 0.0422578)
(1.52201 0.788273 0.18197)
(1.57442 0.778401 0.224252)
(1.92818 0.700326 0.530984)
(1.91446 0.932437 0.253073)
(2.12694 0.832741 0.236375)
(2.3199 0.398339 0.663497)
(2.4011 0.28634 0.307249)
(2.37074 0.293109 0.287508)
(2.33862 0.302542 0.275009)
)
;

boundaryField
{
    inlet
    {
        type            calculated;
        value           nonuniform 0();
    }
    outlet
    {
        type            calculated;
        value           nonuniform 0();
    }
    bottom
    {
        type            calculated;
        value           uniform (0 0 0);
    }
    top
    {
        type            symmetryPlane;
    }
    side1
    {
        type            symmetryPlane;
    }
    side2
    {
        type            symmetryPlane;
    }
    procBoundary3to2
    {
        type            processor;
        value           nonuniform List<vector> 
20
(
(1.14666 0.290258 0.206978)
(1.18928 0.476763 0.0916366)
(0.92978 0.663506 0.0221346)
(0.966384 0.685898 0.0233415)
(1.17563 0.294466 0.212591)
(1.64156 0.610337 0.5114)
(0.958146 0.682646 0.0237362)
(0.988426 0.700268 0.0246336)
(1.19705 0.296649 0.217049)
(1.70235 0.62805 0.568035)
(0.980446 0.696928 0.0256515)
(1.00647 0.711409 0.0261442)
(1.2136 0.297549 0.220856)
(1.72628 0.634863 0.590433)
(0.998981 0.707921 0.0280014)
(1.02187 0.720253 0.0279425)
(1.2269 0.297612 0.223899)
(1.73902 0.638372 0.600919)
(1.01518 0.716573 0.0308184)
(1.03554 0.727405 0.0300207)
)
;
    }
    procBoundary3to4
    {
        type            processor;
        value           nonuniform List<vector> 
20
(
(1.43313 -0.0742432 -0.0152566)
(1.62831 0.761579 0.0374448)
(1.64903 0.853434 0.0431005)
(1.65662 0.888368 0.0451913)
(1.43314 -0.0740117 -0.0152389)
(1.66126 0.74023 0.0482521)
(1.68875 0.82206 0.0561934)
(1.70171 0.850379 0.0600878)
(1.43319 -0.0737641 -0.0152091)
(1.69878 0.716079 0.0605949)
(1.73199 0.78811 0.0704941)
(1.74911 0.810645 0.0758045)
(1.43326 -0.073498 -0.0151629)
(1.7391 0.690257 0.0738969)
(1.77675 0.753118 0.085353)
(1.79681 0.770794 0.0916912)
(1.43339 -0.0732102 -0.0150705)
(1.78066 0.663723 0.0874661)
(1.82146 0.718269 0.100016)
(1.84339 0.73198 0.106994)
)
;
    }
    procBoundary3to11
    {
        type            processor;
        value           nonuniform List<vector> 
50
(
(1.1305 0.788875 0.0285117)
(1.1982 0.708338 0.0415958)
(1.16487 0.688329 0.0405164)
(1.41316 0.811792 0.0700504)
(1.58272 0.891166 0.0953299)
(1.6374 0.917593 0.09899)
(2.61418 0.985867 0.197328)
(2.64433 0.937471 0.209018)
(1.56304 0.778674 0.0225569)
(1.27756 0.743131 -0.0272992)
(1.13715 0.789028 0.0307305)
(1.24417 0.722024 0.0585462)
(1.23252 0.707406 0.0659197)
(1.90621 0.705836 0.512276)
(1.64219 0.905593 0.11775)
(1.74215 0.907231 0.126843)
(2.48535 0.74261 0.391724)
(2.4193 0.332671 0.296675)
(2.29541 0.344002 0.260064)
(2.18741 0.3688 0.230478)
(1.14471 0.789008 0.0336997)
(1.28615 0.731486 0.0775029)
(1.29339 0.719929 0.0939153)
(1.91727 0.703302 0.522259)
(1.68879 0.91024 0.141878)
(1.8191 0.893928 0.150748)
(2.41631 0.612512 0.4945)
(2.40931 0.307737 0.302481)
(2.34518 0.313978 0.277488)
(2.28388 0.328845 0.258631)
(1.15321 0.788802 0.0374671)
(1.32519 0.737871 0.0978998)
(1.34893 0.727919 0.123273)
(1.92104 0.702329 0.525707)
(1.72627 0.908241 0.166918)
(1.87711 0.87967 0.171627)
(2.37353 0.532152 0.557035)
(2.40523 0.298695 0.306025)
(2.36302 0.302889 0.284611)
(2.32055 0.313476 0.269898)
(1.16269 0.788398 0.0419736)
(1.36184 0.741974 0.118925)
(1.3998 0.732719 0.152603)
(1.92293 0.701759 0.526273)
(1.75693 0.901779 0.191722)
(1.92177 0.865418 0.189687)
(2.34456 0.477963 0.596966)
(2.40271 0.293876 0.308188)
(2.37204 0.297033 0.288108)
(2.33978 0.305278 0.27544)
)
;
    }
}


// ************************************************************************* //
