/*--------------------------------*- C++ -*----------------------------------*\
| =========                 |                                                 |
| \\      /  F ield         | OpenFOAM: The Open Source CFD Toolbox           |
|  \\    /   O peration     | Version:  2.4.0                                 |
|   \\  /    A nd           | Web:      www.OpenFOAM.org                      |
|    \\/     M anipulation  |                                                 |
\*---------------------------------------------------------------------------*/
FoamFile
{
    version     2.0;
    format      ascii;
    class       volScalarField;
    location    "0.04";
    object      alpha;
}
// * * * * * * * * * * * * * * * * * * * * * * * * * * * * * * * * * * * * * //

dimensions      [0 0 0 0 0 0 0];

internalField   nonuniform List<scalar> 
200
(
3.7662e-14
1.7586e-12
4.63457e-11
1.79568e-12
1.79567e-12
4.63457e-11
1.75859e-12
3.70884e-14
5.73668e-16
7.25866e-18
3.56569e-12
1.85242e-10
5.49122e-09
1.88758e-10
1.88758e-10
5.49122e-09
1.85242e-10
3.51625e-12
4.94451e-14
5.73634e-16
3.76621e-14
1.7586e-12
4.63457e-11
1.79568e-12
1.79574e-12
4.63457e-11
1.7586e-12
3.70884e-14
5.73666e-16
7.26015e-18
2.19725e-16
9.31156e-15
2.20817e-13
9.76616e-15
1.51842e-14
2.21051e-13
9.31696e-15
2.1617e-16
3.64844e-18
5.00353e-20
1.82302e-11
9.47225e-10
2.80831e-08
9.65197e-10
9.65197e-10
2.80831e-08
9.47223e-10
1.79775e-11
2.52759e-13
2.93193e-15
1.918e-09
1.12265e-07
3.80337e-06
1.14158e-07
1.14158e-07
3.80337e-06
1.12264e-07
1.89403e-09
2.39675e-11
2.52748e-13
1.82302e-11
9.47226e-10
2.80831e-08
9.652e-10
9.65255e-10
2.80831e-08
9.47223e-10
1.79775e-11
2.5276e-13
2.93194e-15
9.66411e-14
4.51165e-12
1.18877e-10
4.83804e-12
1.06969e-11
1.19103e-10
4.51644e-12
9.52435e-14
1.47328e-15
1.86478e-17
4.90987e-09
2.87387e-07
9.73637e-06
2.92235e-07
2.92235e-07
9.73637e-06
2.87387e-07
4.84852e-09
6.13536e-11
6.46995e-13
5.81137e-07
3.89272e-05
0.00153844
3.95017e-05
3.95017e-05
0.00153844
3.89271e-05
5.74673e-07
6.46414e-09
6.13512e-11
4.90987e-09
2.87387e-07
9.73637e-06
2.92236e-07
2.92281e-07
9.73638e-06
2.87387e-07
4.84851e-09
6.13535e-11
6.46995e-13
2.34172e-11
1.21632e-09
3.60508e-08
1.42636e-09
6.77687e-09
3.62342e-08
1.21982e-09
2.31418e-11
3.25359e-13
3.77454e-15
1.82313e-11
9.47226e-10
2.80831e-08
9.65213e-10
9.65574e-10
2.80831e-08
9.47223e-10
1.79775e-11
2.5276e-13
2.93194e-15
1.918e-09
1.12265e-07
3.80337e-06
1.14163e-07
1.14277e-07
3.80338e-06
1.12264e-07
1.89403e-09
2.39675e-11
2.52748e-13
1.82332e-11
9.47481e-10
2.81012e-08
1.91868e-09
2.92131e-08
2.90366e-08
9.65332e-10
1.82322e-11
2.55717e-13
2.96191e-15
3.55281e-13
2.87817e-11
2.03443e-09
1.13403e-07
3.83697e-06
1.13517e-07
1.92007e-09
2.43653e-11
2.57733e-13
2.39974e-15
2.88836e-13
1.77026e-12
4.64274e-11
5.658e-12
1.03528e-10
5.0208e-11
1.84009e-12
3.83497e-14
5.89635e-16
7.43535e-18
3.57005e-12
1.85569e-10
5.51441e-09
1.40954e-09
3.63545e-08
6.712e-09
2.08429e-10
3.8425e-12
5.32323e-14
6.12005e-16
6.97433e-13
6.36899e-11
4.93594e-09
2.89552e-07
9.80046e-06
2.89597e-07
4.89135e-09
6.19684e-11
6.54272e-13
6.07928e-15
6.27801e-11
6.54972e-09
5.81433e-07
3.93277e-05
0.001552
3.93277e-05
5.81433e-07
6.54971e-09
6.22539e-11
5.25972e-13
)
;

boundaryField
{
    inlet
    {
        type            zeroGradient;
    }
    outlet
    {
        type            zeroGradient;
    }
    bottom
    {
        type            fixedValue;
        value           uniform 0;
    }
    top
    {
        type            symmetryPlane;
    }
    side1
    {
        type            symmetryPlane;
    }
    side2
    {
        type            symmetryPlane;
    }
    procBoundary24to16
    {
        type            processor;
        value           nonuniform List<scalar> 
50
(
2.18802e-16
9.27564e-15
2.20039e-13
9.49054e-15
9.49053e-15
2.20039e-13
9.27542e-15
2.14987e-16
3.61845e-18
5.00419e-20
9.62691e-14
4.49579e-12
1.18497e-10
4.59052e-12
4.59056e-12
1.18497e-10
4.49574e-12
9.48022e-14
1.46522e-15
1.85168e-17
2.33354e-11
1.21244e-09
3.59463e-08
1.23545e-09
1.23545e-09
3.59463e-08
1.21244e-09
2.30109e-11
3.23526e-13
3.75272e-15
4.87888e-13
4.51197e-12
1.18498e-10
4.59058e-12
4.59151e-12
1.18497e-10
4.49575e-12
9.48005e-14
1.46611e-15
1.85518e-17
1.05343e-10
3.9427e-12
3.02795e-13
2.09491e-14
2.51011e-13
2.30223e-13
9.51165e-15
2.19144e-16
3.68486e-18
5.04131e-20
)
;
    }
    procBoundary24to25
    {
        type            processor;
        value           nonuniform List<scalar> 
20
(
7.93007e-20
5.79664e-18
7.93544e-20
5.88066e-22
2.9623e-17
2.34548e-15
2.96808e-17
2.04561e-19
6.00398e-15
5.17593e-13
6.00412e-15
3.82191e-17
2.96807e-17
2.34553e-15
2.99548e-17
2.03173e-17
8.13401e-20
6.15791e-18
5.13524e-17
4.07355e-15
)
;
    }
}


// ************************************************************************* //
