/*--------------------------------*- C++ -*----------------------------------*\
| =========                 |                                                 |
| \\      /  F ield         | OpenFOAM: The Open Source CFD Toolbox           |
|  \\    /   O peration     | Version:  2.4.0                                 |
|   \\  /    A nd           | Web:      www.OpenFOAM.org                      |
|    \\/     M anipulation  |                                                 |
\*---------------------------------------------------------------------------*/
FoamFile
{
    version     2.0;
    format      ascii;
    class       volVectorField;
    location    "0.04";
    object      Uc;
}
// * * * * * * * * * * * * * * * * * * * * * * * * * * * * * * * * * * * * * //

dimensions      [0 1 -1 0 0 0 0];

internalField   nonuniform List<vector> 
200
(
(8.58763e-14 5.73346e-14 -5.49332e-13)
(4.00993e-12 2.67717e-12 -2.56506e-11)
(1.05676e-10 7.05504e-11 -6.75985e-10)
(4.0625e-12 2.44608e-12 -2.57978e-11)
(2.57877e-12 -1.09026e-11 -7.52571e-12)
(6.57327e-11 -2.88809e-10 -1.84082e-10)
(2.49422e-12 -1.0959e-11 -6.98486e-12)
(5.26026e-14 -2.31124e-13 -1.47308e-13)
(8.13632e-16 -3.57495e-15 -2.2785e-15)
(1.02972e-17 -4.52343e-17 -2.8832e-17)
(8.13042e-12 5.42823e-12 -5.20086e-11)
(4.22386e-10 2.82002e-10 -2.70191e-09)
(1.25209e-08 8.35924e-09 -8.00936e-08)
(4.27371e-10 2.60092e-10 -2.71587e-09)
(2.70746e-10 -1.14902e-09 -7.87029e-10)
(7.78825e-09 -3.42194e-08 -2.18105e-08)
(2.62729e-10 -1.15437e-09 -7.3575e-10)
(4.9871e-12 -2.19123e-11 -1.39659e-11)
(7.01281e-14 -3.08129e-13 -1.96387e-13)
(8.13589e-16 -3.57473e-15 -2.27836e-15)
(8.58763e-14 5.73347e-14 -5.49333e-13)
(4.00993e-12 2.67717e-12 -2.56506e-11)
(1.05676e-10 7.05505e-11 -6.75985e-10)
(4.06227e-12 2.44615e-12 -2.57978e-11)
(2.57382e-12 -1.09011e-11 -7.52533e-12)
(6.57324e-11 -2.88809e-10 -1.84082e-10)
(2.49422e-12 -1.0959e-11 -6.98486e-12)
(5.26025e-14 -2.31125e-13 -1.47309e-13)
(8.13631e-16 -3.57493e-15 -2.27849e-15)
(1.02972e-17 -4.52434e-17 -2.8836e-17)
(5.00901e-16 3.31711e-16 -3.20484e-15)
(2.1224e-14 1.40681e-14 -1.35814e-13)
(5.03025e-13 3.33906e-13 -3.22065e-12)
(1.62355e-15 1.85376e-14 -1.35093e-13)
(-4.58203e-13 8.06363e-14 -2.70629e-15)
(2.93266e-13 -1.36056e-12 -8.75479e-13)
(1.2744e-14 -5.74442e-14 -3.69469e-14)
(2.9865e-16 -1.33294e-15 -8.57598e-16)
(5.06558e-18 -2.24903e-17 -1.44773e-17)
(6.9677e-20 -3.08294e-19 -1.98571e-19)
(4.15682e-11 2.77527e-11 -2.65903e-10)
(2.15985e-09 1.442e-09 -1.38161e-08)
(6.40345e-08 4.27507e-08 -4.09614e-07)
(2.18533e-09 1.32998e-09 -1.38874e-08)
(1.38444e-09 -5.87545e-09 -4.02438e-09)
(3.98306e-08 -1.75004e-07 -1.11543e-07)
(1.34345e-09 -5.90282e-09 -3.76221e-09)
(2.54975e-11 -1.12031e-10 -7.14032e-11)
(3.58489e-13 -1.57513e-12 -1.00391e-12)
(4.15838e-15 -1.8271e-14 -1.16451e-14)
(4.37339e-09 2.91987e-09 -2.79756e-08)
(2.55984e-07 1.70905e-07 -1.63747e-06)
(8.67237e-06 5.78992e-06 -5.54752e-05)
(2.58669e-07 1.59103e-07 -1.64499e-06)
(1.63543e-07 -6.96716e-07 -4.73516e-07)
(5.39435e-06 -2.37014e-05 -1.51065e-05)
(1.59225e-07 -6.99599e-07 -4.45894e-07)
(2.68631e-09 -1.18031e-08 -7.52274e-09)
(3.39931e-11 -1.49359e-10 -9.51942e-11)
(3.58473e-13 -1.57506e-12 -1.00387e-12)
(4.15682e-11 2.77528e-11 -2.65903e-10)
(2.15985e-09 1.442e-09 -1.38161e-08)
(6.40344e-08 4.27507e-08 -4.09614e-07)
(2.18513e-09 1.33004e-09 -1.38874e-08)
(1.37963e-09 -5.87403e-09 -4.024e-09)
(3.98304e-08 -1.75004e-07 -1.11543e-07)
(1.34345e-09 -5.90281e-09 -3.76221e-09)
(2.54974e-11 -1.1203e-10 -7.14032e-11)
(3.58488e-13 -1.57513e-12 -1.00391e-12)
(4.15837e-15 -1.82711e-14 -1.16451e-14)
(2.20276e-13 1.46008e-13 -1.40957e-12)
(1.02809e-11 6.82182e-12 -6.58045e-11)
(2.70641e-10 1.79932e-10 -1.7338e-09)
(-8.87615e-12 1.18705e-11 -6.46526e-11)
(-5.01445e-10 1.20994e-10 2.09807e-11)
(1.49299e-10 -7.30453e-10 -4.70621e-10)
(5.99135e-12 -2.77989e-11 -1.78869e-11)
(1.28669e-13 -5.86654e-13 -3.7749e-13)
(2.00828e-15 -9.07481e-15 -5.84145e-15)
(2.55558e-17 -1.14832e-16 -7.39542e-17)
(1.11954e-08 7.47455e-09 -7.16145e-08)
(6.55296e-07 4.37503e-07 -4.19178e-06)
(2.22007e-05 1.48218e-05 -0.000142013)
(6.6217e-07 4.07291e-07 -4.21103e-06)
(4.18656e-07 -1.78353e-06 -1.21216e-06)
(1.38092e-05 -6.0674e-05 -3.86716e-05)
(4.07602e-07 -1.79091e-06 -1.14145e-06)
(6.87666e-09 -3.02146e-08 -1.92574e-08)
(8.70179e-11 -3.82339e-10 -2.43685e-10)
(9.17634e-13 -4.0319e-12 -2.56974e-12)
(1.3251e-06 8.84697e-07 -8.47638e-06)
(8.87611e-05 5.92608e-05 -0.000567786)
(0.00350791 0.00234201 -0.0224394)
(8.95759e-05 5.56799e-05 -0.000570067)
(5.65207e-05 -0.000241708 -0.000162993)
(0.00218197 -0.00958708 -0.00611043)
(5.52105e-05 -0.000242583 -0.000154611)
(8.15061e-07 -3.5812e-06 -2.28249e-06)
(9.16811e-09 -4.02828e-08 -2.56743e-08)
(8.70146e-11 -3.82324e-10 -2.43675e-10)
(1.11954e-08 7.47455e-09 -7.16146e-08)
(6.55296e-07 4.37503e-07 -4.19178e-06)
(2.22007e-05 1.48218e-05 -0.000142013)
(6.62023e-07 4.07335e-07 -4.21102e-06)
(4.14771e-07 -1.78238e-06 -1.21185e-06)
(1.3809e-05 -6.06739e-05 -3.86716e-05)
(4.07599e-07 -1.79091e-06 -1.14145e-06)
(6.87662e-09 -3.02146e-08 -1.92574e-08)
(8.70173e-11 -3.82338e-10 -2.43684e-10)
(9.17628e-13 -4.03189e-12 -2.56974e-12)
(5.3345e-11 3.54124e-11 -3.41546e-10)
(2.76915e-09 1.84112e-09 -1.774e-08)
(8.18976e-08 5.46532e-08 -5.25753e-07)
(-1.27939e-08 6.26495e-09 -1.65957e-08)
(-4.60174e-07 1.28056e-07 3.14513e-08)
(3.55262e-08 -2.18806e-07 -1.4194e-07)
(1.42862e-09 -7.44501e-09 -4.80734e-09)
(2.85785e-11 -1.41676e-10 -9.13858e-11)
(4.12175e-13 -1.99424e-12 -1.28612e-12)
(4.85393e-15 -2.31453e-14 -1.49295e-14)
(4.15686e-11 2.77489e-11 -2.65902e-10)
(2.15985e-09 1.442e-09 -1.38161e-08)
(6.40344e-08 4.27507e-08 -4.09614e-07)
(2.18401e-09 1.33037e-09 -1.38873e-08)
(1.353e-09 -5.86612e-09 -4.0219e-09)
(3.98292e-08 -1.75004e-07 -1.11543e-07)
(1.34342e-09 -5.90281e-09 -3.76221e-09)
(2.5497e-11 -1.1203e-10 -7.14031e-11)
(3.58482e-13 -1.57513e-12 -1.00391e-12)
(4.1583e-15 -1.8271e-14 -1.16451e-14)
(4.37338e-09 2.91987e-09 -2.79756e-08)
(2.55983e-07 1.70905e-07 -1.63747e-06)
(8.67236e-06 5.78993e-06 -5.54752e-05)
(2.58292e-07 1.59215e-07 -1.64496e-06)
(1.53608e-07 -6.9377e-07 -4.7273e-07)
(5.39397e-06 -2.37013e-05 -1.51065e-05)
(1.59217e-07 -6.99597e-07 -4.45893e-07)
(2.68619e-09 -1.1803e-08 -7.52273e-09)
(3.39916e-11 -1.49358e-10 -9.5194e-11)
(3.58456e-13 -1.57505e-12 -1.00386e-12)
(4.13189e-11 2.78262e-11 -2.65883e-10)
(2.13859e-09 1.44827e-09 -1.38144e-08)
(6.25237e-08 4.31968e-08 -4.09494e-07)
(-7.73561e-08 2.48432e-08 -7.59168e-09)
(-2.35511e-06 6.91463e-07 1.8257e-07)
(-3.97109e-08 -1.51491e-07 -1.05247e-07)
(-1.6728e-10 -5.4567e-09 -3.64268e-09)
(4.24138e-12 -1.0576e-10 -6.97221e-11)
(1.11744e-13 -1.50242e-12 -9.84406e-13)
(1.65861e-15 -1.75352e-14 -1.14476e-14)
(-2.1356e-11 6.43719e-12 2.96784e-13)
(-2.01438e-09 5.98428e-10 9.43819e-11)
(-1.59529e-07 4.69718e-08 1.09143e-08)
(-9.4599e-06 2.77587e-06 7.48996e-07)
(-0.000320088 9.41231e-05 2.53559e-05)
(-9.45974e-06 2.77513e-06 7.4859e-07)
(-1.59793e-07 4.67641e-08 1.26303e-08)
(-2.02453e-09 5.9102e-10 1.59809e-10)
(-2.13757e-11 6.22432e-12 1.68481e-12)
(-1.9861e-13 5.76821e-14 1.56286e-14)
(1.91277e-13 -8.83193e-13 -3.89172e-13)
(3.90913e-12 2.66942e-12 -2.55654e-11)
(9.88774e-11 7.25668e-11 -6.73781e-10)
(-3.18141e-10 9.80951e-11 -3.39857e-13)
(-8.48412e-09 2.50978e-09 6.61732e-10)
(-2.5647e-10 -1.9316e-10 -1.5824e-10)
(-4.30461e-12 -8.9418e-12 -6.43045e-12)
(-5.26146e-14 -1.99922e-13 -1.38588e-13)
(-5.18686e-16 -3.18013e-15 -2.1663e-15)
(-4.32427e-18 -4.09154e-17 -2.75857e-17)
(7.81151e-12 5.52068e-12 -5.18403e-11)
(3.9517e-10 2.90061e-10 -2.6931e-09)
(1.05866e-08 8.93245e-09 -7.97654e-08)
(-1.01413e-07 3.04604e-08 5.32166e-09)
(-3.01676e-06 8.94169e-07 2.37326e-07)
(-9.40517e-08 -4.01914e-09 -1.37318e-08)
(-1.67157e-09 -5.81165e-10 -5.81525e-10)
(-2.22294e-11 -1.38526e-11 -1.17849e-11)
(-2.45816e-13 -2.14633e-13 -1.70941e-13)
(-2.38732e-15 -2.62819e-15 -2.01929e-15)
(-5.49535e-11 1.6293e-11 3.7854e-12)
(-5.16243e-09 1.52831e-09 3.81495e-10)
(-4.07795e-07 1.2065e-07 3.14916e-08)
(-2.41549e-05 7.14796e-06 1.90633e-06)
(-0.000817576 0.000242193 6.45781e-05)
(-2.41549e-05 7.14766e-06 1.90618e-06)
(-4.07898e-07 1.20568e-07 3.21589e-08)
(-5.16639e-09 1.52541e-09 4.06929e-10)
(-5.45321e-11 1.60829e-11 4.29096e-12)
(-5.0653e-13 1.4922e-13 3.9817e-14)
(-5.23723e-09 1.53029e-09 4.12646e-10)
(-5.46392e-07 1.59992e-07 4.30866e-08)
(-4.85044e-05 1.42329e-05 3.82806e-06)
(-0.0032808 0.000964732 0.000259141)
(-0.129471 0.0381518 0.010235)
(-0.0032808 0.000964732 0.000259141)
(-4.85044e-05 1.42329e-05 3.82807e-06)
(-5.46391e-07 1.59992e-07 4.30867e-08)
(-5.19336e-09 1.51749e-09 4.09194e-10)
(-4.38778e-11 1.2794e-11 3.45436e-12)
)
;

boundaryField
{
    inlet
    {
        type            calculated;
        value           uniform (0 0 0);
    }
    outlet
    {
        type            calculated;
        value           nonuniform 0();
    }
    bottom
    {
        type            calculated;
        value           uniform (0 0 0);
    }
    top
    {
        type            symmetryPlane;
    }
    side1
    {
        type            symmetryPlane;
    }
    side2
    {
        type            symmetryPlane;
    }
    procBoundary24to16
    {
        type            processor;
        value           nonuniform List<vector> 
50
(
(4.98902e-16 3.33083e-16 -3.19138e-15)
(2.115e-14 1.41205e-14 -1.35292e-13)
(5.01723e-13 3.34951e-13 -3.20941e-12)
(2.1455e-14 1.27797e-14 -1.36144e-13)
(1.36461e-14 -5.74754e-14 -3.99771e-14)
(3.12083e-13 -1.37119e-12 -8.73987e-13)
(1.31556e-14 -5.7802e-14 -3.68406e-14)
(3.05175e-16 -1.33976e-15 -8.54125e-16)
(5.14943e-18 -2.25497e-17 -1.43872e-17)
(8.64218e-20 -2.98388e-19 -1.97106e-19)
(2.19507e-13 1.46548e-13 -1.40414e-12)
(1.02512e-11 6.84408e-12 -6.55747e-11)
(2.70193e-10 1.80385e-10 -1.72837e-09)
(1.03855e-11 6.25336e-12 -6.59504e-11)
(6.59246e-12 -2.7872e-11 -1.9239e-11)
(1.68065e-10 -7.38432e-10 -4.70663e-10)
(6.37635e-12 -2.80162e-11 -1.78564e-11)
(1.34457e-13 -5.90786e-13 -3.76534e-13)
(2.07942e-15 -9.13102e-15 -5.82075e-15)
(2.63131e-17 -1.15394e-16 -7.35913e-17)
(5.3207e-11 3.55203e-11 -3.40353e-10)
(2.76458e-09 1.84575e-09 -1.76845e-08)
(8.19635e-08 5.47207e-08 -5.24303e-07)
(2.7972e-09 1.70237e-09 -1.77758e-08)
(1.77206e-09 -7.52055e-09 -5.15118e-09)
(5.09828e-08 -2.24005e-07 -1.42775e-07)
(1.7196e-09 -7.55557e-09 -4.8156e-09)
(3.26364e-11 -1.43398e-10 -9.1395e-11)
(4.5886e-13 -2.01613e-12 -1.28498e-12)
(5.32264e-15 -2.33862e-14 -1.49051e-14)
(3.85955e-13 -1.3206e-12 -1.15612e-12)
(1.0258e-11 6.78333e-12 -6.5564e-11)
(2.70193e-10 1.80383e-10 -1.72837e-09)
(1.03817e-11 6.25449e-12 -6.59503e-11)
(6.50958e-12 -2.78473e-11 -1.92323e-11)
(1.68062e-10 -7.38431e-10 -4.70662e-10)
(6.37625e-12 -2.80162e-11 -1.78564e-11)
(1.34455e-13 -5.90772e-13 -3.76531e-13)
(2.0794e-15 -9.13648e-15 -5.82313e-15)
(2.63127e-17 -1.15611e-16 -7.36841e-17)
(4.47738e-11 -3.94653e-10 6.64876e-11)
(1.69262e-12 -1.47218e-11 2.34584e-12)
(5.17076e-13 3.16537e-14 -3.14704e-12)
(-8.27692e-13 2.6041e-13 -6.80372e-14)
(-2.0133e-11 5.92954e-12 1.54756e-12)
(-5.37606e-13 -1.11879e-12 -8.04692e-13)
(-6.56462e-15 -5.19517e-14 -3.51793e-14)
(-2.7728e-17 -1.24236e-15 -8.2568e-16)
(5.83195e-19 -2.12787e-17 -1.40114e-17)
(1.66419e-20 -2.94354e-19 -1.9273e-19)
)
;
    }
    procBoundary24to25
    {
        type            processor;
        value           nonuniform List<vector> 
20
(
(1.16493e-19 -4.91064e-19 -3.14926e-19)
(8.23768e-18 -3.61237e-17 -2.30351e-17)
(1.12945e-19 -4.94527e-19 -3.15437e-19)
(8.24927e-22 -3.62154e-21 -2.33664e-21)
(4.20977e-17 -1.84605e-16 -1.17718e-16)
(3.32668e-15 -1.46165e-14 -9.31575e-15)
(4.20976e-17 -1.84964e-16 -1.17885e-16)
(2.81353e-19 -1.25919e-18 -8.11382e-19)
(8.51568e-15 -3.74155e-14 -2.38465e-14)
(7.34104e-13 -3.22549e-12 -2.05578e-12)
(8.51562e-15 -3.7416e-14 -2.38472e-14)
(4.9636e-17 -2.34374e-16 -1.51231e-16)
(4.20968e-17 -1.84963e-16 -1.17885e-16)
(3.32652e-15 -1.46167e-14 -9.31598e-15)
(1.92346e-17 -1.78266e-16 -1.16088e-16)
(-1.67761e-15 4.85918e-16 1.3177e-16)
(-3.10273e-20 -4.54016e-19 -3.03846e-19)
(-2.1039e-17 -2.75706e-17 -2.06931e-17)
(-4.2773e-15 1.2586e-15 3.35866e-16)
(-3.39825e-13 9.8878e-14 2.67313e-14)
)
;
    }
}


// ************************************************************************* //
