/*--------------------------------*- C++ -*----------------------------------*\
| =========                 |                                                 |
| \\      /  F ield         | OpenFOAM: The Open Source CFD Toolbox           |
|  \\    /   O peration     | Version:  2.4.0                                 |
|   \\  /    A nd           | Web:      www.OpenFOAM.org                      |
|    \\/     M anipulation  |                                                 |
\*---------------------------------------------------------------------------*/
FoamFile
{
    version     2.0;
    format      ascii;
    class       volVectorField;
    location    "0.11";
    object      A_Source;
}
// * * * * * * * * * * * * * * * * * * * * * * * * * * * * * * * * * * * * * //

dimensions      [1 -2 -2 0 0 0 0];

internalField   nonuniform List<vector> 
200
(
(7.50247e-147 5.29745e-147 -1.03119e-146)
(3.74597e-149 2.64458e-149 -5.14872e-149)
(1.89015e-151 1.33418e-151 -2.59796e-151)
(9.61513e-154 6.78565e-154 -1.32157e-153)
(4.91998e-156 3.47151e-156 -6.76237e-156)
(2.52733e-158 1.78293e-158 -3.47374e-158)
(1.30115e-160 9.17732e-161 -1.78839e-160)
(6.7045e-163 4.72795e-163 -9.21513e-163)
(3.45393e-165 2.43523e-165 -4.74732e-165)
(1.77745e-167 1.25298e-167 -2.44305e-167)
(5.00201e-149 3.53418e-149 -6.87512e-149)
(2.50989e-151 1.77314e-151 -3.44977e-151)
(1.26054e-153 8.90404e-154 -1.73258e-153)
(6.34386e-156 4.48044e-156 -8.71945e-156)
(3.20123e-158 2.26057e-158 -4.4e-158)
(1.62012e-160 1.14387e-160 -2.22681e-160)
(8.22257e-163 5.80449e-163 -1.13017e-162)
(4.18378e-165 2.95291e-165 -5.75048e-165)
(2.13323e-167 1.50536e-167 -2.93206e-167)
(1.08937e-169 7.68599e-170 -1.49731e-169)
(2.94783e-151 2.08392e-151 -4.0517e-151)
(1.51094e-153 1.06801e-153 -2.07675e-153)
(7.71727e-156 5.45432e-156 -1.06072e-155)
(3.93175e-158 2.7785e-158 -5.40408e-158)
(1.99991e-160 1.41312e-160 -2.74881e-160)
(1.01641e-162 7.18094e-163 -1.39702e-162)
(5.16454e-165 3.64825e-165 -7.0985e-165)
(2.62481e-167 1.85391e-167 -3.60772e-167)
(1.33475e-169 9.42597e-170 -1.83458e-169)
(6.79211e-172 4.79582e-172 -9.33556e-172)
(1.59725e-153 1.11835e-153 -2.19537e-153)
(8.35488e-156 5.84815e-156 -1.14835e-155)
(4.35062e-158 3.04441e-158 -5.9798e-158)
(2.25633e-160 1.57844e-160 -3.10126e-160)
(1.16605e-162 8.15486e-163 -1.6027e-162)
(6.00801e-165 4.20054e-165 -8.25783e-165)
(3.08796e-167 2.15837e-167 -4.24431e-167)
(1.58402e-169 1.10686e-169 -2.17718e-169)
(8.11316e-172 5.66774e-172 -1.11513e-171)
(4.15073e-174 2.8989e-174 -5.70506e-174)
(2.27949e-148 1.60928e-148 -3.13309e-148)
(1.15306e-150 8.13907e-151 -1.58485e-150)
(5.8935e-153 4.1593e-153 -8.10045e-153)
(3.03637e-155 2.1425e-155 -4.1734e-155)
(1.57333e-157 1.10996e-157 -2.1625e-157)
(8.18298e-160 5.77183e-160 -1.12473e-159)
(4.26484e-162 3.00761e-162 -5.86189e-162)
(2.22435e-164 1.56834e-164 -3.05731e-164)
(1.15971e-166 8.17531e-167 -1.59398e-166)
(6.03902e-169 4.2564e-169 -8.30046e-169)
(1.53999e-150 1.08792e-150 -2.11667e-150)
(7.82712e-153 5.52874e-153 -1.07582e-152)
(3.98116e-155 2.81173e-155 -5.47198e-155)
(2.02881e-157 1.43266e-157 -2.78854e-157)
(1.03651e-159 7.31829e-160 -1.42465e-159)
(5.31017e-162 3.74864e-162 -7.29868e-162)
(2.7278e-164 1.92532e-164 -3.74928e-164)
(1.4046e-166 9.9122e-167 -1.93059e-166)
(7.24675e-169 5.11307e-169 -9.96045e-169)
(3.74406e-171 2.64121e-171 -5.14611e-171)
(9.19381e-153 6.4985e-153 -1.26366e-152)
(4.77253e-155 3.373e-155 -6.5597e-155)
(2.46831e-157 1.74428e-157 -3.39262e-157)
(1.27317e-159 8.99603e-160 -1.74994e-159)
(6.55555e-162 4.63147e-162 -9.01042e-162)
(3.37211e-164 2.38207e-164 -4.63487e-164)
(1.73395e-166 1.2247e-166 -2.38326e-166)
(8.91684e-169 6.29711e-169 -1.22559e-168)
(4.58737e-171 3.23913e-171 -6.30521e-171)
(2.36135e-173 1.66708e-173 -3.2456e-173)
(5.04568e-155 3.53191e-155 -6.93513e-155)
(2.67256e-157 1.87022e-157 -3.67335e-157)
(1.40899e-159 9.85703e-160 -1.93661e-159)
(7.39708e-162 5.17335e-162 -1.01671e-161)
(3.8691e-164 2.70518e-164 -5.31797e-164)
(2.01741e-166 1.41011e-166 -2.77286e-166)
(1.04916e-168 7.3313e-169 -1.44204e-168)
(5.44472e-171 3.80361e-171 -7.48361e-171)
(2.82093e-173 1.97015e-173 -3.87729e-173)
(1.45967e-175 1.01918e-175 -2.00628e-175)
(3.54489e-150 2.50222e-150 -4.87235e-150)
(1.81658e-152 1.28206e-152 -2.49684e-152)
(9.40484e-155 6.63632e-155 -1.29267e-154)
(4.9073e-157 3.4621e-157 -6.74494e-157)
(2.57487e-159 1.81622e-159 -3.53908e-159)
(1.3559e-161 9.56223e-162 -1.86365e-161)
(7.15382e-164 5.04413e-164 -9.83272e-164)
(3.77655e-166 2.66232e-166 -5.19075e-166)
(1.99266e-168 1.40449e-168 -2.73885e-168)
(1.04998e-170 7.39923e-171 -1.44317e-170)
(2.42664e-152 1.71403e-152 -3.33535e-152)
(1.24925e-154 8.82283e-155 -1.71706e-154)
(6.435e-157 4.5441e-157 -8.84471e-157)
(3.32051e-159 2.34445e-159 -4.56394e-159)
(1.7175e-161 1.21246e-161 -2.36066e-161)
(8.90697e-164 6.2868e-164 -1.22424e-163)
(4.63095e-166 3.2681e-166 -6.3651e-166)
(2.41318e-168 1.7027e-168 -3.31684e-168)
(1.25978e-170 8.88727e-171 -1.73154e-170)
(6.585e-173 4.64461e-173 -9.05089e-173)
(1.46753e-154 1.03715e-154 -2.01708e-154)
(7.71499e-157 5.45181e-157 -1.0604e-156)
(4.04027e-159 2.85473e-159 -5.55323e-159)
(2.10987e-161 1.49059e-161 -2.89995e-161)
(1.09969e-163 7.76813e-164 -1.51149e-163)
(5.72518e-166 4.04371e-166 -7.86909e-166)
(2.97912e-168 2.10387e-168 -4.09472e-168)
(1.55014e-170 1.09456e-170 -2.13062e-170)
(8.06811e-173 5.69607e-173 -1.10894e-172)
(4.20106e-175 2.96548e-175 -5.77423e-175)
(8.15742e-157 5.7086e-157 -1.12121e-156)
(4.37512e-159 3.06084e-159 -6.01347e-159)
(2.33524e-161 1.63326e-161 -3.20971e-161)
(1.24102e-163 8.67709e-164 -1.70574e-163)
(6.56986e-166 4.59226e-166 -9.03007e-166)
(3.46661e-168 2.42243e-168 -4.76475e-168)
(1.82414e-170 1.27433e-170 -2.50722e-170)
(9.57714e-173 6.68869e-173 -1.31635e-172)
(5.01926e-175 3.50453e-175 -6.89882e-175)
(2.62684e-177 1.83363e-177 -3.61051e-177)
(3.73317e-152 2.6347e-152 -5.13113e-152)
(1.9378e-154 1.36739e-154 -2.66345e-154)
(1.01607e-156 7.16851e-157 -1.39656e-156)
(5.36872e-159 3.78701e-159 -7.37914e-159)
(2.85217e-161 2.01149e-161 -3.92023e-161)
(1.52048e-163 1.07211e-163 -2.08985e-163)
(8.12004e-166 5.72447e-166 -1.11608e-165)
(4.33832e-168 3.05785e-168 -5.9629e-168)
(2.31636e-170 1.63237e-170 -3.18376e-170)
(1.23492e-172 8.70109e-173 -1.69737e-172)
(2.58906e-154 1.82848e-154 -3.55859e-154)
(1.34987e-156 9.53198e-157 -1.85535e-156)
(7.04086e-159 4.97118e-159 -9.67746e-159)
(3.67835e-161 2.59672e-161 -5.05579e-161)
(1.926e-163 1.35944e-163 -2.64722e-163)
(1.01096e-165 7.1346e-166 -1.38954e-165)
(5.31941e-168 3.75339e-168 -7.31137e-168)
(2.80487e-170 1.97878e-170 -3.85521e-170)
(1.48147e-172 1.04496e-172 -2.03623e-172)
(7.83373e-175 5.52454e-175 -1.07672e-174)
(1.58589e-156 1.12064e-156 -2.17975e-156)
(8.44228e-159 5.9649e-159 -1.16037e-158)
(4.47617e-161 3.16227e-161 -6.15236e-161)
(2.36623e-163 1.67146e-163 -3.25231e-163)
(1.24828e-165 8.81652e-166 -1.71572e-165)
(6.57675e-168 4.64452e-168 -9.03954e-168)
(3.46282e-170 2.44512e-170 -4.75955e-170)
(1.82294e-172 1.28701e-172 -2.50558e-172)
(9.59796e-175 6.77518e-175 -1.31921e-174)
(5.05493e-177 3.56771e-177 -6.94785e-177)
(8.92737e-159 6.24576e-159 -1.22704e-158)
(4.84771e-161 3.39057e-161 -6.66303e-161)
(2.61931e-163 1.83145e-163 -3.60016e-163)
(1.40889e-165 9.84824e-166 -1.93648e-165)
(7.54808e-168 5.27463e-168 -1.03746e-167)
(4.02999e-170 2.81537e-170 -5.5391e-170)
(2.14544e-172 1.49839e-172 -2.94884e-172)
(1.13945e-174 7.95583e-175 -1.56614e-174)
(6.04008e-177 4.21617e-177 -8.30192e-177)
(3.19687e-179 2.23095e-179 -4.394e-179)
(3.00953e-154 2.12364e-154 -4.08314e-154)
(1.58227e-156 1.11633e-156 -2.14638e-156)
(8.40204e-159 5.92679e-159 -1.13956e-158)
(4.49532e-161 3.17041e-161 -6.09596e-161)
(2.41788e-163 1.70493e-163 -3.27827e-163)
(1.30481e-165 9.19886e-166 -1.76882e-165)
(7.05296e-168 4.97137e-168 -9.55957e-168)
(3.81348e-170 2.68747e-170 -5.16793e-170)
(2.06031e-172 1.45169e-172 -2.79162e-172)
(1.11131e-174 7.82882e-175 -1.50552e-174)
(2.11444e-156 1.49306e-156 -2.86826e-156)
(1.1164e-158 7.88218e-159 -1.51416e-158)
(5.89611e-161 4.1623e-161 -7.99551e-161)
(3.11846e-163 2.20113e-163 -4.22815e-163)
(1.65283e-165 1.16645e-165 -2.24061e-165)
(8.78081e-168 6.19587e-168 -1.19015e-167)
(4.67553e-170 3.29857e-170 -6.33617e-170)
(2.49455e-172 1.75958e-172 -3.37999e-172)
(1.33299e-174 9.40083e-175 -1.80584e-174)
(7.13022e-177 5.02763e-177 -9.65794e-177)
(1.31173e-158 9.26778e-159 -1.77908e-158)
(7.07042e-161 4.9949e-161 -9.58795e-161)
(3.79524e-163 2.68083e-163 -5.14574e-163)
(2.03082e-165 1.43433e-165 -2.75302e-165)
(1.08429e-167 7.65722e-168 -1.46965e-167)
(5.78105e-170 4.08201e-170 -7.83433e-170)
(3.07983e-172 2.17438e-172 -4.17303e-172)
(1.64027e-174 1.15787e-174 -2.22212e-174)
(8.73592e-177 6.16579e-177 -1.18329e-176)
(4.65349e-179 3.28391e-179 -6.30216e-179)
(7.47748e-161 5.23e-161 -1.01399e-160)
(4.11074e-163 2.87436e-163 -5.57351e-163)
(2.24831e-165 1.57163e-165 -3.04785e-165)
(1.22397e-167 8.55334e-168 -1.65896e-167)
(6.63575e-170 4.63585e-170 -8.99259e-170)
(3.58475e-172 2.50365e-172 -4.85716e-172)
(1.93069e-174 1.34805e-174 -2.61556e-174)
(1.03724e-176 7.2402e-177 -1.40494e-176)
(5.56102e-179 3.88073e-179 -7.5312e-179)
(2.97654e-181 2.07664e-181 -4.03042e-181)
)
;

boundaryField
{
    inlet
    {
        type            zeroGradient;
    }
    outlet
    {
        type            zeroGradient;
    }
    bottom
    {
        type            zeroGradient;
    }
    top
    {
        type            symmetryPlane;
    }
    side1
    {
        type            symmetryPlane;
    }
    side2
    {
        type            symmetryPlane;
    }
    procBoundary30to22
    {
        type            processor;
        value           nonuniform List<vector> 
50
(
(1.58656e-143 1.11897e-143 -2.18068e-143)
(7.89553e-146 5.56766e-146 -1.08522e-145)
(3.91747e-148 2.76202e-148 -5.38444e-148)
(1.93819e-150 1.36631e-150 -2.66398e-150)
(9.56398e-153 6.74099e-153 -1.31454e-152)
(4.70801e-155 3.31783e-155 -6.47102e-155)
(2.31261e-157 1.62948e-157 -3.17861e-157)
(1.13382e-159 7.98772e-160 -1.55841e-159)
(5.54987e-162 3.9092e-162 -7.62813e-162)
(2.71277e-164 1.91049e-164 -3.72862e-164)
(4.81244e-145 3.39353e-145 -6.61456e-145)
(2.42631e-147 1.71065e-147 -3.33489e-147)
(1.21941e-149 8.59601e-150 -1.67605e-149)
(6.11009e-152 4.3065e-152 -8.39814e-152)
(3.053e-154 2.15147e-154 -4.19626e-154)
(1.52157e-156 1.07209e-156 -2.09135e-156)
(7.56579e-159 5.32998e-159 -1.0399e-158)
(3.75432e-161 2.64443e-161 -5.1602e-161)
(1.85968e-163 1.30969e-163 -2.55607e-163)
(9.19761e-166 6.47637e-166 -1.26418e-165)
(7.47166e-147 5.26776e-147 -1.02696e-146)
(3.81625e-149 2.69014e-149 -5.24532e-149)
(1.9427e-151 1.36922e-151 -2.67018e-151)
(9.85817e-154 6.94699e-154 -1.35498e-153)
(4.98769e-156 3.51424e-156 -6.85543e-156)
(2.51664e-158 1.7729e-158 -3.45905e-158)
(1.2667e-160 8.92214e-161 -1.74104e-160)
(6.36177e-163 4.48026e-163 -8.74407e-163)
(3.18896e-165 2.24544e-165 -4.38313e-165)
(1.59584e-167 1.12349e-167 -2.19344e-167)
(7.85583e-149 5.53762e-149 -1.07976e-148)
(4.06435e-151 2.86452e-151 -5.58633e-151)
(2.09541e-153 1.47659e-153 -2.88008e-153)
(1.07671e-155 7.58614e-156 -1.4799e-155)
(5.51534e-158 3.88532e-158 -7.58067e-158)
(2.81708e-160 1.9842e-160 -3.87199e-160)
(1.43514e-162 1.01067e-162 -1.97255e-162)
(7.29416e-165 5.13598e-165 -1.00256e-164)
(3.69968e-167 2.6046e-167 -5.08509e-167)
(1.87311e-169 1.31846e-169 -2.57453e-169)
(6.32301e-151 4.45633e-151 -8.57883e-151)
(3.3134e-153 2.33484e-153 -4.49476e-153)
(1.72994e-155 1.21884e-155 -2.34635e-155)
(9.00064e-158 6.34042e-158 -1.22057e-157)
(4.6676e-160 3.28753e-160 -6.32868e-160)
(2.41325e-162 1.69946e-162 -3.27152e-162)
(1.24427e-164 8.76103e-165 -1.68653e-164)
(6.39964e-167 4.50532e-167 -8.67286e-167)
(3.2843e-169 2.31176e-169 -4.45019e-169)
(1.68222e-171 1.18389e-171 -2.27902e-171)
)
;
    }
    procBoundary30to29
    {
        type            processor;
        value           nonuniform List<vector> 
20
(
(1.5293e-143 1.07947e-143 -2.10198e-143)
(7.51394e-146 5.30779e-146 -1.03277e-145)
(3.87222e-148 2.73743e-148 -5.32226e-148)
(2.04315e-150 1.43053e-150 -2.80825e-150)
(4.63576e-145 3.27164e-145 -6.37171e-145)
(2.30621e-147 1.62884e-147 -3.16982e-147)
(1.20349e-149 8.50674e-150 -1.65416e-149)
(6.43142e-152 4.50185e-152 -8.8398e-152)
(7.1927e-147 5.07532e-147 -9.88615e-147)
(3.62293e-149 2.55841e-149 -4.9796e-149)
(1.91443e-151 1.353e-151 -2.63133e-151)
(1.03613e-153 7.25077e-154 -1.42413e-153)
(7.55774e-149 5.332e-149 -1.03879e-148)
(3.85384e-151 2.72105e-151 -5.29699e-151)
(2.06184e-153 1.45697e-153 -2.83394e-153)
(1.13002e-155 7.90571e-156 -1.55318e-155)
(6.07928e-151 4.28822e-151 -8.24821e-151)
(3.13806e-153 2.21532e-153 -4.25697e-153)
(1.69972e-155 1.20091e-155 -2.30541e-155)
(9.43277e-158 6.59746e-158 -1.2792e-157)
)
;
    }
    procBoundary30to31
    {
        type            processor;
        value           nonuniform List<vector> 
20
(
(4.9177e-171 3.46735e-171 -6.75924e-171)
(3.50341e-173 2.47208e-173 -4.81534e-173)
(2.26169e-175 1.59696e-175 -3.10863e-175)
(1.36593e-177 9.54143e-178 -1.87743e-177)
(1.67257e-172 1.1791e-172 -2.2989e-172)
(1.20551e-174 8.50509e-175 -1.65694e-174)
(7.87238e-177 5.55785e-177 -1.08204e-176)
(4.80908e-179 3.35841e-179 -6.60994e-179)
(2.91105e-174 2.05185e-174 -4.00115e-174)
(2.12271e-176 1.49738e-176 -2.9176e-176)
(1.40223e-178 9.89825e-179 -1.92732e-178)
(8.66435e-181 6.04914e-181 -1.19089e-180)
(3.42727e-176 2.41532e-176 -4.71067e-176)
(2.52814e-178 1.78311e-178 -3.47485e-178)
(1.68919e-180 1.19222e-180 -2.32174e-180)
(1.05564e-182 7.36817e-183 -1.45095e-182)
(3.08729e-178 2.17537e-178 -4.18237e-178)
(2.3037e-180 1.62456e-180 -3.12033e-180)
(1.55682e-182 1.09864e-182 -2.10835e-182)
(9.83977e-185 6.86615e-185 -1.33234e-184)
)
;
    }
}


// ************************************************************************* //
