/*--------------------------------*- C++ -*----------------------------------*\
| =========                 |                                                 |
| \\      /  F ield         | OpenFOAM: The Open Source CFD Toolbox           |
|  \\    /   O peration     | Version:  2.4.0                                 |
|   \\  /    A nd           | Web:      www.OpenFOAM.org                      |
|    \\/     M anipulation  |                                                 |
\*---------------------------------------------------------------------------*/
FoamFile
{
    version     2.0;
    format      ascii;
    class       volVectorField;
    location    "0.11";
    object      U;
}
// * * * * * * * * * * * * * * * * * * * * * * * * * * * * * * * * * * * * * //

dimensions      [0 1 -1 0 0 0 0];

internalField   nonuniform List<vector> 
200
(
(-1.98566e+08 1.13599e+08 -1.34023e+08)
(-1.70216e+08 6.06483e+07 2.83522e+06)
(-1.55793e+08 9.72055e+07 -1.46492e+08)
(-1.33707e+08 4.21435e+07 3.12069e+07)
(-1.22928e+08 7.8003e+07 -1.32111e+08)
(-1.03434e+08 2.72755e+07 4.89881e+07)
(-8.50499e+07 8.06742e+07 -1.29717e+08)
(-8.27823e+07 3.82618e+06 5.82167e+07)
(-6.36941e+07 6.73996e+07 -1.12924e+08)
(-6.01222e+07 -1.02904e+06 5.88129e+07)
(-1.96416e+08 6.29419e+07 8.44396e+06)
(-1.73008e+08 1.13942e+08 -1.39814e+08)
(-1.47494e+08 4.79645e+07 2.3323e+07)
(-1.3351e+08 8.83563e+07 -1.29189e+08)
(-1.13551e+08 2.62949e+07 4.70412e+07)
(-1.01066e+08 7.28318e+07 -1.17102e+08)
(-8.56638e+07 8.13185e+06 5.79284e+07)
(-6.56848e+07 7.40504e+07 -1.17808e+08)
(-6.80344e+07 -1.32904e+07 6.60286e+07)
(-4.83558e+07 6.03203e+07 -1.03068e+08)
(-1.92239e+08 1.04769e+08 -1.29844e+08)
(-1.57968e+08 3.85519e+07 2.7575e+07)
(-1.35816e+08 8.96301e+07 -1.25816e+08)
(-1.11638e+08 1.66503e+07 4.59757e+07)
(-1.04472e+08 6.05435e+07 -1.04608e+08)
(-8.26232e+07 -2.42398e+06 5.91673e+07)
(-7.46139e+07 5.57208e+07 -1.05684e+08)
(-6.12426e+07 -1.64377e+07 6.68205e+07)
(-4.33982e+07 6.05537e+07 -1.09141e+08)
(-4.95397e+07 -3.34315e+07 7.43667e+07)
(-1.73427e+08 9.929e+06 5.25341e+07)
(-1.3656e+08 8.00174e+07 -1.09234e+08)
(-9.72466e+07 9.39916e+06 4.91862e+07)
(-7.80493e+07 6.6334e+07 -9.28681e+07)
(-6.09343e+07 -7.45145e+06 6.44817e+07)
(-6.30615e+07 4.91158e+07 -7.65912e+07)
(-4.4788e+07 -1.77959e+07 5.94798e+07)
(-4.46357e+07 4.84829e+07 -8.54497e+07)
(-2.95227e+07 -2.83511e+07 6.11531e+07)
(-2.02186e+07 5.56366e+07 -9.16061e+07)
(-2.2099e+08 8.7662e+07 -2.16423e+07)
(-2.14321e+08 9.33534e+07 -1.9117e+08)
(-2.08418e+08 5.90326e+07 2.58031e+07)
(-2.02312e+08 7.64586e+07 -1.70845e+08)
(-1.875e+08 4.3815e+07 5.52038e+07)
(-1.66702e+08 1.02926e+08 -1.69228e+08)
(-1.72054e+08 1.97696e+07 6.53915e+07)
(-1.48907e+08 9.28173e+07 -1.39745e+08)
(-1.46267e+08 3.0906e+07 7.29747e+07)
(-1.44629e+08 6.59163e+07 -1.13447e+08)
(-2.23767e+08 1.12633e+08 -1.89217e+08)
(-2.1562e+08 6.72707e+07 2.11675e+07)
(-2.07902e+08 8.0894e+07 -1.66019e+08)
(-1.95191e+08 3.48791e+07 6.30962e+07)
(-1.78096e+08 7.59465e+07 -1.44751e+08)
(-1.65575e+08 1.6048e+07 7.48129e+07)
(-1.39602e+08 9.66991e+07 -1.46385e+08)
(-1.48116e+08 -4.30103e+06 8.2568e+07)
(-1.21502e+08 8.13846e+07 -1.18926e+08)
(-1.20925e+08 1.39368e+07 8.58981e+07)
(-2.14818e+08 5.82531e+07 2.74687e+07)
(-1.97864e+08 8.67118e+07 -1.6668e+08)
(-1.82067e+08 2.42004e+07 5.92393e+07)
(-1.79737e+08 3.58936e+07 -1.1744e+08)
(-1.51592e+08 -6.93226e+06 9.79896e+07)
(-1.38196e+08 5.84152e+07 -1.20769e+08)
(-1.26893e+08 -1.91129e+07 8.98292e+07)
(-1.00171e+08 7.86353e+07 -1.28016e+08)
(-1.13152e+08 -3.61394e+07 9.52511e+07)
(-8.30384e+07 6.34422e+07 -1.06092e+08)
(-1.87729e+08 7.30399e+07 -1.38823e+08)
(-1.4944e+08 2.1319e+07 5.55907e+07)
(-1.29734e+08 5.48609e+07 -1.16643e+08)
(-1.12677e+08 -6.12398e+06 9.17962e+07)
(-1.21601e+08 2.10665e+07 -5.85129e+07)
(-9.18056e+07 -1.93427e+07 9.71259e+07)
(-9.01614e+07 4.46924e+07 -8.48186e+07)
(-7.85838e+07 -3.37296e+07 7.80768e+07)
(-5.60527e+07 6.91261e+07 -1.04623e+08)
(-7.02984e+07 -5.03657e+07 8.37274e+07)
(-2.3118e+08 1.09037e+08 -2.2106e+08)
(-2.50577e+08 8.50488e+07 1.02673e+06)
(-2.5077e+08 8.79468e+07 -2.06406e+08)
(-2.44499e+08 7.36831e+07 3.59324e+07)
(-2.34209e+08 1.27542e+08 -2.1138e+08)
(-2.43787e+08 4.66082e+07 4.98777e+07)
(-2.32075e+08 1.20903e+08 -1.81787e+08)
(-2.332e+08 4.70704e+07 6.4175e+07)
(-2.34323e+08 8.27349e+07 -1.36554e+08)
(-2.08921e+08 8.67469e+07 6.98786e+07)
(-2.61415e+08 9.19893e+07 3.3104e+06)
(-2.55178e+08 9.82781e+07 -1.98921e+08)
(-2.53917e+08 5.93769e+07 4.445e+07)
(-2.44568e+08 8.97502e+07 -1.76969e+08)
(-2.33803e+08 4.59917e+07 6.09176e+07)
(-2.18644e+08 1.28314e+08 -1.79632e+08)
(-2.28407e+08 2.15426e+07 7.5209e+07)
(-2.11811e+08 1.13405e+08 -1.46767e+08)
(-2.13536e+08 2.95755e+07 8.99481e+07)
(-2.09139e+08 7.72809e+07 -1.05295e+08)
(-2.457e+08 1.03782e+08 -1.93202e+08)
(-2.39757e+08 4.52915e+07 4.2765e+07)
(-2.36962e+08 4.35876e+07 -1.48918e+08)
(-2.17036e+08 1.3973e+07 7.44847e+07)
(-2.00745e+08 8.21318e+07 -1.5309e+08)
(-1.96543e+08 6.91633e+06 7.5783e+07)
(-1.73866e+08 1.16284e+08 -1.52248e+08)
(-1.88665e+08 -1.28189e+07 9.18663e+07)
(-1.65788e+08 9.73709e+07 -1.18638e+08)
(-1.72023e+08 288259 1.09061e+08)
(-2.05034e+08 3.48121e+07 3.89738e+07)
(-1.8529e+08 6.0992e+07 -1.4422e+08)
(-1.65e+08 7.57864e+06 6.56676e+07)
(-1.77764e+08 -1.43174e+06 -8.2906e+07)
(-1.6184e+08 -1.34907e+06 8.27793e+07)
(-1.5109e+08 5.94739e+07 -1.13012e+08)
(-1.46886e+08 -1.85565e+07 7.4526e+07)
(-1.14776e+08 1.03234e+08 -1.24227e+08)
(-1.28686e+08 -3.76863e+07 8.98264e+07)
(-9.89236e+07 9.23493e+07 -9.67385e+07)
(-2.58168e+08 1.06131e+08 4.12267e+07)
(-2.65562e+08 9.90143e+07 -1.87305e+08)
(-2.73009e+08 1.03713e+08 6.45716e+07)
(-2.71928e+08 1.28181e+08 -1.97107e+08)
(-2.868e+08 8.12972e+07 8.27357e+07)
(-2.83315e+08 1.34193e+08 -1.90304e+08)
(-2.94117e+08 5.58347e+07 9.57845e+07)
(-2.88499e+08 1.08206e+08 -1.75327e+08)
(-2.86445e+08 5.28367e+07 1.09684e+08)
(-2.80779e+08 8.23305e+07 -1.63055e+08)
(-2.82435e+08 1.25678e+08 -1.85315e+08)
(-2.95093e+08 8.79645e+07 7.05412e+07)
(-3.02291e+08 7.79125e+07 -1.45946e+08)
(-2.83048e+08 8.67633e+07 9.72106e+07)
(-2.78497e+08 1.26491e+08 -1.60218e+08)
(-2.85586e+08 5.47182e+07 1.08867e+08)
(-2.71983e+08 1.25494e+08 -1.61977e+08)
(-2.82115e+08 2.99856e+07 1.18063e+08)
(-2.63222e+08 9.70534e+07 -1.54405e+08)
(-2.61335e+08 3.01025e+07 1.27328e+08)
(-2.91507e+08 6.96294e+07 6.85508e+07)
(-2.83805e+08 8.02595e+07 -1.42724e+08)
(-2.76944e+08 4.73482e+07 1.02876e+08)
(-2.77159e+08 3.97372e+07 -9.11089e+07)
(-2.44723e+08 5.65569e+07 1.27401e+08)
(-2.38139e+08 9.86788e+07 -1.14614e+08)
(-2.42644e+08 2.04002e+07 1.35241e+08)
(-2.22409e+08 9.6582e+07 -1.2716e+08)
(-2.34842e+08 -5.42544e+06 1.39862e+08)
(-2.06383e+08 7.66541e+07 -1.23682e+08)
(-2.43383e+08 8.52934e+07 -1.19161e+08)
(-2.25889e+08 2.91493e+07 8.82849e+07)
(-2.1075e+08 4.18738e+07 -8.82491e+07)
(-1.95171e+08 1.45577e+07 1.2087e+08)
(-1.90912e+08 9.19164e+06 -3.71466e+07)
(-1.68931e+08 1.94814e+07 1.32752e+08)
(-1.58073e+08 6.3658e+07 -6.95296e+07)
(-1.5689e+08 -5.81254e+06 1.43307e+08)
(-1.30565e+08 7.72774e+07 -8.10945e+07)
(-1.41467e+08 -2.92499e+07 1.44194e+08)
(-1.97232e+08 1.32007e+08 -1.72279e+08)
(-2.32813e+08 9.77982e+07 1.21626e+08)
(-2.33039e+08 1.01463e+08 -1.63676e+08)
(-2.44166e+08 8.53123e+07 1.22755e+08)
(-2.45643e+08 8.94774e+07 -1.77814e+08)
(-2.48953e+08 7.10445e+07 1.30988e+08)
(-2.44908e+08 8.92277e+07 -1.87797e+08)
(-2.46254e+08 5.94647e+07 1.31665e+08)
(-2.40755e+08 7.97606e+07 -1.9872e+08)
(-2.43112e+08 4.83211e+07 1.39404e+08)
(-2.58937e+08 9.55194e+07 1.33589e+08)
(-2.49759e+08 1.11102e+08 -1.54052e+08)
(-2.50735e+08 6.99882e+07 1.27136e+08)
(-2.40141e+08 7.14943e+07 -1.48846e+08)
(-2.27277e+08 5.50716e+07 1.32024e+08)
(-2.17767e+08 6.15817e+07 -1.62976e+08)
(-2.07855e+08 3.72972e+07 1.37411e+08)
(-1.94982e+08 5.90265e+07 -1.77057e+08)
(-1.9031e+08 2.66749e+07 1.39527e+08)
(-1.7819e+08 5.25042e+07 -1.83475e+08)
(-2.46133e+08 1.02502e+08 -1.39575e+08)
(-2.39844e+08 4.18155e+07 1.31088e+08)
(-2.24862e+08 5.84896e+07 -1.35272e+08)
(-2.06311e+08 1.62328e+07 1.30349e+08)
(-1.88258e+08 1.67864e+07 -1.11429e+08)
(-1.64027e+08 6.69101e+06 1.41489e+08)
(-1.40948e+08 1.87986e+07 -1.01249e+08)
(-1.35149e+08 -9.67574e+06 1.44522e+08)
(-1.12895e+08 2.80676e+07 -1.25508e+08)
(-1.09026e+08 -2.85184e+07 1.46337e+08)
(-2.18067e+08 1.08225e+07 1.19636e+08)
(-1.8903e+08 6.15054e+07 -9.51842e+07)
(-1.69845e+08 -2.02402e+06 1.19517e+08)
(-1.54716e+08 2.29245e+07 -8.44896e+07)
(-1.37866e+08 -1.13112e+07 1.26427e+08)
(-1.25932e+08 -9.08074e+06 -3.01606e+07)
(-1.10839e+08 2.29936e+06 1.39332e+08)
(-9.12305e+07 2.7072e+07 -4.79758e+07)
(-8.3517e+07 -1.97714e+07 1.41829e+08)
(-6.2916e+07 4.50078e+07 -6.64256e+07)
)
;

boundaryField
{
    inlet
    {
        type            calculated;
        value           nonuniform 0();
    }
    outlet
    {
        type            calculated;
        value           nonuniform 0();
    }
    bottom
    {
        type            calculated;
        value           uniform (0 0 0);
    }
    top
    {
        type            symmetryPlane;
    }
    side1
    {
        type            symmetryPlane;
    }
    side2
    {
        type            symmetryPlane;
    }
    procBoundary30to22
    {
        type            processor;
        value           nonuniform List<vector> 
50
(
(-1.8034e+08 6.39365e+07 -1.73931e+07)
(-1.71855e+08 8.99181e+07 -1.43366e+08)
(-1.42249e+08 4.85965e+07 5.94989e+06)
(-1.37331e+08 7.32059e+07 -1.49307e+08)
(-1.14589e+08 3.65064e+07 3.80344e+07)
(-1.00232e+08 7.81912e+07 -1.45864e+08)
(-9.36627e+07 1.40222e+07 4.91627e+07)
(-7.62059e+07 7.0705e+07 -1.28991e+08)
(-6.8971e+07 6.91192e+06 5.30905e+07)
(-6.95835e+07 4.48993e+07 -1.06712e+08)
(-1.96831e+08 7.06219e+07 -1.8018e+08)
(-2.00261e+08 7.2902e+07 -3.1312e+07)
(-2.01772e+08 6.95438e+07 -1.9126e+08)
(-1.91579e+08 6.0268e+07 2.93923e+07)
(-1.78131e+08 9.52133e+07 -1.93757e+08)
(-1.81294e+08 3.57851e+07 4.38639e+07)
(-1.65312e+08 9.67133e+07 -1.68461e+08)
(-1.60248e+08 3.95143e+07 5.33264e+07)
(-1.63657e+08 7.00423e+07 -1.33677e+08)
(-1.32813e+08 6.75621e+07 5.86588e+07)
(-2.15217e+08 9.18058e+07 -4.38513e+07)
(-2.12919e+08 7.9426e+07 -2.19513e+08)
(-2.2703e+08 9.26388e+07 5.03296e+06)
(-2.19342e+08 1.05972e+08 -2.3614e+08)
(-2.32988e+08 7.18457e+07 2.35424e+07)
(-2.30575e+08 1.18177e+08 -2.17356e+08)
(-2.30421e+08 6.31488e+07 3.36171e+07)
(-2.40098e+08 9.23255e+07 -1.77831e+08)
(-2.16546e+08 9.35803e+07 4.57741e+07)
(-2.37201e+08 7.73994e+07 -1.6315e+08)
(-1.50761e+08 8.44599e+07 -2.37128e+08)
(-2.16001e+08 1.11456e+08 3.68522e+07)
(-2.15339e+08 9.9454e+07 -2.152e+08)
(-2.46335e+08 1.11692e+08 6.01983e+07)
(-2.54007e+08 1.1808e+08 -2.1147e+08)
(-2.67466e+08 9.58091e+07 7.77165e+07)
(-2.76756e+08 1.12869e+08 -1.93708e+08)
(-2.72649e+08 7.7534e+07 8.86107e+07)
(-2.8148e+08 9.08938e+07 -1.81122e+08)
(-2.79081e+08 7.32646e+07 1.09976e+08)
(-1.27502e+08 8.01203e+07 1.77299e+08)
(-1.36519e+08 9.55142e+07 -1.61892e+08)
(-1.93987e+08 1.02453e+08 1.02188e+08)
(-2.03102e+08 9.90221e+07 -1.66604e+08)
(-2.18603e+08 1.014e+08 1.20772e+08)
(-2.21819e+08 1.04731e+08 -1.78669e+08)
(-2.3125e+08 9.66345e+07 1.27822e+08)
(-2.29483e+08 1.01431e+08 -1.93272e+08)
(-2.32507e+08 7.95247e+07 1.30925e+08)
(-2.29549e+08 8.89329e+07 -2.08051e+08)
)
;
    }
    procBoundary30to29
    {
        type            processor;
        value           nonuniform List<vector> 
20
(
(-2.18799e+08 6.34995e+07 -5.23166e+06)
(-2.2291e+08 1.24939e+08 -1.26103e+08)
(-2.25728e+08 3.81854e+07 3.38944e+07)
(-2.11343e+08 8.34455e+07 -1.24047e+08)
(-2.19835e+08 9.67805e+07 -1.85388e+08)
(-2.40522e+08 9.24189e+07 -2.88032e+06)
(-2.37027e+08 1.00468e+08 -1.76707e+08)
(-2.23204e+08 2.07194e+07 5.60696e+07)
(-2.42922e+08 1.05265e+08 -3.27682e+07)
(-2.47499e+08 1.30669e+08 -2.17323e+08)
(-2.64065e+08 7.74284e+07 2.00432e+07)
(-2.39726e+08 7.99939e+07 -1.58691e+08)
(-2.07695e+08 1.31041e+08 -2.30542e+08)
(-2.84847e+08 1.12155e+08 4.44727e+07)
(-2.84723e+08 1.27509e+08 -1.76103e+08)
(-2.73439e+08 4.13289e+07 7.40361e+07)
(-2.02868e+08 1.12161e+08 1.72404e+08)
(-2.39901e+08 1.45522e+08 -1.69382e+08)
(-2.65622e+08 6.4923e+07 1.29031e+08)
(-2.41751e+08 8.34228e+07 -6.67138e+07)
)
;
    }
    procBoundary30to31
    {
        type            processor;
        value           nonuniform List<vector> 
20
(
(-5.86268e+07 4.3832e+07 -9.81969e+07)
(-4.77566e+07 -1.07882e+07 6.29046e+07)
(-2.91566e+07 5.28888e+07 -9.83867e+07)
(-2.49137e+07 -4.06186e+07 6.71635e+07)
(-1.14602e+08 6.45703e+07 7.01039e+07)
(-1.1421e+08 6.06245e+07 -1.05226e+08)
(-8.82107e+07 -1.32915e+07 9.40198e+07)
(-4.26608e+07 6.46412e+07 -9.22491e+07)
(-2.26222e+08 7.12175e+07 -1.31936e+08)
(-1.86436e+08 6.87398e+07 9.19798e+07)
(-1.61823e+08 6.61133e+07 -8.40307e+07)
(-1.08076e+08 -2.82473e+07 1.0757e+08)
(-2.74351e+08 5.89608e+07 1.2248e+08)
(-2.45289e+08 7.4586e+07 -1.4061e+08)
(-2.11154e+08 -5.42776e+06 1.41441e+08)
(-1.10877e+08 7.2596e+07 -7.56715e+07)
(-2.35872e+08 6.59529e+07 -2.07239e+08)
(-1.70513e+08 1.30016e+07 1.46912e+08)
(-8.87249e+07 2.22379e+07 -1.25063e+08)
(-6.53631e+07 -4.07606e+07 1.37315e+08)
)
;
    }
}


// ************************************************************************* //
