/*--------------------------------*- C++ -*----------------------------------*\
| =========                 |                                                 |
| \\      /  F ield         | OpenFOAM: The Open Source CFD Toolbox           |
|  \\    /   O peration     | Version:  2.4.0                                 |
|   \\  /    A nd           | Web:      www.OpenFOAM.org                      |
|    \\/     M anipulation  |                                                 |
\*---------------------------------------------------------------------------*/
FoamFile
{
    version     2.0;
    format      ascii;
    class       surfaceScalarField;
    location    "0.01";
    object      phia;
}
// * * * * * * * * * * * * * * * * * * * * * * * * * * * * * * * * * * * * * //

dimensions      [0 3 -1 0 0 0 0];

internalField   nonuniform List<scalar> 
490
(
4.5676e-06
7.06888e-07
5.62669e-09
4.5686e-06
7.07041e-07
5.58133e-09
4.56951e-06
7.07162e-07
5.54026e-09
4.57033e-06
7.07253e-07
5.50296e-09
4.57108e-06
7.07318e-07
5.46902e-09
4.57177e-06
7.07361e-07
5.43803e-09
4.5724e-06
7.07383e-07
5.40969e-09
4.57298e-06
7.07387e-07
5.3837e-09
4.57352e-06
7.07375e-07
5.35982e-09
7.07349e-07
5.33782e-09
4.56637e-06
7.06821e-07
5.67893e-09
4.56742e-06
7.07008e-07
5.6315e-09
4.56836e-06
7.07159e-07
5.58884e-09
4.56921e-06
7.07281e-07
5.55017e-09
4.57e-06
7.07376e-07
5.51491e-09
4.57072e-06
7.07449e-07
5.48262e-09
4.57138e-06
7.07501e-07
5.45295e-09
4.57199e-06
7.07535e-07
5.42561e-09
4.57256e-06
7.07552e-07
5.40035e-09
7.07555e-07
5.37696e-09
4.56516e-06
7.06704e-07
5.73142e-09
4.56626e-06
7.06922e-07
5.68086e-09
4.56725e-06
7.07103e-07
5.63592e-09
4.56814e-06
7.07252e-07
5.5955e-09
4.56896e-06
7.07374e-07
5.55882e-09
4.5697e-06
7.07472e-07
5.52531e-09
4.57039e-06
7.07549e-07
5.49452e-09
4.57103e-06
7.07608e-07
5.46612e-09
4.57162e-06
7.0765e-07
5.43982e-09
7.07678e-07
5.4154e-09
4.56392e-06
5.78533e-09
4.5651e-06
5.73083e-09
4.56616e-06
5.68283e-09
4.5671e-06
5.64006e-09
4.56795e-06
5.60153e-09
4.56873e-06
5.56655e-09
4.56945e-06
5.53454e-09
4.57011e-06
5.50508e-09
4.57072e-06
5.47783e-09
5.45253e-09
4.56627e-06
7.0636e-07
5.68412e-09
4.56734e-06
7.06535e-07
5.63548e-09
4.56831e-06
7.06674e-07
5.59145e-09
4.5692e-06
7.06783e-07
5.5515e-09
4.57e-06
7.06864e-07
5.51513e-09
4.57074e-06
7.0692e-07
5.48195e-09
4.57142e-06
7.06956e-07
5.4516e-09
4.57204e-06
7.06971e-07
5.42377e-09
4.57261e-06
7.0697e-07
5.39821e-09
7.06954e-07
5.37466e-09
4.56505e-06
7.06309e-07
5.73604e-09
4.56616e-06
7.06517e-07
5.6854e-09
4.56717e-06
7.06688e-07
5.63986e-09
4.56808e-06
7.06826e-07
5.59858e-09
4.56892e-06
7.06937e-07
5.56095e-09
4.56969e-06
7.07024e-07
5.5265e-09
4.5704e-06
7.07089e-07
5.49485e-09
4.57105e-06
7.07134e-07
5.46569e-09
4.57165e-06
7.07163e-07
5.43876e-09
7.07175e-07
5.41383e-09
4.56384e-06
7.06205e-07
5.78826e-09
4.56502e-06
7.06445e-07
5.73451e-09
4.56607e-06
7.06645e-07
5.68671e-09
4.56702e-06
7.0681e-07
5.64372e-09
4.56789e-06
7.06948e-07
5.60472e-09
4.56868e-06
7.0706e-07
5.56909e-09
4.56941e-06
7.0715e-07
5.53636e-09
4.57009e-06
7.0722e-07
5.50617e-09
4.57072e-06
7.07273e-07
5.47822e-09
7.0731e-07
5.45227e-09
4.56261e-06
5.84197e-09
4.56387e-06
5.78426e-09
4.56498e-06
5.73341e-09
4.56598e-06
5.68809e-09
4.56689e-06
5.64727e-09
4.56771e-06
5.61018e-09
4.56847e-06
5.57626e-09
4.56917e-06
5.54504e-09
4.56982e-06
5.51617e-09
5.48936e-09
4.56494e-06
7.05831e-07
5.74158e-09
4.56608e-06
7.06028e-07
5.68967e-09
4.56712e-06
7.06186e-07
5.6427e-09
4.56806e-06
7.06312e-07
5.60009e-09
4.56892e-06
7.06408e-07
5.56131e-09
4.56971e-06
7.06479e-07
5.52593e-09
4.57043e-06
7.06527e-07
5.49358e-09
4.5711e-06
7.06554e-07
5.46392e-09
4.57171e-06
7.06563e-07
5.43667e-09
7.06556e-07
5.41158e-09
4.56373e-06
7.05796e-07
5.79319e-09
4.56491e-06
7.06025e-07
5.73935e-09
4.56598e-06
7.06215e-07
5.69093e-09
4.56695e-06
7.06371e-07
5.64705e-09
4.56784e-06
7.06497e-07
5.60706e-09
4.56866e-06
7.06598e-07
5.57045e-09
4.56941e-06
7.06676e-07
5.53683e-09
4.57011e-06
7.06733e-07
5.50586e-09
4.57075e-06
7.06771e-07
5.47725e-09
7.06793e-07
5.45078e-09
4.56253e-06
7.05706e-07
5.84515e-09
4.56377e-06
7.05967e-07
5.78821e-09
4.56489e-06
7.06185e-07
5.73757e-09
4.56589e-06
7.06368e-07
5.69202e-09
4.56681e-06
7.0652e-07
5.65069e-09
4.56766e-06
7.06646e-07
5.61294e-09
4.56843e-06
7.06749e-07
5.57827e-09
4.56915e-06
7.06831e-07
5.54629e-09
4.56981e-06
7.06895e-07
5.5167e-09
7.06941e-07
5.48923e-09
4.5613e-06
5.89866e-09
4.56263e-06
5.83775e-09
4.56381e-06
5.78407e-09
4.56486e-06
5.7362e-09
4.56582e-06
5.69307e-09
4.56669e-06
5.6539e-09
4.56749e-06
5.61806e-09
4.56823e-06
5.58508e-09
4.56892e-06
5.55459e-09
5.52628e-09
4.56361e-06
7.05302e-07
5.78309e-09
4.56482e-06
7.05521e-07
5.72761e-09
4.56593e-06
7.05699e-07
5.67739e-09
4.56693e-06
7.05841e-07
5.63179e-09
4.56785e-06
7.05953e-07
5.59027e-09
4.56868e-06
7.06038e-07
5.55237e-09
4.56945e-06
7.06098e-07
5.51768e-09
4.57015e-06
7.06137e-07
5.48584e-09
4.5708e-06
7.06157e-07
5.45657e-09
7.06159e-07
5.42957e-09
4.56241e-06
7.05284e-07
5.83378e-09
4.56366e-06
7.05534e-07
5.77644e-09
4.56479e-06
7.05743e-07
5.72483e-09
4.56583e-06
7.05916e-07
5.67803e-09
4.56677e-06
7.06057e-07
5.63535e-09
4.56763e-06
7.06172e-07
5.59626e-09
4.56843e-06
7.06262e-07
5.56032e-09
4.56916e-06
7.06331e-07
5.5272e-09
4.56984e-06
7.0638e-07
5.49658e-09
7.06412e-07
5.46822e-09
4.56122e-06
7.05207e-07
5.88484e-09
4.56253e-06
7.05489e-07
5.82442e-09
4.56371e-06
7.05726e-07
5.77064e-09
4.56477e-06
7.05926e-07
5.72222e-09
4.56574e-06
7.06093e-07
5.67824e-09
4.56663e-06
7.06233e-07
5.63805e-09
4.56745e-06
7.06348e-07
5.6011e-09
4.56821e-06
7.06442e-07
5.56701e-09
4.56891e-06
7.06516e-07
5.53543e-09
7.06573e-07
5.50609e-09
4.56e-06
5.93751e-09
4.56139e-06
5.87312e-09
4.56263e-06
5.81631e-09
4.56374e-06
5.76559e-09
4.56475e-06
5.71985e-09
4.56567e-06
5.67827e-09
4.56651e-06
5.64019e-09
4.56729e-06
5.60512e-09
4.56801e-06
5.57267e-09
5.54252e-09
4.56228e-06
7.04774e-07
4.56357e-06
7.05013e-07
4.56474e-06
7.0521e-07
4.5658e-06
7.0537e-07
4.56677e-06
7.05497e-07
4.56765e-06
7.05596e-07
4.56846e-06
7.05669e-07
4.56921e-06
7.05719e-07
4.56989e-06
7.05749e-07
7.05761e-07
4.56109e-06
7.04771e-07
4.56241e-06
7.05043e-07
4.56361e-06
7.0527e-07
4.5647e-06
7.0546e-07
4.56569e-06
7.05617e-07
4.5666e-06
7.05745e-07
4.56744e-06
7.05848e-07
4.56822e-06
7.05928e-07
4.56894e-06
7.05988e-07
7.06029e-07
4.5599e-06
7.04707e-07
4.56129e-06
7.0501e-07
4.56253e-06
7.05266e-07
4.56365e-06
7.05483e-07
4.56467e-06
7.05665e-07
4.56561e-06
7.05819e-07
4.56647e-06
7.05947e-07
4.56727e-06
7.06052e-07
4.56801e-06
7.06137e-07
7.06203e-07
4.55869e-06
4.56016e-06
4.56146e-06
4.56263e-06
4.56368e-06
4.56465e-06
4.56553e-06
4.56635e-06
4.56711e-06
)
;

boundaryField
{
    inlet
    {
        type            calculated;
        value           nonuniform 0();
    }
    outlet
    {
        type            calculated;
        value           nonuniform 0();
    }
    bottom
    {
        type            calculated;
        value           uniform 0;
    }
    top
    {
        type            symmetryPlane;
        value           uniform 0;
    }
    side1
    {
        type            symmetryPlane;
        value           nonuniform 0();
    }
    side2
    {
        type            symmetryPlane;
        value           nonuniform 0();
    }
    procBoundary21to13
    {
        type            processor;
        value           nonuniform List<scalar> 
50
(
-7.06831e-07
-7.06946e-07
-7.07028e-07
-7.07083e-07
-7.07113e-07
-7.07121e-07
-7.07111e-07
-7.07083e-07
-7.0704e-07
-7.06985e-07
-7.06282e-07
-7.06418e-07
-7.0652e-07
-7.06592e-07
-7.06638e-07
-7.0666e-07
-7.06662e-07
-7.06646e-07
-7.06615e-07
-7.06569e-07
-7.05731e-07
-7.0589e-07
-7.06011e-07
-7.061e-07
-7.06161e-07
-7.06198e-07
-7.06213e-07
-7.06209e-07
-7.06187e-07
-7.06151e-07
-7.05182e-07
-7.05362e-07
-7.05502e-07
-7.05609e-07
-7.05685e-07
-7.05736e-07
-7.05764e-07
-7.05771e-07
-7.0576e-07
-7.05733e-07
-7.04632e-07
-7.04833e-07
-7.04993e-07
-7.05116e-07
-7.05209e-07
-7.05273e-07
-7.05313e-07
-7.05332e-07
-7.05332e-07
-7.05315e-07
)
;
    }
    procBoundary21to20
    {
        type            processor;
        value           nonuniform List<scalar> 
20
(
-4.56647e-06
-4.56517e-06
-4.56386e-06
-4.56251e-06
-4.56506e-06
-4.56377e-06
-4.56246e-06
-4.56112e-06
-4.56365e-06
-4.56236e-06
-4.56107e-06
-4.55973e-06
-4.56224e-06
-4.56096e-06
-4.55968e-06
-4.55835e-06
-4.56083e-06
-4.55957e-06
-4.55828e-06
-4.55696e-06
)
;
    }
    procBoundary21to22
    {
        type            processor;
        value           nonuniform List<scalar> 
20
(
4.57415e-06
4.57324e-06
4.57232e-06
4.57142e-06
4.57329e-06
4.57237e-06
4.57146e-06
4.57056e-06
4.57242e-06
4.57151e-06
4.57059e-06
4.56969e-06
4.57155e-06
4.57064e-06
4.56973e-06
4.56883e-06
4.57068e-06
4.56977e-06
4.56886e-06
4.56796e-06
)
;
    }
    procBoundary21to29
    {
        type            processor;
        value           nonuniform List<scalar> 
50
(
7.06597e-07
7.0685e-07
7.07063e-07
7.07241e-07
7.07388e-07
7.0751e-07
7.07608e-07
7.07686e-07
7.07746e-07
7.07791e-07
7.06112e-07
7.06385e-07
7.06617e-07
7.06812e-07
7.06975e-07
7.0711e-07
7.07221e-07
7.0731e-07
7.07381e-07
7.07435e-07
7.05625e-07
7.05919e-07
7.0617e-07
7.06382e-07
7.0656e-07
7.06709e-07
7.06832e-07
7.06933e-07
7.07014e-07
7.07078e-07
7.05138e-07
7.05454e-07
7.05723e-07
7.05952e-07
7.06145e-07
7.06308e-07
7.06444e-07
7.06556e-07
7.06648e-07
7.06721e-07
7.04652e-07
7.04988e-07
7.05276e-07
7.05522e-07
7.0573e-07
7.05906e-07
7.06054e-07
7.06178e-07
7.0628e-07
7.06363e-07
)
;
    }
}


// ************************************************************************* //
