/*--------------------------------*- C++ -*----------------------------------*\
| =========                 |                                                 |
| \\      /  F ield         | OpenFOAM: The Open Source CFD Toolbox           |
|  \\    /   O peration     | Version:  2.4.0                                 |
|   \\  /    A nd           | Web:      www.OpenFOAM.org                      |
|    \\/     M anipulation  |                                                 |
\*---------------------------------------------------------------------------*/
FoamFile
{
    version     2.0;
    format      ascii;
    class       surfaceScalarField;
    location    "0.01";
    object      phib;
}
// * * * * * * * * * * * * * * * * * * * * * * * * * * * * * * * * * * * * * //

dimensions      [0 3 -1 0 0 0 0];

internalField   nonuniform List<scalar> 
490
(
1.56134e-05
8.6972e-07
-2.41891e-07
1.18493e-05
-8.2462e-07
6.36654e-06
1.08838e-05
5.87206e-08
2.10189e-06
1.20744e-05
4.40675e-07
3.24491e-07
1.27777e-05
9.84167e-08
4.84976e-08
1.34779e-05
-1.29277e-07
-1.05136e-07
1.39732e-05
-9.2046e-08
4.52974e-08
1.37496e-05
2.85749e-07
1.59005e-08
1.40956e-05
4.79983e-07
2.93304e-07
2.45044e-07
1.98596e-07
1.31719e-05
8.85447e-07
1.70162e-06
9.98193e-06
-3.7375e-07
2.73911e-06
1.11338e-05
-1.44266e-06
3.49529e-07
1.33182e-05
-1.89262e-06
1.48857e-07
1.35407e-05
3.30357e-07
-4.5439e-07
1.34235e-05
4.14922e-07
-4.27066e-07
1.6435e-05
6.72113e-07
-3.7756e-06
1.67626e-05
4.26071e-07
-4.67904e-07
1.53047e-05
1.1371e-06
8.0072e-07
4.92844e-07
3.88176e-07
1.5262e-05
2.64654e-07
3.09087e-07
1.44696e-05
2.36222e-07
1.82429e-07
1.3375e-05
-6.53384e-07
3.05387e-07
1.30028e-05
-2.45894e-06
9.3845e-07
1.3763e-05
-4.81162e-07
5.13513e-08
1.38637e-05
3.95462e-07
-8.12249e-08
1.40177e-05
5.04651e-07
1.34514e-08
1.42089e-05
2.10842e-07
2.40067e-08
1.44903e-05
7.26365e-07
1.29339e-07
4.13807e-07
1.07693e-07
1.53274e-05
1.36915e-07
1.55607e-05
7.99115e-08
1.49378e-05
9.70869e-08
1.24596e-05
3.46328e-07
1.31972e-05
4.85307e-07
1.36717e-05
1.42246e-08
1.40736e-05
-1.104e-07
1.41578e-05
-7.25811e-08
1.43799e-05
1.85784e-07
1.26063e-07
1.12856e-05
-5.44034e-07
-3.88244e-07
1.36337e-05
-1.01511e-05
6.20903e-06
1.27149e-05
3.92272e-06
3.10442e-06
1.34275e-05
2.39277e-07
-9.14975e-09
1.36664e-05
9.55441e-08
-1.69993e-07
1.41805e-05
3.73397e-07
-7.20659e-07
1.43348e-05
4.9122e-08
3.44518e-07
1.56384e-05
3.05871e-07
2.48625e-07
1.54879e-05
1.10384e-06
1.40682e-07
4.14364e-07
-7.5971e-08
1.35456e-05
-2.47603e-06
5.57042e-06
6.65927e-06
-7.81307e-07
2.55689e-07
1.2073e-05
-6.29442e-07
-5.12046e-07
1.35642e-05
-9.92413e-07
-1.10619e-07
1.37347e-05
1.41385e-07
-6.7073e-07
1.32444e-05
3.74953e-07
6.1674e-08
1.36515e-05
8.83859e-10
-4.13449e-06
1.38384e-05
7.48735e-08
-4.23762e-07
1.40261e-05
7.96827e-07
9.19995e-07
2.90531e-07
-1.49585e-08
1.38388e-05
-8.44192e-07
-2.04593e-07
1.37763e-05
-3.4197e-07
-1.94405e-07
1.26159e-05
-5.96864e-07
1.43327e-06
1.25e-05
-3.40614e-07
4.02465e-07
1.39595e-05
-5.7867e-07
-6.8809e-07
1.44677e-05
5.00176e-08
-2.64412e-07
1.44145e-05
1.37656e-07
-7.01762e-08
1.44386e-05
9.7252e-08
-2.24926e-08
1.50745e-05
3.54128e-07
-6.38196e-08
2.32818e-07
6.32604e-08
1.61477e-05
-1.12382e-07
1.55648e-05
4.44772e-07
1.57888e-05
-4.1537e-07
1.27043e-05
3.94188e-06
1.31627e-05
7.22163e-07
1.34731e-05
1.58636e-08
1.41927e-05
-6.5957e-07
1.43238e-05
-2.18067e-07
1.44806e-05
1.10276e-07
1.80338e-07
1.11536e-05
-2.79981e-06
2.22965e-08
1.24295e-05
-2.46223e-06
2.92573e-06
1.30815e-05
5.72373e-07
1.45229e-06
1.29264e-05
1.49538e-07
-1.10594e-06
1.21009e-05
6.5911e-07
3.03544e-07
1.27893e-05
5.08905e-07
1.83805e-07
1.64327e-05
2.4616e-06
1.008e-06
1.66992e-05
3.70676e-07
5.34981e-07
1.78801e-05
-2.13814e-07
1.66336e-07
2.19919e-06
7.50387e-07
1.59135e-05
-2.34491e-06
4.7924e-06
1.31728e-05
3.92334e-07
1.41857e-07
1.37702e-05
-6.11806e-08
-4.759e-07
1.40639e-05
-5.65893e-08
-1.98197e-07
1.46116e-05
-5.50506e-07
-8.83937e-09
1.48032e-05
2.09064e-07
1.69929e-07
1.51608e-05
3.73023e-07
-2.40352e-06
1.4306e-05
1.7984e-08
7.83692e-07
1.40086e-05
2.05087e-07
7.98498e-07
7.21445e-07
1.36358e-07
1.35226e-05
-2.7603e-08
-2.54098e-07
1.35635e-05
2.20986e-07
-6.40187e-08
1.27025e-05
8.81136e-07
1.35203e-06
1.49191e-05
-2.08289e-06
2.12091e-07
1.54024e-05
-1.40654e-06
-3.15312e-07
1.54765e-05
-9.22097e-08
-3.7271e-08
1.52545e-05
5.02939e-07
2.1985e-08
1.50903e-05
1.3012e-07
2.95472e-08
1.49424e-05
3.11311e-07
-2.21366e-08
6.52633e-08
5.43602e-08
1.48505e-05
-1.24457e-06
1.6723e-05
-1.02052e-06
1.60153e-05
1.41391e-06
1.62762e-05
4.46203e-06
1.49639e-05
8.9822e-07
1.44132e-05
1.9372e-07
1.45912e-05
-8.42721e-07
1.48179e-05
-3.11726e-07
1.50322e-05
-1.22142e-08
1.73061e-07
2.36019e-05
-6.98296e-06
2.59839e-08
7.4204e-06
-3.88017e-06
-9.81028e-06
9.94788e-06
4.25187e-06
-2.23196e-06
1.23845e-05
2.68346e-06
-1.43214e-06
1.37026e-05
-9.81135e-07
-4.52136e-07
1.50591e-05
-9.23587e-07
-1.24788e-07
1.49328e-05
1.38095e-06
-1.88011e-07
1.44752e-05
9.09999e-07
4.31701e-08
1.40217e-05
6.33785e-08
1.29145e-07
4.24946e-07
3.54121e-07
1.73916e-05
1.23761e-06
-1.15367e-05
1.24901e-05
8.61885e-07
3.01293e-07
1.47776e-05
4.03192e-07
1.08521e-06
1.68147e-05
-1.09955e-07
5.58181e-07
1.58757e-05
-2.00041e-07
1.49055e-07
1.58266e-05
-8.36192e-07
1.31597e-07
1.47746e-05
2.32824e-06
-2.29879e-06
1.39965e-05
1.58937e-06
8.82459e-07
1.43022e-05
1.0394e-07
4.52224e-07
-3.63815e-07
1.31157e-07
1.36368e-05
4.76673e-07
1.50127e-07
1.31934e-05
1.08621e-06
1.55064e-07
1.4782e-05
-1.48382e-07
3.15005e-07
1.52602e-05
-6.78873e-07
3.02804e-07
1.57152e-05
-9.00398e-07
-6.99374e-08
1.48781e-05
-4.27326e-07
3.90934e-07
1.50283e-05
1.85684e-06
3.43257e-07
1.60547e-05
3.86424e-07
2.06053e-07
1.58901e-05
7.20862e-08
1.74326e-07
-3.3607e-08
8.25685e-08
1.2586e-05
-1.19529e-06
1.30648e-05
-1.5061e-06
1.37076e-05
1.15803e-06
1.69922e-05
4.35188e-07
1.62472e-05
6.56385e-07
1.57689e-05
9.6835e-08
1.55649e-05
-4.55698e-07
1.55466e-05
-1.75205e-07
1.55126e-05
-1.58907e-07
2.12783e-07
2.79472e-05
-2.04237e-06
1.77212e-05
-3.51734e-06
1.3034e-05
1.36171e-06
1.21115e-05
9.81491e-07
1.60653e-05
3.61078e-07
1.63057e-05
2.8582e-07
1.63353e-05
-8.80028e-08
1.57161e-05
5.60106e-07
1.56669e-05
1.31607e-07
-1.22095e-07
1.15739e-05
-2.93399e-06
8.57477e-06
-2.15682e-07
1.16408e-05
-6.17874e-07
1.36743e-05
-4.92612e-07
1.47755e-05
-5.90293e-07
1.29596e-05
2.23442e-06
1.15238e-05
-9.46712e-07
1.34441e-05
-4.71373e-07
1.44427e-05
-4.13484e-07
-3.17466e-07
1.32307e-05
-4.23043e-07
1.36741e-05
-5.02879e-07
1.40694e-05
-6.97464e-07
1.45447e-05
-6.64406e-07
1.45086e-05
-6.22941e-07
1.54637e-05
1.67649e-06
1.49093e-05
-4.77535e-08
1.50191e-05
-3.74426e-07
1.51206e-05
-3.39947e-07
-1.65303e-07
1.45074e-05
1.29237e-05
1.36301e-05
1.37604e-05
1.37029e-05
1.51621e-05
1.46914e-05
1.38192e-05
1.75481e-05
)
;

boundaryField
{
    inlet
    {
        type            fixedValue;
        value           nonuniform 0();
    }
    outlet
    {
        type            calculated;
        value           nonuniform 0();
    }
    bottom
    {
        type            fixedValue;
        value           uniform 0;
    }
    top
    {
        type            symmetryPlane;
        value           nonuniform List<scalar> 
40
(
-4.53888e-10
-2.23512e-09
-1.51534e-09
-6.93199e-10
-1.08957e-09
-1.26422e-09
-1.14058e-09
-7.42389e-10
-8.57638e-10
-1.25941e-09
-6.9892e-10
-7.49384e-10
-6.03328e-10
-1.23555e-09
-6.86175e-10
-7.06037e-10
-6.43798e-10
-6.94355e-10
-1.22944e-09
-7.13146e-10
-1.20679e-09
-1.16087e-09
-6.23559e-09
-7.17097e-10
-1.21932e-09
-4.23557e-09
-1.25121e-09
-6.84733e-10
-6.94557e-10
-6.37842e-09
-7.07179e-10
-6.81901e-10
-6.95966e-10
-1.25862e-09
-7.04567e-10
-6.83569e-10
-9.50277e-10
-7.01629e-10
-1.27652e-09
-1.24094e-09
)
;
    }
    side1
    {
        type            symmetryPlane;
        value           nonuniform 0();
    }
    side2
    {
        type            symmetryPlane;
        value           nonuniform 0();
    }
    procBoundary21to13
    {
        type            processor;
        value           nonuniform List<scalar> 
50
(
-1.29099e-06
-1.77783e-06
-1.19512e-06
-1.95576e-06
-8.50262e-07
-4.65754e-07
-4.48575e-07
-7.80663e-08
-1.11927e-06
-4.61764e-07
4.28463e-06
7.96049e-06
-4.00644e-06
-6.18223e-07
-1.15926e-07
-2.71971e-07
-5.02722e-07
-1.84221e-06
-8.007e-07
-3.13615e-07
3.58517e-06
4.46969e-06
4.27719e-07
1.10244e-06
-3.07202e-07
-2.10172e-06
-6.76851e-06
-9.23591e-07
-9.92699e-07
-2.82218e-06
1.83845e-06
3.27977e-05
-3.0951e-06
-4.79392e-06
4.18708e-07
-1.24267e-07
-5.86939e-08
3.94268e-08
4.2737e-07
-4.45793e-07
-4.31605e-06
3.93418e-06
1.09433e-06
-1.49045e-06
-4.76637e-06
-6.4981e-07
-1.28408e-07
1.02929e-07
4.74799e-08
3.12192e-08
)
;
    }
    procBoundary21to20
    {
        type            processor;
        value           nonuniform List<scalar> 
20
(
-1.49502e-05
-1.48893e-05
-1.49503e-05
-1.51664e-05
-1.48799e-05
-1.54824e-05
-1.4957e-05
-1.66467e-05
-1.23495e-05
-1.55904e-05
-1.57904e-05
-1.38667e-05
-1.84611e-05
-9.28305e-06
-1.32801e-05
-1.30985e-05
-2.15624e-05
-2.22167e-05
-1.559e-05
-1.61451e-05
)
;
    }
    procBoundary21to22
    {
        type            processor;
        value           nonuniform List<scalar> 
20
(
1.41137e-05
1.46687e-05
1.44617e-05
1.44068e-05
1.56618e-05
1.45531e-05
1.51766e-05
1.44472e-05
1.76767e-05
1.53351e-05
1.56075e-05
1.49837e-05
1.44388e-05
1.50961e-05
1.55317e-05
1.55231e-05
1.61128e-05
1.47699e-05
1.50522e-05
1.78318e-05
)
;
    }
    procBoundary21to29
    {
        type            processor;
        value           nonuniform List<scalar> 
50
(
-3.32633e-08
-7.70172e-08
-1.27547e-07
-3.2711e-07
-1.70409e-06
-9.32381e-08
2.1319e-07
1.99158e-07
3.18479e-07
2.60894e-07
-9.59522e-08
-1.23888e-07
-3.08451e-07
-8.51581e-07
-1.27396e-06
-2.62007e-07
-3.27812e-08
1.11634e-07
2.72814e-07
2.11995e-07
1.20787e-07
-1.86265e-07
-2.404e-07
-2.86395e-06
-2.70335e-07
2.80623e-07
5.08113e-07
-2.90696e-09
2.19478e-07
1.21033e-07
9.39902e-07
1.09307e-06
-5.3537e-07
6.33642e-08
8.64418e-08
1.47865e-07
1.67385e-06
2.68169e-07
2.52841e-07
-8.38223e-08
2.00184e-08
-4.24459e-07
-2.45091e-07
-3.58866e-07
9.17271e-08
3.14768e-07
-3.19886e-08
3.23206e-07
-4.22702e-06
-2.35023e-07
)
;
    }
}


// ************************************************************************* //
