/*--------------------------------*- C++ -*----------------------------------*\
| =========                 |                                                 |
| \\      /  F ield         | OpenFOAM: The Open Source CFD Toolbox           |
|  \\    /   O peration     | Version:  2.4.0                                 |
|   \\  /    A nd           | Web:      www.OpenFOAM.org                      |
|    \\/     M anipulation  |                                                 |
\*---------------------------------------------------------------------------*/
FoamFile
{
    version     2.0;
    format      ascii;
    class       volVectorField;
    location    "0.01";
    object      Uc;
}
// * * * * * * * * * * * * * * * * * * * * * * * * * * * * * * * * * * * * * //

dimensions      [0 1 -1 0 0 0 0];

internalField   nonuniform List<vector> 
200
(
(6.96798e-43 2.81433e-43 -3.2841e-44)
(5.61124e-45 2.26636e-45 -2.6448e-46)
(4.36979e-47 1.76494e-47 -2.05975e-48)
(3.30089e-49 1.33321e-49 -1.55596e-50)
(2.42521e-51 9.79522e-52 -1.1432e-52)
(1.73726e-53 7.01659e-54 -8.18922e-55)
(1.21594e-55 4.91099e-56 -5.73179e-57)
(8.33152e-58 3.36495e-58 -3.92736e-59)
(5.59818e-60 2.26098e-60 -2.63888e-61)
(3.69433e-62 1.49204e-62 -1.74141e-63)
(2.29015e-45 9.2499e-46 -1.07936e-46)
(1.91379e-47 7.72982e-48 -9.02041e-49)
(1.54315e-49 6.23283e-50 -7.27388e-51)
(1.20518e-51 4.86775e-52 -5.68104e-53)
(9.14432e-54 3.69341e-54 -4.31065e-55)
(6.75824e-56 2.72966e-56 -3.18592e-57)
(4.87609e-58 1.96945e-58 -2.29868e-59)
(3.44129e-60 1.38992e-60 -1.6223e-61)
(2.3798e-62 9.61186e-63 -1.12189e-63)
(1.61511e-64 6.52327e-65 -7.61395e-66)
(6.92214e-48 2.79586e-48 -3.26231e-49)
(6.00891e-50 2.42703e-50 -2.83217e-51)
(5.02043e-52 2.02779e-52 -2.36643e-53)
(4.05478e-54 1.63776e-54 -1.91137e-55)
(3.1768e-56 1.28314e-56 -1.49756e-57)
(2.42134e-58 9.77999e-59 -1.14147e-59)
(1.79978e-60 7.26944e-61 -8.48475e-62)
(1.30734e-62 5.28043e-63 -6.16334e-64)
(9.2974e-65 3.75526e-65 -4.38322e-66)
(6.48389e-67 2.61885e-67 -3.05682e-68)
(1.94612e-50 7.86041e-51 -9.17135e-52)
(1.75422e-52 7.08541e-53 -8.26782e-54)
(1.51868e-54 6.13409e-55 -7.15825e-56)
(1.26856e-56 5.12386e-57 -5.97971e-58)
(1.02625e-58 4.14516e-59 -4.83777e-60)
(8.0658e-61 3.25789e-61 -3.8024e-62)
(6.17489e-63 2.49412e-63 -2.91108e-64)
(4.61498e-65 1.86405e-65 -2.17573e-66)
(3.37375e-67 1.3627e-67 -1.59059e-68)
(2.41654e-69 9.76067e-70 -1.13931e-70)
(7.13828e-45 2.88301e-45 -3.36373e-46)
(5.97657e-47 2.41382e-47 -2.8165e-48)
(4.83203e-49 1.95157e-49 -2.27724e-50)
(3.78432e-51 1.52841e-51 -1.78355e-52)
(2.87902e-53 1.16278e-53 -1.35691e-54)
(2.13297e-55 8.61457e-56 -1.00531e-56)
(1.54233e-57 6.22907e-58 -7.26933e-59)
(1.09065e-59 4.40482e-60 -5.14047e-61)
(7.55585e-62 3.05154e-62 -3.5612e-63)
(5.13626e-64 2.07433e-64 -2.42077e-65)
(2.43941e-47 9.8524e-48 -1.1495e-48)
(2.11627e-49 8.54736e-50 -9.9731e-51)
(1.76912e-51 7.1453e-52 -8.33768e-53)
(1.43063e-53 5.77815e-54 -6.74272e-55)
(1.12264e-55 4.53424e-56 -5.29137e-57)
(8.57159e-58 3.46197e-58 -4.04017e-59)
(6.38246e-60 2.57779e-60 -3.00839e-61)
(4.64414e-62 1.87569e-62 -2.18905e-63)
(3.30824e-64 1.33613e-64 -1.55937e-65)
(2.31076e-66 9.33266e-67 -1.0892e-67)
(7.65471e-50 3.09164e-50 -3.60694e-51)
(6.88896e-52 2.78239e-52 -3.24642e-53)
(5.95961e-54 2.40706e-54 -2.80868e-55)
(4.97797e-56 2.01058e-56 -2.34619e-57)
(4.02907e-58 1.62733e-58 -1.89906e-59)
(3.16923e-60 1.28004e-60 -1.49384e-61)
(2.42873e-62 9.80955e-63 -1.14483e-63)
(1.81725e-64 7.33979e-65 -8.56617e-66)
(1.33009e-66 5.37214e-67 -6.26986e-68)
(9.53882e-69 3.85264e-69 -4.49651e-70)
(2.23108e-52 9.01107e-53 -1.05125e-53)
(2.08236e-54 8.41054e-55 -9.81281e-56)
(1.86444e-56 7.53043e-57 -8.78665e-58)
(1.60888e-58 6.49826e-59 -7.58279e-60)
(1.34322e-60 5.42528e-61 -6.33108e-62)
(1.08843e-62 4.39618e-63 -5.1304e-64)
(8.58308e-65 3.46673e-65 -4.04587e-66)
(6.60197e-67 2.66655e-67 -3.11211e-68)
(4.96311e-69 2.00461e-69 -2.33962e-70)
(3.65291e-71 1.47541e-71 -1.72201e-72)
(3.8154e-47 1.5409e-47 -1.79757e-48)
(3.31681e-49 1.33955e-49 -1.56279e-50)
(2.7806e-51 1.12299e-51 -1.31022e-52)
(2.25523e-53 9.10811e-54 -1.06271e-54)
(1.77472e-55 7.16745e-56 -8.3631e-57)
(1.35854e-57 5.48662e-58 -6.40205e-59)
(1.01395e-59 4.09493e-60 -4.77825e-61)
(7.39359e-62 2.98595e-62 -3.48425e-63)
(5.27697e-64 2.13112e-64 -2.48678e-65)
(3.69237e-66 1.49116e-66 -1.74002e-67)
(1.35388e-49 5.46792e-50 -6.37859e-51)
(1.21784e-51 4.91852e-52 -5.73817e-53)
(1.05427e-53 4.25795e-54 -4.96786e-55)
(8.81841e-56 3.56155e-56 -4.15558e-57)
(7.14986e-58 2.88767e-58 -3.36945e-59)
(5.63458e-60 2.27567e-60 -2.65544e-61)
(4.32626e-62 1.74727e-62 -2.03891e-63)
(3.24307e-64 1.30979e-64 -1.52844e-65)
(2.37795e-66 9.60381e-67 -1.12072e-67)
(1.70829e-68 6.89922e-69 -8.05117e-70)
(4.40511e-52 1.77911e-52 -2.07535e-53)
(4.10542e-54 1.65809e-54 -1.93436e-55)
(3.67354e-56 1.48367e-56 -1.73101e-57)
(3.17033e-58 1.28044e-58 -1.494e-59)
(2.64847e-60 1.06968e-60 -1.24814e-61)
(2.14813e-62 8.67599e-63 -1.01239e-63)
(1.69593e-64 6.84961e-65 -7.99304e-66)
(1.30615e-66 5.27534e-67 -6.15614e-68)
(9.83232e-69 3.9711e-69 -4.63425e-70)
(7.24659e-71 2.92676e-71 -3.41556e-72)
(1.32956e-54 5.36976e-55 -6.2636e-56)
(1.28357e-56 5.18409e-57 -6.04764e-58)
(1.1874e-58 4.79575e-59 -5.59508e-60)
(1.05757e-60 4.27141e-61 -4.9837e-62)
(9.10434e-63 3.67715e-63 -4.29061e-64)
(7.60012e-65 3.06962e-65 -3.5819e-66)
(6.16894e-67 2.49159e-67 -2.90752e-68)
(4.88017e-69 1.97106e-69 -2.30018e-70)
(3.7703e-71 1.52279e-71 -1.77711e-72)
(2.84974e-73 1.15098e-73 -1.34324e-74)
(1.41307e-49 5.70668e-50 -6.65626e-51)
(1.27377e-51 5.14412e-52 -6.00058e-53)
(1.10588e-53 4.46613e-54 -5.21004e-55)
(9.27795e-56 3.74692e-56 -4.37126e-57)
(7.54402e-58 3.04666e-58 -3.55446e-59)
(5.96087e-60 2.40729e-60 -2.80861e-61)
(4.58772e-62 1.85274e-62 -2.16165e-63)
(3.44653e-64 1.39186e-64 -1.62396e-65)
(2.53211e-66 1.02257e-66 -1.1931e-67)
(1.82231e-68 7.35913e-69 -8.58641e-70)
(5.19966e-52 2.09991e-52 -2.44929e-53)
(4.84359e-54 1.95613e-54 -2.2818e-55)
(4.33718e-56 1.75163e-56 -2.0434e-57)
(3.7484e-58 1.51384e-58 -1.76612e-59)
(3.13696e-60 1.2669e-60 -1.4781e-61)
(2.54922e-62 1.02954e-62 -1.20121e-63)
(2.01649e-64 8.14387e-65 -9.50216e-66)
(1.55599e-66 6.28405e-67 -7.33232e-68)
(1.17346e-68 4.73911e-69 -5.52976e-70)
(8.66378e-71 3.49892e-71 -4.08271e-72)
(1.75205e-54 7.07582e-55 -8.25285e-56)
(1.68896e-56 6.82113e-57 -7.9566e-58)
(1.5615e-58 6.30643e-59 -7.35682e-60)
(1.39095e-60 5.61764e-61 -6.55377e-62)
(1.1982e-62 4.83921e-63 -5.64595e-64)
(1.00122e-64 4.04367e-65 -4.718e-66)
(8.13651e-67 3.28612e-67 -3.83428e-68)
(6.44515e-69 2.60302e-69 -3.03733e-70)
(4.98623e-71 2.01379e-71 -2.34985e-72)
(3.77408e-73 1.52423e-73 -1.77863e-74)
(5.46968e-57 2.20899e-57 -2.57634e-58)
(5.45601e-59 2.20351e-59 -2.57023e-60)
(5.2096e-61 2.10401e-61 -2.4544e-62)
(4.78457e-63 1.93237e-63 -2.25435e-64)
(4.24339e-65 1.71382e-65 -1.9995e-66)
(3.64622e-67 1.47264e-67 -1.71822e-68)
(3.04396e-69 1.2294e-69 -1.43448e-70)
(2.47478e-71 9.99518e-72 -1.1663e-72)
(1.96352e-73 7.93029e-74 -9.25382e-75)
(1.52309e-75 6.15144e-76 -7.17828e-77)
(4.08174e-52 1.64834e-52 -1.91318e-53)
(3.81068e-54 1.53889e-54 -1.78601e-55)
(3.42253e-56 1.38215e-56 -1.60394e-57)
(2.96716e-58 1.19825e-58 -1.39039e-59)
(2.49054e-60 1.00577e-60 -1.16691e-61)
(2.02946e-62 8.19571e-63 -9.50751e-64)
(1.60936e-64 6.49915e-65 -7.53836e-66)
(1.24465e-66 5.0263e-67 -5.82916e-68)
(9.40605e-69 3.79843e-69 -4.40448e-70)
(6.95776e-71 2.80971e-71 -3.2575e-72)
(1.55565e-54 6.28234e-55 -7.29043e-56)
(1.49904e-56 6.05382e-57 -7.02478e-58)
(1.38705e-58 5.60157e-59 -6.49946e-60)
(1.23743e-60 4.99736e-61 -5.79784e-62)
(1.06796e-62 4.31297e-63 -5.00327e-64)
(8.94192e-65 3.61121e-65 -4.18869e-66)
(7.28157e-67 2.94067e-67 -3.41048e-68)
(5.77948e-69 2.33404e-69 -2.70657e-70)
(4.4799e-71 1.80919e-71 -2.09765e-72)
(3.39713e-73 1.37191e-73 -1.59041e-74)
(5.42255e-57 2.18987e-57 -2.54079e-58)
(5.40146e-59 2.18139e-59 -2.5308e-60)
(5.15489e-61 2.08183e-61 -2.41512e-62)
(4.73537e-63 1.91242e-63 -2.21839e-64)
(4.20285e-65 1.69737e-65 -1.96873e-66)
(3.61529e-67 1.46008e-67 -1.69331e-68)
(3.02203e-69 1.22048e-69 -1.41528e-70)
(2.46042e-71 9.93669e-72 -1.15211e-72)
(1.95501e-73 7.8955e-74 -9.15322e-75)
(1.51876e-75 6.13364e-76 -7.10969e-77)
(1.74922e-59 7.06419e-60 -8.19454e-61)
(1.80115e-61 7.27402e-62 -8.43755e-63)
(1.77356e-63 7.1627e-64 -8.30787e-65)
(1.67824e-65 6.77783e-66 -7.86082e-67)
(1.53222e-67 6.18815e-68 -7.17623e-69)
(1.35424e-69 5.46938e-70 -6.34202e-71)
(1.162e-71 4.69297e-72 -5.44112e-73)
(9.70287e-74 3.91871e-74 -4.54287e-75)
(7.90129e-76 3.1911e-76 -3.69889e-77)
(6.28638e-78 2.53888e-78 -2.94249e-79)
)
;

boundaryField
{
    inlet
    {
        type            calculated;
        value           nonuniform 0();
    }
    outlet
    {
        type            calculated;
        value           nonuniform 0();
    }
    bottom
    {
        type            calculated;
        value           uniform (0 0 0);
    }
    top
    {
        type            symmetryPlane;
    }
    side1
    {
        type            symmetryPlane;
    }
    side2
    {
        type            symmetryPlane;
    }
    procBoundary21to13
    {
        type            processor;
        value           nonuniform List<vector> 
50
(
(1.98642e-40 8.02279e-41 -9.36184e-42)
(1.54473e-42 6.23888e-43 -7.2805e-44)
(1.16107e-44 4.6893e-45 -5.47237e-46)
(8.46495e-47 3.41879e-47 -3.98979e-48)
(6.00465e-49 2.42511e-49 -2.83019e-50)
(4.15528e-51 1.67819e-51 -1.95851e-52)
(2.81168e-53 1.13554e-53 -1.32522e-54)
(1.86407e-55 7.52819e-56 -8.78565e-57)
(1.21298e-57 4.89865e-58 -5.71684e-59)
(7.75915e-60 3.13351e-60 -3.65684e-61)
(1.95524e-42 7.89656e-43 -9.21311e-44)
(1.5834e-44 6.39482e-45 -7.46137e-46)
(1.2374e-46 4.99739e-47 -5.83109e-48)
(9.36586e-49 3.78251e-49 -4.41366e-50)
(6.88792e-51 2.78174e-51 -3.24596e-52)
(4.93545e-53 1.9932e-53 -2.32585e-54)
(3.45385e-55 1.39484e-55 -1.62764e-56)
(2.36555e-57 9.55313e-58 -1.11475e-58)
(1.58857e-59 6.41527e-60 -7.48592e-61)
(1.04768e-61 4.23088e-62 -4.93693e-63)
(1.00555e-44 4.06092e-45 -4.73724e-46)
(8.46781e-47 3.41972e-47 -3.98948e-48)
(6.87099e-49 2.77484e-49 -3.2373e-50)
(5.39255e-51 2.17776e-51 -2.5408e-52)
(4.10694e-53 1.65856e-53 -1.93509e-54)
(3.04387e-55 1.22924e-55 -1.43421e-56)
(2.20086e-57 8.88787e-58 -1.037e-58)
(1.55582e-59 6.2829e-60 -7.33065e-61)
(1.07734e-61 4.35059e-62 -5.07609e-63)
(7.31978e-64 2.95588e-64 -3.44877e-65)
(3.5884e-47 1.44911e-47 -1.69019e-48)
(3.13772e-49 1.26711e-49 -1.47801e-50)
(2.64005e-51 1.06614e-51 -1.24365e-52)
(2.14578e-53 8.66533e-54 -1.01085e-54)
(1.69041e-55 6.82637e-56 -7.9635e-57)
(1.2945e-57 5.22753e-58 -6.09845e-59)
(9.66102e-60 3.90133e-60 -4.55136e-61)
(7.04241e-62 2.84385e-62 -3.3177e-63)
(5.024e-64 2.02875e-64 -2.3668e-65)
(3.51362e-66 1.41883e-66 -1.65523e-67)
(9.99973e-50 4.03805e-50 -4.68741e-51)
(9.06767e-52 3.66168e-52 -4.25013e-53)
(7.90195e-54 3.19094e-54 -3.70336e-55)
(6.64403e-56 2.68296e-56 -3.11343e-57)
(5.40856e-58 2.18405e-58 -2.53414e-59)
(4.27547e-60 1.72648e-60 -2.00295e-61)
(3.2906e-62 1.32877e-62 -1.54132e-63)
(2.47143e-64 9.97972e-65 -1.15743e-65)
(1.815e-66 7.32896e-67 -8.49865e-68)
(1.30566e-68 5.27219e-69 -6.11261e-70)
)
;
    }
    procBoundary21to20
    {
        type            processor;
        value           nonuniform List<vector> 
20
(
(8.48133e-41 3.42552e-41 -3.99696e-42)
(2.65862e-43 1.0738e-43 -1.25288e-44)
(7.68397e-46 3.10352e-46 -3.62093e-47)
(2.07161e-48 8.36713e-49 -9.76148e-50)
(8.3475e-43 3.37134e-43 -3.93311e-44)
(2.7246e-45 1.10041e-45 -1.28373e-46)
(8.18627e-48 3.30628e-48 -3.85692e-49)
(2.29098e-50 9.25283e-51 -1.07932e-51)
(4.29267e-45 1.73363e-45 -2.02218e-46)
(1.4568e-47 5.88347e-48 -6.86258e-49)
(4.54421e-50 1.83525e-50 -2.14058e-51)
(1.31848e-52 5.32491e-53 -6.21048e-54)
(1.53176e-47 6.18588e-48 -7.21436e-49)
(5.39716e-50 2.17963e-50 -2.54197e-51)
(1.74552e-52 7.0493e-53 -8.22085e-54)
(5.24429e-55 2.11792e-55 -2.46978e-56)
(4.26826e-50 1.72363e-50 -2.00063e-51)
(1.55947e-52 6.29765e-53 -7.30843e-54)
(5.22311e-55 2.10928e-55 -2.44734e-56)
(1.62318e-57 6.55504e-58 -7.60403e-59)
)
;
    }
    procBoundary21to22
    {
        type            processor;
        value           nonuniform List<vector> 
20
(
(2.25636e-64 9.11278e-65 -1.0636e-65)
(1.01611e-66 4.10395e-67 -4.79023e-68)
(4.20237e-69 1.69734e-69 -1.98125e-70)
(1.61424e-71 6.5201e-72 -7.61084e-73)
(3.22691e-66 1.30322e-66 -1.5209e-67)
(1.49423e-68 6.03483e-69 -7.04334e-70)
(6.34972e-71 2.56459e-71 -2.99329e-72)
(2.50446e-73 1.01155e-73 -1.18067e-74)
(2.38466e-68 9.6304e-69 -1.12379e-69)
(1.1347e-70 4.58265e-71 -5.34796e-72)
(4.9516e-73 1.99985e-73 -2.33393e-74)
(2.00424e-75 8.09493e-76 -9.44742e-77)
(1.20897e-70 4.88224e-71 -5.6966e-72)
(5.90729e-73 2.38569e-73 -2.78383e-74)
(2.64543e-75 1.06841e-75 -1.24677e-76)
(1.09818e-77 4.43533e-78 -5.17591e-79)
(4.7388e-73 1.91364e-73 -2.21833e-74)
(2.37632e-75 9.59663e-76 -1.11237e-76)
(1.09147e-77 4.40801e-78 -5.10884e-79)
(4.6444e-80 1.87574e-80 -2.17367e-81)
)
;
    }
    procBoundary21to29
    {
        type            processor;
        value           nonuniform List<vector> 
50
(
(4.57357e-53 1.84729e-53 -2.15531e-54)
(4.2249e-55 1.70648e-55 -1.99122e-56)
(3.77758e-57 1.52582e-57 -1.78055e-58)
(3.27271e-59 1.3219e-59 -1.5427e-60)
(2.75145e-61 1.11136e-61 -1.29706e-62)
(2.24852e-63 9.08224e-64 -1.06003e-64)
(1.78914e-65 7.22671e-66 -8.43494e-67)
(1.38842e-67 5.60813e-68 -6.54596e-69)
(1.05252e-69 4.25134e-70 -4.96241e-71)
(7.80596e-72 3.15297e-72 -3.6804e-73)
(5.42063e-55 2.18935e-55 -2.55406e-56)
(5.17876e-57 2.09169e-57 -2.44039e-58)
(4.78399e-59 1.93227e-59 -2.25459e-60)
(4.27777e-61 1.72782e-61 -2.01618e-62)
(3.70843e-63 1.49786e-63 -1.74796e-64)
(3.1221e-65 1.26105e-65 -1.47168e-66)
(2.55705e-67 1.03282e-67 -1.20538e-68)
(2.04082e-69 8.24309e-70 -9.62063e-71)
(1.58987e-71 6.42164e-72 -7.495e-73)
(1.21083e-73 4.89065e-74 -5.70824e-75)
(3.33638e-57 1.3475e-57 -1.57176e-58)
(3.29337e-59 1.33015e-59 -1.55169e-60)
(3.14033e-61 1.26835e-61 -1.47975e-62)
(2.89579e-63 1.1696e-63 -1.36464e-64)
(2.58651e-65 1.04469e-65 -1.21898e-66)
(2.24168e-67 9.05413e-68 -1.05653e-68)
(1.88848e-69 7.62756e-70 -8.90104e-71)
(1.54912e-71 6.2569e-72 -7.30181e-73)
(1.23945e-73 5.00614e-74 -5.84236e-75)
(9.68794e-76 3.91295e-76 -4.56669e-77)
(1.41623e-59 5.71967e-60 -6.67069e-61)
(1.44294e-61 5.82765e-62 -6.79745e-63)
(1.41887e-63 5.73051e-64 -6.68482e-65)
(1.34806e-65 5.44461e-66 -6.35185e-67)
(1.23956e-67 5.00641e-68 -5.84105e-69)
(1.10506e-69 4.46319e-70 -5.20758e-71)
(9.5685e-72 3.86462e-72 -4.5094e-73)
(8.06157e-74 3.25599e-74 -3.79938e-75)
(6.62006e-76 2.67378e-76 -3.12011e-77)
(5.3073e-78 2.14356e-78 -2.50146e-79)
(4.66921e-62 1.88568e-62 -2.18702e-63)
(4.90597e-64 1.98133e-64 -2.29788e-65)
(4.9707e-66 2.0075e-66 -2.3281e-67)
(4.86212e-68 1.96367e-68 -2.2771e-69)
(4.59912e-70 1.85747e-70 -2.15376e-71)
(4.21456e-72 1.70217e-72 -1.97348e-73)
(3.74848e-74 1.51393e-74 -1.75505e-75)
(3.24169e-76 1.30925e-76 -1.51759e-77)
(2.73064e-78 1.10285e-78 -1.27819e-79)
(2.24416e-80 9.06371e-81 -1.05033e-81)
)
;
    }
}


// ************************************************************************* //
