/*--------------------------------*- C++ -*----------------------------------*\
| =========                 |                                                 |
| \\      /  F ield         | OpenFOAM: The Open Source CFD Toolbox           |
|  \\    /   O peration     | Version:  2.4.0                                 |
|   \\  /    A nd           | Web:      www.OpenFOAM.org                      |
|    \\/     M anipulation  |                                                 |
\*---------------------------------------------------------------------------*/
FoamFile
{
    version     2.0;
    format      ascii;
    class       volSymmTensorField;
    location    "0.12";
    object      B;
}
// * * * * * * * * * * * * * * * * * * * * * * * * * * * * * * * * * * * * * //

dimensions      [0 2 -2 0 0 0 0];

internalField   nonuniform List<symmTensor> 
200
(
(5.36308e+21 1.50934e+19 4.12383e+20 4.86782e+21 -6.65749e+19 5.4299e+21)
(5.22935e+21 -6.31271e+19 4.91475e+20 4.8435e+21 -5.84897e+19 5.59738e+21)
(5.79305e+21 -2.81296e+19 8.84087e+20 5.25467e+21 3.7723e+19 6.32816e+21)
(7.08443e+21 -1.29294e+20 7.10695e+20 7.03208e+21 -1.78388e+20 7.87558e+21)
(5.62974e+21 -4.3926e+20 6.04755e+20 5.6462e+21 1.27084e+19 6.47504e+21)
(3.95281e+22 -1.29303e+20 6.26253e+20 3.9147e+22 -5.47422e+20 4.13931e+22)
(1.16959e+22 2.26308e+19 9.51312e+19 1.11564e+22 -1.68264e+19 1.22383e+22)
(4.05508e+21 -1.85258e+20 1.40371e+20 3.87359e+21 -3.34216e+19 4.75902e+21)
(1.88359e+22 3.81501e+20 7.7939e+20 1.74708e+22 -7.77481e+19 1.85407e+22)
(1.4963e+22 -2.68409e+20 1.4884e+21 1.58931e+22 -1.6336e+20 1.68584e+22)
(7.27933e+21 -7.64532e+18 4.61867e+20 7.01749e+21 -1.52206e+20 7.4096e+21)
(4.60779e+21 4.83258e+19 4.48006e+20 4.4243e+21 -1.58335e+20 4.88322e+21)
(4.25511e+21 -1.77425e+19 4.48692e+20 4.631e+21 -8.10134e+19 5.2742e+21)
(2.04794e+21 -2.24294e+20 1.18449e+21 2.61214e+21 -4.80419e+20 4.28402e+21)
(5.49164e+21 -3.8375e+20 6.3341e+20 5.578e+21 -4.54886e+20 6.8604e+21)
(9.29506e+21 -2.0297e+21 1.72693e+21 9.14296e+21 -6.95378e+19 1.21244e+22)
(1.17714e+22 -7.45921e+19 1.14939e+20 1.16994e+22 -2.57635e+20 1.22751e+22)
(5.93106e+21 4.29778e+20 -2.70101e+20 5.17339e+21 -3.23796e+20 6.51099e+21)
(5.66566e+20 -3.46454e+19 2.41213e+20 9.57788e+20 -1.63193e+20 1.9553e+21)
(8.02676e+22 -1.11484e+20 3.36936e+21 7.50007e+22 -5.67605e+20 7.72491e+22)
(3.50816e+21 -2.53076e+20 3.61775e+20 3.56654e+21 -2.21254e+20 3.75821e+21)
(3.26533e+21 -1.75412e+19 7.17454e+20 2.9969e+21 -3.28898e+20 3.8354e+21)
(5.49262e+21 1.92796e+19 2.79892e+20 5.37502e+21 -1.4061e+20 5.61903e+21)
(4.68526e+21 -1.21632e+20 3.9616e+20 4.81087e+21 -1.85645e+20 5.58234e+21)
(1.71312e+22 -1.41174e+21 3.24316e+21 1.64815e+22 -1.01215e+21 1.86472e+22)
(1.73068e+22 -1.49452e+20 1.64358e+20 1.74944e+22 -2.38056e+20 1.80616e+22)
(1.78493e+22 2.04108e+19 -5.75863e+20 1.87623e+22 -6.17934e+20 1.91057e+22)
(4.17646e+21 2.548e+19 1.03604e+20 3.85765e+21 -3.34094e+20 4.60153e+21)
(4.158e+21 3.57581e+20 4.53441e+20 3.66084e+21 -5.07795e+20 4.86461e+21)
(3.70051e+21 -3.5166e+20 9.31074e+20 4.10153e+21 -5.02427e+20 5.86371e+21)
(5.82533e+21 -6.39825e+20 3.49757e+20 5.40073e+21 -3.68141e+20 5.74045e+21)
(3.40058e+21 -1.25287e+20 1.65009e+20 3.24503e+21 -1.92958e+20 3.407e+21)
(2.66822e+21 -7.09793e+19 3.97972e+20 2.48189e+21 -3.50744e+20 3.00954e+21)
(4.69654e+21 -2.67429e+20 2.57039e+20 4.59174e+21 -3.04075e+20 4.99928e+21)
(4.31679e+21 -7.45056e+20 2.48398e+20 4.60904e+21 -7.25735e+20 5.46002e+21)
(9.69535e+21 -3.14612e+20 1.34691e+20 1.01988e+22 -8.36518e+20 1.03994e+22)
(9.6158e+21 -2.71475e+20 1.52665e+20 9.72586e+21 -3.05393e+20 9.94715e+21)
(6.6213e+21 -5.97962e+19 1.36435e+20 6.59571e+21 -4.20466e+20 7.0546e+21)
(3.79837e+21 2.94969e+20 1.50807e+20 3.81975e+21 -4.86888e+20 4.6277e+21)
(3.13417e+21 1.47258e+20 3.45534e+20 3.20713e+21 -6.32877e+20 4.18558e+21)
(3.2315e+21 1.69034e+20 2.36261e+20 2.35963e+21 1.0933e+20 2.86031e+21)
(1.47719e+21 1.01439e+20 2.03035e+20 9.93893e+20 -8.24094e+19 1.2196e+21)
(1.79733e+21 -2.0443e+20 1.41616e+20 1.47457e+21 1.31423e+20 1.74427e+21)
(7.91038e+20 1.5737e+19 1.15293e+20 1.94649e+20 2.69458e+19 5.29463e+20)
(6.88403e+22 -8.71083e+20 1.7112e+21 6.77827e+22 2.91958e+19 6.80891e+22)
(3.34737e+22 -2.02877e+20 3.68848e+20 3.27398e+22 -2.01419e+20 3.33844e+22)
(6.77709e+21 2.67716e+20 -2.96246e+20 6.47414e+21 -1.58375e+20 7.23084e+21)
(8.21434e+21 7.44836e+19 5.34034e+19 8.33402e+21 -1.90831e+20 9.48326e+21)
(8.28589e+21 -1.21306e+20 3.68368e+20 8.32596e+21 -1.6379e+19 9.15799e+21)
(2.02498e+22 -1.13367e+19 1.61045e+21 1.94924e+22 -2.24679e+20 2.07405e+22)
(2.35013e+20 3.11899e+19 5.98167e+19 1.31211e+20 -1.22354e+19 2.7733e+20)
(5.976e+20 2.12989e+19 4.38144e+20 5.12346e+20 1.32995e+19 8.02477e+20)
(1.86455e+21 -2.09666e+20 3.80245e+20 1.29577e+21 -1.62254e+20 1.66162e+21)
(2.32076e+21 -6.33858e+20 2.48742e+20 2.34245e+21 7.35378e+19 2.58982e+21)
(2.97433e+21 -7.85139e+20 9.26418e+20 2.53421e+21 -1.78958e+20 3.3612e+21)
(2.87953e+22 -2.4251e+20 2.37981e+20 2.89884e+22 -3.25609e+20 2.89934e+22)
(4.27036e+21 -1.46461e+20 2.55055e+20 3.96762e+21 -1.88352e+20 4.4393e+21)
(8.79679e+21 7.12022e+19 4.34434e+20 8.07987e+21 -4.25621e+20 9.48999e+21)
(4.97204e+21 2.02009e+19 6.824e+20 4.76374e+21 -2.02398e+20 6.00829e+21)
(1.58946e+22 -1.77447e+20 1.06742e+21 1.56793e+22 -2.52403e+19 1.64614e+22)
(4.34192e+20 -7.7341e+19 1.87094e+20 4.26399e+20 -9.42231e+19 6.55559e+20)
(3.31699e+20 -1.21069e+20 8.83937e+19 2.8934e+20 -4.25434e+19 4.55506e+20)
(1.73827e+21 -8.44618e+20 5.9437e+20 1.26264e+21 -3.5338e+20 1.82274e+21)
(2.39273e+21 -2.59344e+20 2.73189e+20 1.99719e+21 -1.32689e+20 2.23401e+21)
(3.57842e+21 -6.5844e+20 2.7851e+20 3.53132e+21 -2.16244e+20 3.84025e+21)
(5.92632e+21 -5.07248e+20 6.27923e+20 6.28955e+21 -3.83875e+20 5.8364e+21)
(5.76095e+21 -1.77582e+20 3.62475e+20 5.79745e+21 -3.38047e+20 6.30539e+21)
(2.19646e+21 1.29251e+20 7.42902e+19 1.95268e+21 -1.41386e+20 2.56515e+21)
(4.06252e+21 2.16988e+20 5.85886e+20 3.30267e+21 -1.12785e+20 4.38036e+21)
(5.08415e+21 1.0876e+20 1.51758e+21 3.93216e+21 -3.23416e+20 5.64598e+21)
(2.70081e+21 -7.41788e+19 2.48671e+19 2.67045e+21 -1.48775e+19 2.68171e+21)
(1.695e+21 -2.15792e+20 2.8751e+20 8.45456e+20 -1.84937e+20 1.56858e+21)
(5.49004e+21 -5.40744e+20 3.46526e+20 4.80976e+21 -1.32462e+20 5.13312e+21)
(5.98487e+21 -1.14298e+21 4.05661e+20 4.2436e+21 -6.32209e+20 5.37628e+21)
(1.79564e+21 -2.01394e+20 3.80217e+20 1.33643e+21 -3.77356e+20 1.80601e+21)
(7.44934e+21 -5.83788e+20 4.32125e+20 7.76242e+21 -5.595e+20 7.94809e+21)
(9.38434e+21 -5.74745e+20 3.48097e+20 9.54815e+21 -5.70212e+20 9.90197e+21)
(1.93711e+21 9.33826e+19 2.60864e+20 1.8833e+21 -2.05738e+20 2.45187e+21)
(1.05704e+21 3.92314e+19 1.82434e+20 7.95461e+20 -1.505e+20 1.32387e+21)
(3.30089e+21 -1.59638e+20 7.45667e+20 2.28491e+21 -4.81972e+20 3.82052e+21)
(2.99393e+21 -1.86245e+19 8.24226e+19 2.12217e+21 -3.71568e+19 2.41646e+21)
(5.00048e+21 1.71645e+19 2.06282e+20 2.72128e+21 -4.729e+18 3.20943e+21)
(3.89685e+21 2.17911e+19 6.94731e+19 2.91396e+21 -7.35059e+19 3.20544e+21)
(4.06532e+21 -1.24236e+20 -8.19738e+19 3.14919e+21 4.98636e+19 3.42478e+21)
(3.14074e+22 -4.85909e+19 4.37567e+20 3.04539e+22 2.73551e+19 3.07931e+22)
(4.50549e+22 -1.54068e+20 4.223e+20 4.37009e+22 4.33777e+19 4.3717e+22)
(6.57361e+22 -3.02098e+20 4.39623e+20 6.3119e+22 4.79606e+19 6.40814e+22)
(3.33737e+22 -1.03536e+20 2.46493e+20 3.10433e+22 -1.72154e+20 3.23377e+22)
(1.49759e+21 1.4219e+20 -2.35376e+20 1.05652e+21 -2.02613e+20 2.20523e+21)
(5.49716e+21 1.87603e+20 9.14836e+20 6.54518e+21 -1.81014e+20 7.48355e+21)
(2.15026e+21 -5.25557e+19 -4.94454e+19 1.34795e+21 -6.6734e+19 1.48964e+21)
(3.15397e+21 -1.50305e+20 3.58416e+19 2.51196e+21 -2.22774e+19 2.79683e+21)
(4.39076e+21 -4.87124e+20 2.10393e+19 2.48173e+21 -1.62705e+20 2.6798e+21)
(1.06995e+22 -4.0998e+20 1.09938e+20 9.57284e+21 -1.96205e+18 9.87776e+21)
(2.22237e+22 -3.30531e+20 1.86897e+20 2.14426e+22 2.37638e+19 2.17045e+22)
(2.94628e+22 -5.59334e+20 5.11809e+20 2.77572e+22 -1.60798e+20 2.85004e+22)
(2.52444e+22 -4.95109e+20 6.36337e+20 2.33114e+22 -3.35664e+18 2.43638e+22)
(1.32704e+22 1.04806e+20 3.72153e+20 1.19018e+22 -3.65269e+20 1.26487e+22)
(3.56627e+21 9.04049e+19 1.6445e+20 2.12787e+21 -5.32567e+20 3.15673e+21)
(1.27027e+22 -2.88585e+20 4.86736e+20 1.03978e+22 -7.34154e+20 1.18892e+22)
(1.15567e+21 -8.84023e+19 3.83061e+19 9.97024e+20 -1.49236e+19 1.18274e+21)
(1.29899e+21 -3.33511e+20 -2.75879e+18 4.8948e+20 -2.02263e+20 1.00172e+21)
(2.76277e+21 -3.81753e+20 7.2831e+19 2.25233e+21 -2.06293e+19 2.45982e+21)
(1.02008e+22 -2.04804e+21 1.06941e+20 7.74586e+21 -2.8313e+20 8.08989e+21)
(3.80009e+22 -9.923e+20 1.68148e+20 3.67542e+22 -7.70742e+19 3.69962e+22)
(4.96759e+22 -1.04515e+21 5.38753e+20 4.78762e+22 -1.00759e+20 4.8283e+22)
(8.43368e+21 -2.54627e+20 4.37584e+20 7.53303e+21 -1.47619e+20 7.55205e+21)
(1.95663e+20 1.64882e+20 1.6355e+17 7.91194e+20 -2.88193e+20 6.1649e+20)
(3.96098e+21 -3.45123e+20 1.70779e+20 3.19212e+21 -5.27007e+20 3.73224e+21)
(9.93815e+21 -9.67977e+20 1.81853e+21 8.02543e+21 -8.50247e+20 9.95966e+21)
(2.38576e+21 -2.79649e+20 2.12792e+20 2.16242e+21 -6.27921e+19 2.27042e+21)
(2.9002e+21 -2.57774e+20 1.40455e+20 2.3848e+21 -1.20488e+20 2.82944e+21)
(4.0982e+21 -5.55439e+20 3.70157e+19 2.6858e+21 -2.39401e+20 3.41081e+21)
(1.32322e+22 -1.33712e+21 1.61804e+20 1.17686e+22 -7.82452e+18 1.2119e+22)
(2.31767e+22 -1.72818e+21 2.79594e+20 2.15935e+22 -1.89055e+19 2.18333e+22)
(1.0614e+22 -8.59737e+20 3.57287e+20 1.06468e+22 -1.58503e+20 1.03499e+22)
(2.3551e+21 -1.38734e+20 7.23419e+20 3.32536e+21 -1.81965e+20 2.62619e+21)
(2.03551e+21 5.4223e+19 2.57126e+20 1.79695e+21 -2.94772e+20 1.65671e+21)
(1.66809e+22 -6.23483e+20 1.3967e+21 1.46898e+22 -1.5563e+21 1.55961e+22)
(2.55052e+22 -5.9183e+20 1.15727e+21 2.32552e+22 -6.04413e+20 2.54637e+22)
(2.08006e+21 -6.35254e+19 1.56074e+20 1.48719e+21 -3.19042e+19 1.71913e+21)
(1.49239e+21 -4.48979e+19 1.02336e+20 1.10509e+21 2.70267e+19 1.36712e+21)
(7.25797e+20 -9.43805e+18 2.56547e+20 6.6781e+19 -3.87987e+19 3.18947e+20)
(3.36819e+21 -8.72925e+19 1.90705e+20 2.53671e+21 9.56553e+18 2.66802e+21)
(6.58583e+21 -2.49729e+19 1.73292e+20 6.01106e+21 -2.27049e+19 6.03324e+21)
(8.96721e+21 1.37921e+19 1.91893e+20 8.55356e+21 7.86081e+18 8.39966e+21)
(1.04842e+22 -3.39693e+19 2.55453e+20 1.00269e+22 3.37503e+19 9.76927e+21)
(2.33362e+22 7.64155e+19 7.45841e+19 2.18152e+22 -2.99783e+19 2.12039e+22)
(5.99097e+22 -1.69622e+20 7.4507e+19 5.67118e+22 -2.41299e+20 5.6692e+22)
(2.34847e+22 2.20795e+20 6.91496e+20 1.86271e+22 -6.36157e+20 2.00716e+22)
(3.30198e+20 -3.01344e+20 -3.90149e+19 8.88956e+19 2.26859e+20 3.14344e+20)
(2.77819e+20 4.47394e+19 6.57608e+19 -1.03943e+20 5.20443e+19 3.84604e+19)
(6.80565e+19 -4.59986e+19 -2.23862e+19 -2.74759e+20 3.55654e+19 -1.15283e+20)
(1.72063e+21 -3.40921e+20 1.38478e+20 7.90885e+20 -2.03732e+20 9.14737e+20)
(7.0735e+21 -1.69727e+20 2.14512e+20 6.15286e+21 -1.05354e+20 6.11394e+21)
(2.11596e+22 -4.95262e+19 1.57964e+20 2.02896e+22 8.43078e+19 2.03339e+22)
(8.14343e+22 -2.28239e+20 2.72621e+20 7.88697e+22 1.49188e+20 7.88666e+22)
(3.84151e+22 -8.64764e+20 -3.2168e+20 3.56645e+22 2.02265e+20 3.57927e+22)
(3.37867e+22 -2.29878e+21 -4.54291e+20 2.95651e+22 -4.52851e+20 3.02864e+22)
(4.48648e+22 -3.95963e+20 1.26984e+21 3.88811e+22 -6.18908e+20 4.05796e+22)
(3.2311e+21 -2.55951e+20 6.74846e+19 3.43607e+21 7.07912e+19 3.16267e+21)
(1.01977e+20 -1.0305e+20 -1.49346e+20 -4.90858e+19 1.07617e+18 1.55551e+20)
(1.17064e+21 -1.04779e+20 -2.48194e+20 6.19454e+20 -8.18776e+19 7.46042e+20)
(9.61447e+20 -3.48468e+20 -1.33409e+20 4.06705e+20 -2.18444e+20 6.07653e+20)
(8.57161e+20 -1.43927e+20 6.16894e+19 4.81802e+20 -8.83428e+19 5.14633e+20)
(9.55134e+20 -4.22042e+19 2.61308e+19 7.62376e+20 6.65881e+19 7.84431e+20)
(1.42783e+21 -4.75842e+20 4.47757e+17 9.95088e+20 1.6515e+20 9.27095e+20)
(2.42384e+22 -1.22815e+21 -1.2066e+20 2.24345e+22 9.70956e+19 2.27745e+22)
(1.10128e+23 -5.5172e+20 6.51041e+20 1.01347e+23 1.78737e+20 1.04987e+23)
(1.43482e+22 -1.02586e+20 2.73622e+20 1.03354e+22 7.73171e+20 1.1293e+22)
(2.4251e+21 -2.1871e+20 9.87998e+19 2.32785e+21 -5.55203e+19 2.36236e+21)
(4.38726e+21 -5.4258e+20 1.41719e+20 4.12341e+21 -7.51419e+19 3.95917e+21)
(1.98614e+21 -2.01769e+20 -2.36458e+20 1.19401e+21 -7.58775e+19 1.54486e+21)
(3.41832e+21 -1.38498e+20 -1.07788e+20 2.84646e+21 -1.29296e+19 2.91674e+21)
(1.87999e+21 -1.0484e+20 -1.04891e+20 1.46729e+21 6.01094e+19 1.52699e+21)
(2.17866e+21 -1.15258e+20 4.28203e+19 1.31783e+21 4.00407e+20 1.35146e+21)
(4.75003e+21 -3.23925e+20 2.15147e+20 3.63241e+21 2.95647e+20 3.95216e+21)
(2.90494e+23 -3.83954e+21 1.02755e+20 2.81753e+23 -6.97737e+19 2.83517e+23)
(1.04228e+23 -1.16047e+21 2.46251e+21 9.45278e+22 -3.58073e+20 9.78964e+22)
(4.221e+22 3.92722e+21 1.65173e+21 4.68765e+22 4.1922e+20 4.85764e+22)
(1.8039e+21 -2.11974e+20 2.52023e+20 1.74237e+21 2.2288e+19 1.55464e+21)
(3.12068e+21 -2.21832e+20 1.23728e+20 2.59056e+21 -1.33288e+19 2.55252e+21)
(3.59592e+21 -2.4644e+20 -1.71181e+20 2.66329e+21 -3.84315e+18 2.53618e+21)
(1.47641e+22 -3.15994e+20 -2.13883e+20 1.36536e+22 2.76113e+19 1.37556e+22)
(4.59485e+21 -2.55417e+18 3.0224e+20 3.0948e+21 -6.93964e+19 3.93609e+21)
(4.71295e+21 1.54461e+19 4.48342e+20 4.52133e+21 -6.48915e+18 4.21813e+21)
(1.10045e+22 -1.38742e+20 2.28911e+20 1.02375e+22 7.85666e+18 9.62038e+21)
(1.22113e+22 -1.61676e+20 2.67155e+20 1.13887e+22 2.27105e+19 1.01615e+22)
(1.48135e+22 -5.31257e+20 3.86694e+20 1.26817e+22 6.98571e+19 1.15097e+22)
(2.84184e+22 -9.28391e+20 7.11322e+20 2.30881e+22 -6.30127e+19 2.17832e+22)
(1.17442e+22 -4.85298e+20 5.94765e+19 1.16339e+22 3.47443e+19 1.14136e+22)
(5.0589e+21 -2.11684e+20 -1.45358e+19 4.5934e+21 -1.14195e+19 4.63703e+21)
(9.9007e+21 -3.67027e+20 -8.11832e+19 8.40684e+21 -6.15129e+19 8.67595e+21)
(6.53717e+22 -8.36179e+20 -3.23505e+20 6.27751e+22 -2.19413e+19 6.32158e+22)
(6.2649e+21 -7.82161e+19 4.87788e+20 5.0783e+21 9.79255e+18 5.53018e+21)
(1.61056e+21 2.6273e+20 7.2573e+20 1.45753e+21 8.93464e+19 1.30749e+21)
(1.19267e+22 -3.08915e+20 4.18659e+20 1.04422e+22 -3.92663e+19 9.85104e+21)
(3.71635e+21 -1.29581e+21 -2.95008e+20 3.89277e+21 1.70295e+20 2.83578e+21)
(1.21703e+22 -2.34896e+21 -3.9358e+20 1.11212e+22 1.94342e+20 1.02792e+22)
(1.04346e+22 9.5103e+20 -3.93221e+20 6.34068e+21 1.56892e+20 5.9525e+21)
(4.6981e+21 -3.00701e+20 9.31757e+18 4.24252e+21 5.67422e+19 4.2269e+21)
(2.38224e+22 -1.35773e+21 1.4522e+20 2.29835e+22 -2.5273e+20 2.20577e+22)
(2.13739e+21 -7.32248e+20 -2.36287e+20 1.20283e+21 -1.94115e+20 1.53891e+21)
(8.61371e+20 -3.09764e+20 2.66389e+18 3.99274e+20 -3.18574e+20 4.90665e+20)
(1.15604e+21 -1.85558e+20 1.70961e+19 1.29666e+21 6.3917e+19 1.08022e+21)
(5.4017e+20 1.04866e+20 1.53625e+19 4.23325e+18 -4.55161e+19 5.87701e+19)
(3.45009e+21 -2.63251e+20 5.69918e+19 3.02859e+21 -9.75241e+18 3.00556e+21)
(3.31488e+22 -5.74886e+20 3.31404e+20 3.0368e+22 -4.07115e+18 3.09985e+22)
(9.92143e+22 -2.1021e+21 5.75204e+20 8.92412e+22 6.92849e+20 9.11694e+22)
(2.89428e+22 2.50587e+21 3.34038e+19 3.09877e+22 4.21769e+21 2.53361e+22)
(2.61781e+21 -2.85595e+21 5.18203e+20 1.54545e+21 -8.27759e+20 1.84062e+21)
(6.41532e+21 -7.30807e+20 -8.43311e+19 6.19316e+21 2.26289e+19 5.96376e+21)
(3.29527e+22 -3.27851e+21 -3.00991e+20 2.77413e+22 -4.63458e+20 2.74121e+22)
(5.71172e+20 -3.41762e+20 -8.49248e+19 2.59485e+20 -1.59613e+20 4.2737e+20)
(2.03364e+21 2.93126e+20 1.02643e+20 3.54061e+21 -3.57778e+20 2.59358e+21)
(2.47637e+21 7.41641e+19 3.20628e+18 1.51895e+21 1.3952e+20 1.84951e+21)
(2.74474e+21 -1.31044e+21 1.19089e+19 2.91087e+21 2.19749e+19 2.96128e+21)
(4.3021e+22 -2.8106e+21 -5.90172e+19 4.09151e+22 1.00948e+20 4.1291e+22)
(5.48749e+23 1.32622e+21 2.03683e+21 5.373e+23 2.60429e+21 5.40652e+23)
(8.77192e+22 2.24968e+21 5.74277e+19 9.08482e+22 3.23632e+20 7.93912e+22)
)
;

boundaryField
{
    inlet
    {
        type            calculated;
        value           nonuniform 0();
    }
    outlet
    {
        type            calculated;
        value           nonuniform 0();
    }
    bottom
    {
        type            calculated;
        value           nonuniform List<symmTensor> 
40
(
(9.77665e+08 1.17298e+08 5.70853e+09 -2.87117e+09 -1.13394e+09 2.43115e+09)
(6.55291e+08 -5.70925e+07 5.79696e+09 -1.30004e+09 -2.7432e+09 1.81269e+09)
(-8.59415e+08 -1.70539e+09 4.65491e+09 -4.65997e+08 -2.84694e+09 1.60871e+09)
(8.58354e+08 -2.88254e+09 3.01857e+09 -1.0546e+09 -3.49486e+09 7.54481e+08)
(2.81162e+08 -3.41583e+08 5.34765e+09 -1.80666e+09 -4.93921e+08 3.73651e+09)
(-6.77329e+08 3.87438e+08 5.86734e+09 -2.14838e+09 -2.39483e+09 2.68056e+09)
(-3.97352e+08 -6.14112e+07 4.53374e+09 -1.33712e+09 -3.22452e+09 1.64038e+09)
(5.65023e+08 -1.23563e+09 3.21364e+09 -9.69149e+08 -4.00791e+09 1.39898e+09)
(6.76117e+06 -1.09189e+08 5.85844e+09 -2.08301e+09 -7.53713e+08 2.51106e+09)
(-2.45652e+09 -9.36769e+07 4.4196e+09 -4.71929e+08 -1.35745e+09 4.56023e+09)
(5.63017e+07 2.15932e+08 5.24832e+09 -1.26085e+09 -2.33335e+09 2.92487e+09)
(-1.47177e+08 -3.10667e+08 3.29079e+09 -9.62757e+08 -3.40815e+09 1.66079e+09)
(-1.09321e+09 -6.35041e+08 6.04179e+09 -1.35031e+09 -7.12302e+08 5.57351e+09)
(-2.69628e+09 -4.99361e+08 3.6195e+09 -1.44017e+09 -1.80646e+09 2.51427e+09)
(-1.10882e+09 -5.4433e+08 3.79232e+09 -5.4672e+08 -1.92376e+09 4.47837e+09)
(-6.92669e+08 -2.01807e+09 3.17116e+09 -1.48354e+09 -3.02182e+09 2.39879e+09)
(-1.95916e+09 -2.33523e+09 4.94168e+09 -1.87167e+09 -6.71749e+08 4.31575e+09)
(-1.29973e+09 -1.21443e+09 2.8506e+09 -1.02643e+09 -1.82895e+09 5.52648e+09)
(-6.91303e+08 -2.65413e+09 7.54632e+09 -1.91293e+09 -2.76406e+09 2.29948e+09)
(-1.68244e+09 -2.38338e+09 1.73887e+09 -7.47543e+08 -4.19235e+09 2.69084e+09)
(-1.64654e+09 -7.42906e+08 4.51626e+09 -3.83608e+09 -3.03743e+09 6.82675e+09)
(-1.99374e+09 -3.78852e+09 3.77445e+09 -2.27765e+09 -1.00191e+09 2.63842e+09)
(-3.23592e+09 -1.79016e+09 3.78332e+09 -9.89378e+08 -5.45429e+09 1.47939e+10)
(-2.22019e+09 -1.72388e+09 1.14138e+09 5.38548e+08 -6.58829e+09 6.01106e+08)
(2.03191e+07 2.33215e+08 1.30908e+09 -5.53919e+09 -2.96526e+08 5.36782e+09)
(-1.55687e+09 -9.33676e+08 1.52773e+09 -2.45837e+09 -6.44605e+09 8.91092e+09)
(-4.66182e+09 1.34611e+08 -3.63316e+09 1.35962e+09 -5.60524e+09 2.73177e+09)
(-1.35922e+09 -2.85153e+09 1.72059e+09 -2.03088e+08 -4.72307e+09 1.27528e+09)
(-1.62586e+09 -1.39098e+09 2.35402e+09 -2.98851e+09 -7.80142e+08 1.57122e+09)
(3.48088e+08 1.85662e+09 -1.34895e+09 -2.92502e+09 -2.62649e+09 2.57062e+09)
(-6.61892e+08 1.99816e+08 6.99168e+08 -3.16201e+09 -4.70508e+09 2.21684e+09)
(-1.27984e+09 -5.21782e+08 1.17633e+09 -1.50315e+09 -7.02193e+09 2.22675e+09)
(3.5812e+09 1.74006e+09 3.79298e+09 -2.6448e+09 -1.22623e+09 9.82526e+08)
(-3.25114e+09 -1.37722e+08 1.20682e+09 -1.69596e+09 -1.54133e+09 1.91947e+09)
(-1.9807e+08 1.22971e+09 1.52175e+09 -1.9078e+09 -3.50329e+09 2.73777e+09)
(-1.70345e+09 1.48804e+09 4.31403e+08 -1.59562e+09 -4.40195e+09 2.07087e+09)
(-4.4551e+09 -1.12033e+09 9.59999e+09 -5.7261e+08 7.2459e+08 5.06582e+09)
(8.76869e+09 -2.50876e+08 6.09001e+09 -3.08368e+09 -2.52309e+09 1.15666e+09)
(-2.00295e+09 -8.02832e+08 1.82657e+09 -1.08743e+09 -2.05367e+09 3.56128e+09)
(-1.77718e+09 5.70775e+08 5.8636e+08 -1.49442e+09 -3.87144e+09 2.6292e+09)
)
;
    }
    top
    {
        type            symmetryPlane;
    }
    side1
    {
        type            symmetryPlane;
    }
    side2
    {
        type            symmetryPlane;
    }
    procBoundary6to5
    {
        type            processor;
        value           nonuniform List<symmTensor> 
20
(
(2.03608e+20 -2.75665e+19 4.15713e+20 -2.97882e+20 -8.02415e+19 1.71934e+20)
(8.11057e+19 -1.7837e+19 1.8971e+20 -8.2034e+19 -8.45247e+19 3.57446e+19)
(-2.03931e+20 -1.05337e+20 3.83882e+20 3.62102e+19 -1.36489e+20 9.90464e+19)
(7.84119e+19 -2.55556e+20 1.52678e+20 -3.50681e+18 -1.37292e+20 1.74669e+18)
(1.75404e+20 5.93576e+19 4.80976e+19 -1.82578e+20 -1.67431e+19 1.51754e+19)
(-1.14254e+20 1.74513e+20 5.50556e+19 -1.97904e+20 -3.67184e+17 2.3611e+20)
(-1.00029e+20 -2.2118e+19 4.17775e+18 1.46434e+19 -2.65219e+19 2.70354e+19)
(8.01699e+19 -1.91496e+20 8.61148e+19 -4.8235e+19 -7.43437e+19 5.62732e+17)
(6.44675e+20 3.5167e+18 1.61999e+20 -4.04047e+20 1.21083e+20 -9.90839e+19)
(9.81175e+19 2.96889e+18 3.38081e+18 -7.8918e+19 2.15391e+19 2.08177e+19)
(2.46053e+19 -1.41007e+20 8.93933e+19 -1.31831e+20 -8.37171e+19 2.55887e+19)
(6.59963e+19 -1.70145e+20 9.72356e+19 -1.06837e+20 -7.70849e+19 4.80771e+19)
(6.84797e+19 2.63596e+18 6.88384e+19 -5.25667e+19 2.61672e+19 -1.68794e+19)
(2.95296e+19 -1.61859e+20 -4.46869e+19 2.11792e+19 5.48992e+19 -5.79471e+19)
(7.2544e+19 -8.5696e+19 7.20494e+19 -1.11608e+20 1.40346e+19 -1.77222e+19)
(4.0728e+19 -5.38453e+20 1.65293e+20 -1.07717e+20 7.39485e+19 -2.22051e+20)
(2.42503e+20 -3.92358e+20 1.60545e+20 7.07595e+19 1.26932e+19 -5.8444e+19)
(1.42997e+20 -2.59602e+20 -1.06674e+19 -4.14769e+19 5.99493e+19 -1.31812e+20)
(1.26049e+21 -2.78043e+21 1.08588e+21 9.77969e+20 -8.82266e+20 -1.4117e+21)
(1.71806e+20 -3.37136e+20 -1.84381e+19 -2.37263e+20 1.36325e+20 5.13049e+19)
)
;
    }
    procBoundary6to7
    {
        type            processor;
        value           nonuniform List<symmTensor> 
20
(
(-3.27279e+21 3.02647e+20 5.39664e+20 2.28726e+20 4.32981e+20 1.32859e+21)
(3.77448e+20 4.99386e+20 2.47902e+21 -1.24531e+21 -2.89685e+20 2.19193e+21)
(-1.98017e+21 -1.50192e+21 2.27805e+21 -1.58253e+21 -2.89153e+21 2.09803e+21)
(-5.14557e+20 -4.02886e+20 6.71043e+20 9.8979e+19 -9.91771e+20 1.33348e+21)
(1.5812e+21 1.82754e+20 2.82425e+21 -3.81784e+20 -1.33205e+20 6.9649e+20)
(-1.75564e+21 6.74821e+20 3.44067e+21 -7.57247e+20 -9.85396e+20 -1.17947e+21)
(-4.33011e+20 -5.72263e+20 1.7103e+21 -6.83517e+20 -1.12627e+20 5.03781e+20)
(8.97023e+20 7.55886e+19 1.49045e+21 -1.99587e+21 -4.11644e+20 4.01705e+20)
(-1.51507e+21 7.23666e+20 3.18298e+21 -1.20056e+20 -7.23524e+20 3.72834e+20)
(2.04829e+21 -3.18363e+20 3.24186e+21 -1.44492e+21 -7.5882e+20 6.08319e+20)
(-1.22252e+18 -5.75233e+20 6.33126e+20 -6.8597e+20 -1.99223e+20 -3.68532e+19)
(3.07235e+21 -1.3362e+21 1.93341e+21 -2.31299e+21 -4.15378e+19 -6.85424e+20)
(4.41568e+21 1.22845e+21 3.03314e+21 -1.12841e+21 -3.02996e+20 -1.14957e+21)
(1.88691e+21 2.06517e+20 7.56123e+19 -1.38505e+21 -7.83572e+20 -2.2497e+20)
(-4.01354e+21 1.17294e+21 5.24123e+20 5.5871e+20 -1.57944e+21 -1.23801e+21)
(3.42064e+21 7.80833e+21 -4.02449e+21 3.69506e+21 8.57003e+20 -1.93581e+21)
(5.15858e+21 4.77902e+20 1.67565e+21 9.75879e+20 -1.71801e+20 -4.38859e+21)
(1.93451e+21 6.8807e+20 3.2677e+20 -5.67925e+20 2.61276e+20 -2.90431e+21)
(-1.7443e+20 3.78267e+21 -1.63521e+20 4.44494e+20 -2.26379e+20 -2.64306e+21)
(-1.32935e+22 -6.50793e+21 -1.01529e+22 3.58762e+20 -4.45946e+20 -7.51639e+20)
)
;
    }
    procBoundary6to14
    {
        type            processor;
        value           nonuniform List<symmTensor> 
50
(
(-1.02861e+19 -1.74307e+20 1.8777e+19 -5.1547e+18 -1.14249e+20 -8.26376e+18)
(-2.68303e+19 -6.67613e+19 9.09843e+19 -3.44386e+19 -2.54274e+20 1.4698e+19)
(-3.57778e+18 -7.91535e+19 5.97266e+19 -3.48239e+19 -1.37146e+20 3.24424e+19)
(-1.24747e+16 -5.25413e+20 1.14186e+20 -2.70491e+20 -8.68605e+20 1.87417e+20)
(-1.74214e+20 -4.07266e+20 1.35265e+20 -4.77055e+19 -5.56442e+20 1.93397e+20)
(-3.95076e+20 -8.99388e+20 1.53157e+20 2.31082e+20 -1.04902e+21 4.38719e+20)
(-2.1237e+20 -6.44549e+20 6.22601e+19 -9.70828e+19 -6.17584e+20 2.03879e+20)
(-6.14648e+20 -5.12976e+20 2.02119e+20 2.87811e+20 -1.00304e+21 2.58778e+20)
(-2.16795e+20 1.14069e+20 4.08323e+19 6.25945e+19 -4.44553e+20 1.99787e+20)
(-1.7756e+19 -7.92209e+19 4.02497e+19 -2.72022e+20 -7.86656e+20 3.96088e+20)
(1.02854e+20 -2.84043e+20 6.69616e+19 -1.16901e+20 -6.7539e+18 4.04915e+18)
(1.09608e+20 -2.18963e+20 1.06487e+20 -3.4963e+19 -5.48386e+19 3.857e+19)
(2.78198e+20 -4.62243e+20 1.50332e+20 -3.95988e+20 -2.40969e+20 6.0996e+19)
(4.58334e+19 -4.10466e+20 2.22005e+20 -1.03374e+20 -1.36115e+20 8.89941e+19)
(6.33557e+19 -8.16187e+20 7.11256e+20 -8.01166e+20 -1.03522e+21 3.88413e+20)
(1.55141e+20 -8.40078e+20 3.22589e+20 -3.42062e+20 -7.02749e+20 1.56382e+20)
(-2.99207e+20 -7.12756e+20 2.81098e+20 -3.93035e+19 -5.14645e+20 2.58755e+20)
(-3.6794e+20 -1.73687e+20 2.33621e+20 2.52452e+20 -3.45749e+20 1.93661e+20)
(1.41591e+20 -4.47047e+20 4.46644e+20 -3.32122e+20 -6.77407e+20 2.48159e+20)
(8.40822e+20 -9.96129e+20 9.21336e+20 -6.86459e+20 -8.33099e+20 3.62415e+20)
(2.27757e+20 -2.73686e+20 1.14218e+20 -1.28227e+20 -6.79024e+19 3.87321e+19)
(2.53579e+20 -3.74565e+20 1.29728e+20 -2.34315e+20 -8.85027e+19 -2.67762e+19)
(4.82388e+20 -4.27408e+20 2.53382e+20 -5.06107e+20 -1.98889e+20 9.82126e+19)
(3.56141e+20 -8.72184e+20 1.41828e+20 -2.14099e+20 -9.4112e+19 9.44036e+18)
(-9.71734e+19 -1.80125e+21 1.25909e+20 1.5033e+20 -3.88073e+19 -2.4616e+20)
(3.96076e+20 -1.09644e+21 4.15898e+20 1.84631e+20 -1.3766e+20 -1.40008e+20)
(3.32419e+19 -5.42588e+19 8.01884e+19 -2.16724e+19 -5.55756e+19 5.52592e+18)
(1.38752e+19 -5.51847e+20 3.69438e+20 -2.50128e+20 -6.82278e+20 2.37632e+17)
(1.19939e+21 -1.01066e+21 9.98099e+20 -1.20076e+21 -1.3285e+21 4.17609e+20)
(1.11399e+21 -7.57258e+20 4.50602e+20 -2.35927e+21 -6.24224e+20 2.15429e+20)
(4.06792e+20 -1.374e+21 2.70123e+20 -5.61075e+20 1.25463e+20 -2.64977e+20)
(1.87267e+20 -4.5233e+20 8.79372e+19 -1.29444e+20 -8.49064e+19 -7.45846e+18)
(3.55548e+20 -5.95611e+20 6.82626e+19 -3.30278e+20 -1.36129e+20 -1.07162e+20)
(4.79601e+20 -3.89174e+20 -2.79188e+20 -4.47419e+20 -3.43942e+19 -1.7196e+20)
(7.12492e+20 -3.0472e+20 -6.9881e+19 -2.83396e+20 2.34337e+20 -2.48448e+20)
(9.93489e+20 -9.86543e+20 3.84522e+20 -6.54809e+20 3.27213e+20 -1.17374e+20)
(7.14677e+20 -4.53069e+21 2.50368e+20 -1.22371e+21 5.91249e+20 -6.10241e+20)
(2.83602e+21 -4.17053e+21 5.97424e+20 -9.08178e+20 -2.07924e+19 -2.15133e+20)
(-3.02288e+21 -5.72811e+20 1.31395e+21 3.09583e+20 -1.47125e+21 4.56445e+21)
(-7.04344e+21 6.34926e+21 -4.04666e+21 3.39067e+21 1.60351e+21 -3.42774e+21)
(2.52635e+20 -7.59277e+20 6.30198e+19 -1.33194e+20 1.42702e+20 1.42863e+20)
(4.14639e+20 -3.38356e+21 5.91093e+20 -9.14776e+20 1.94486e+19 -1.32636e+20)
(3.65684e+20 -9.42744e+20 -2.12176e+20 -4.52709e+20 -5.74189e+19 -1.73344e+20)
(2.60168e+21 5.23172e+20 -1.31892e+21 -1.47949e+21 2.93998e+20 -3.30762e+20)
(1.98393e+20 1.55195e+19 6.31507e+19 -9.85904e+19 2.99371e+20 2.96366e+20)
(-2.28436e+20 -7.62654e+20 1.23912e+20 -5.90669e+20 -3.57424e+19 -1.48823e+20)
(-5.79386e+20 -6.10318e+20 -1.07855e+20 -6.96613e+20 2.96948e+20 -2.06084e+20)
(5.51952e+21 -5.23481e+21 6.46615e+21 -7.30745e+20 8.56037e+20 -5.1485e+20)
(-7.40698e+20 4.58692e+21 -2.45963e+21 2.83338e+21 -5.87662e+20 -8.82796e+21)
(-9.83535e+21 3.82926e+21 -1.43935e+22 -5.77659e+21 -9.36134e+20 3.70162e+20)
)
;
    }
}


// ************************************************************************* //
