/*--------------------------------*- C++ -*----------------------------------*\
| =========                 |                                                 |
| \\      /  F ield         | OpenFOAM: The Open Source CFD Toolbox           |
|  \\    /   O peration     | Version:  2.4.0                                 |
|   \\  /    A nd           | Web:      www.OpenFOAM.org                      |
|    \\/     M anipulation  |                                                 |
\*---------------------------------------------------------------------------*/
FoamFile
{
    version     2.0;
    format      ascii;
    class       volSymmTensorField;
    location    "0.08";
    object      B;
}
// * * * * * * * * * * * * * * * * * * * * * * * * * * * * * * * * * * * * * //

dimensions      [0 2 -2 0 0 0 0];

internalField   nonuniform List<symmTensor> 
200
(
(2.7281e+10 -2.13774e+10 1.84181e+10 -1.69426e+10 -1.31172e+09 1.23079e+10)
(2.323e+11 2.62354e+10 6.37306e+10 2.58098e+11 9.09415e+08 1.78243e+11)
(3.24103e+10 5.62548e+08 1.43002e+10 2.85629e+10 6.1037e+07 3.05937e+10)
(2.0796e+11 -3.92404e+09 4.95861e+10 2.93997e+11 4.37852e+09 1.9592e+11)
(2.22815e+10 1.62614e+09 2.11327e+10 2.57379e+10 2.15365e+09 2.70533e+10)
(2.05679e+11 -1.35208e+10 4.2705e+10 3.1302e+11 3.76909e+09 2.06416e+11)
(1.48544e+10 2.00984e+09 1.69197e+10 1.8938e+10 3.49689e+09 2.09359e+10)
(1.61195e+11 -1.27439e+10 3.34283e+10 2.58495e+11 1.972e+09 1.64646e+11)
(8.36394e+09 1.77217e+09 1.11906e+10 1.09238e+10 3.93541e+09 1.32478e+10)
(1.25846e+11 -6.76484e+09 2.40876e+10 2.06837e+11 -5.67726e+08 1.2885e+11)
(4.40597e+11 4.69748e+10 8.64466e+10 7.08361e+11 -4.46362e+09 4.5192e+11)
(2.99593e+10 -1.46162e+10 1.60433e+10 1.39968e+10 6.34729e+09 2.90941e+10)
(3.80393e+11 -5.87462e+09 7.19584e+10 5.84064e+11 -9.81255e+08 3.73971e+11)
(2.34025e+10 -7.85931e+09 1.47471e+10 9.08877e+09 7.11944e+09 2.3736e+10)
(4.15689e+11 -3.79183e+10 6.3102e+10 6.16486e+11 6.26377e+09 4.09818e+11)
(1.9633e+10 -3.28366e+09 1.39981e+10 1.43455e+09 5.53278e+09 2.04941e+10)
(4.18847e+11 -4.66038e+10 5.71481e+10 6.03055e+11 1.85681e+10 4.09891e+11)
(1.6781e+10 3.56428e+08 1.29619e+10 -7.09675e+08 5.02662e+09 1.99042e+10)
(3.65339e+11 -3.04437e+10 4.21991e+10 5.32542e+11 2.48946e+10 3.61494e+11)
(1.20157e+10 7.84381e+08 9.58043e+09 -2.86942e+09 5.5854e+09 1.61283e+10)
(8.76614e+10 -8.1791e+10 1.09474e+10 5.7793e+10 2.30945e+10 1.01229e+11)
(1.13749e+11 -2.86506e+10 1.20931e+10 1.93853e+11 1.0757e+10 1.26433e+11)
(9.22732e+10 -3.71843e+10 1.29891e+10 5.17987e+10 1.77868e+10 7.00176e+10)
(1.37624e+11 -4.32391e+10 1.96447e+10 1.96634e+11 1.31863e+10 1.25791e+11)
(7.07482e+10 -2.08079e+10 7.89076e+09 3.73395e+10 1.23115e+10 5.12087e+10)
(2.85809e+11 -6.89375e+10 4.40427e+10 3.69767e+11 4.13508e+09 2.53174e+11)
(4.04497e+10 -5.8243e+09 1.13733e+10 8.7217e+09 5.31842e+09 2.91029e+10)
(2.68541e+11 -4.50668e+10 3.94471e+10 3.53304e+11 2.86016e+10 2.38712e+11)
(2.85782e+10 -1.7463e+09 1.32579e+10 2.67093e+09 6.73273e+09 2.8189e+10)
(2.51981e+11 -2.67778e+10 2.20719e+10 3.51277e+11 3.76612e+10 2.48268e+11)
(1.05827e+11 -4.56942e+10 -2.63743e+10 1.22567e+11 2.85559e+09 1.25485e+11)
(1.57568e+11 -2.30867e+10 -2.03633e+10 1.17551e+11 -8.11728e+08 1.30885e+11)
(4.98474e+10 -2.22562e+10 -9.97543e+09 5.40112e+10 8.01969e+09 5.57715e+10)
(1.99332e+11 -3.71062e+10 -1.11475e+10 1.38369e+11 1.1042e+10 1.38724e+11)
(4.68729e+10 -2.32401e+10 -1.4961e+10 4.35338e+10 9.5517e+09 3.54387e+10)
(2.34643e+11 -2.74948e+10 -1.11138e+10 1.72437e+11 9.77311e+09 1.73737e+11)
(4.07869e+11 -6.92192e+10 2.90302e+10 3.62876e+11 3.37265e+10 2.77072e+11)
(6.81156e+10 -1.2709e+10 1.07103e+10 3.33023e+10 -3.55093e+09 4.85165e+10)
(1.66485e+11 -3.94308e+10 2.74377e+10 2.01493e+11 2.2628e+10 1.3131e+11)
(2.8088e+10 -3.96483e+09 1.29835e+10 1.0299e+09 3.07249e+09 2.924e+10)
(1.26913e+11 2.64253e+10 -7.45992e+09 1.20658e+11 -1.12221e+10 9.10481e+10)
(-1.10078e+09 2.01312e+09 -5.07914e+09 -1.92284e+10 4.68491e+09 4.57726e+09)
(8.57385e+10 2.95871e+09 -4.72574e+08 1.09913e+11 -4.67865e+09 6.94983e+10)
(-2.95258e+08 1.00301e+09 1.03701e+09 -9.15521e+08 8.36884e+08 8.90652e+08)
(1.13683e+11 -4.52731e+09 -2.28433e+09 1.68217e+11 -8.37736e+09 1.1006e+11)
(-9.88617e+07 9.3646e+08 9.41122e+08 3.63477e+08 1.25008e+09 1.81356e+09)
(1.37472e+11 -7.18239e+09 -1.24358e+09 2.19016e+11 -1.21094e+10 1.41009e+11)
(2.59109e+08 1.05749e+09 8.17867e+08 1.55692e+09 1.91922e+09 3.05861e+09)
(1.30778e+11 -7.51452e+09 -2.41853e+08 2.14355e+11 -1.29293e+10 1.36137e+11)
(1.01668e+09 6.81734e+08 5.21784e+08 2.49675e+09 2.47428e+09 4.02133e+09)
(8.08606e+09 -1.85184e+10 -8.2114e+09 -9.95056e+09 3.85771e+09 1.47912e+10)
(3.33053e+11 2.02687e+10 5.46664e+09 4.91411e+11 -7.90179e+09 3.11389e+11)
(1.99168e+09 -1.2676e+09 8.83238e+08 -2.98428e+09 7.5891e+08 2.94678e+09)
(2.92251e+11 -6.54494e+09 5.32523e+08 4.39663e+11 -1.4952e+10 2.83191e+11)
(4.80964e+09 -4.27706e+08 1.17119e+09 -1.13438e+09 8.79858e+07 5.82503e+09)
(2.72981e+11 -9.7037e+09 1.76906e+09 4.2309e+11 -1.14141e+10 2.66619e+11)
(4.17811e+09 7.61486e+08 1.67895e+09 -3.6763e+09 -1.69855e+08 6.54895e+09)
(4.22184e+11 -2.74127e+10 2.61702e+09 6.3116e+11 -4.35716e+09 4.2706e+11)
(1.33853e+09 1.44127e+09 1.32248e+09 -4.93729e+09 2.37998e+06 4.84998e+09)
(4.0942e+11 -2.78969e+10 8.31373e+08 5.97052e+11 3.08549e+09 4.09286e+11)
(2.36505e+11 -1.92692e+10 7.81848e+09 3.25582e+11 7.62393e+09 2.14804e+11)
(4.61588e+10 -3.4403e+10 4.51981e+09 6.81764e+09 7.80863e+09 4.11162e+10)
(1.17616e+11 -2.33057e+10 3.89351e+09 1.70074e+11 5.88804e+07 1.17483e+11)
(2.85043e+10 -1.07823e+10 3.3594e+09 9.35374e+09 2.37651e+08 2.3437e+10)
(1.7742e+11 -3.46327e+10 6.94569e+09 2.16358e+11 -9.78507e+09 1.57731e+11)
(2.04567e+10 -3.3015e+09 3.89119e+09 2.56586e+09 -1.46058e+09 1.83857e+10)
(6.4051e+11 -1.13163e+10 8.00306e+09 8.38527e+11 -2.52245e+10 6.60014e+11)
(2.27543e+10 -3.9229e+07 3.58124e+09 -1.57106e+08 -1.60469e+09 2.38467e+10)
(7.12271e+11 -4.72983e+10 1.34275e+10 9.4501e+11 -8.40283e+09 7.04359e+11)
(-4.14602e+08 5.10097e+08 2.78975e+09 -1.01972e+10 -1.26071e+09 4.58726e+09)
(1.12656e+11 -3.60095e+10 1.46087e+10 6.07314e+10 -1.55446e+10 7.48497e+10)
(1.25548e+11 -4.50576e+10 7.01214e+09 9.98992e+10 8.29342e+09 1.11799e+11)
(2.46769e+11 -3.52804e+10 1.66835e+09 1.39673e+11 -9.83169e+09 1.6999e+11)
(4.36253e+10 -2.27113e+10 -4.60214e+08 3.30576e+10 4.25918e+09 4.22011e+10)
(1.93374e+11 -4.95893e+10 9.94196e+09 1.15271e+11 -7.81625e+09 1.43791e+11)
(3.52209e+10 2.81855e+10 -1.22244e+10 3.36401e+10 1.47541e+09 3.69323e+10)
(1.35549e+11 -3.30717e+10 9.30397e+09 1.03834e+11 -3.33213e+09 1.31302e+11)
(2.7587e+11 -1.46202e+11 8.35567e+10 4.24705e+11 -1.16792e+10 2.0627e+11)
(3.98573e+10 6.05279e+09 3.7206e+09 1.44198e+10 -7.00551e+08 3.82696e+10)
(3.32351e+12 -1.62655e+11 4.0012e+10 3.8238e+12 -6.50638e+10 3.33461e+12)
(3.56101e+10 -3.46965e+10 -4.46461e+10 3.95002e+10 1.55805e+10 8.75794e+10)
(1.04247e+11 1.32412e+10 -7.98207e+09 1.16242e+11 -9.30732e+09 7.74738e+10)
(-7.72265e+09 5.23071e+09 -1.27259e+09 -9.39577e+09 1.84968e+09 4.73251e+09)
(8.065e+10 -2.77667e+08 -3.36057e+09 1.12366e+11 -5.18046e+09 7.88397e+10)
(-9.40972e+08 1.0112e+09 9.82411e+08 -5.70831e+08 1.02184e+09 1.172e+09)
(9.61759e+10 -2.68573e+09 -4.12932e+09 1.47205e+11 -8.61902e+09 1.03692e+11)
(-3.589e+08 5.76293e+08 6.50461e+08 2.57482e+08 1.28839e+09 1.51622e+09)
(1.02307e+11 -3.83425e+09 -2.98323e+09 1.66375e+11 -1.19626e+10 1.14163e+11)
(1.59744e+08 5.1593e+08 4.83522e+08 8.49839e+08 1.52886e+09 2.13894e+09)
(9.16675e+10 -3.37651e+09 -9.23445e+08 1.53178e+11 -1.27516e+10 1.02946e+11)
(4.27275e+11 3.00285e+10 1.82658e+10 6.54095e+11 1.81289e+10 4.10212e+11)
(-8.78832e+09 -9.24678e+09 -7.69325e+08 -1.30419e+10 1.0234e+09 1.48052e+09)
(2.74473e+11 3.46208e+09 7.86753e+09 4.31113e+11 3.06587e+09 2.78979e+11)
(8.05276e+08 -2.96352e+08 7.66448e+08 -1.54112e+09 1.71843e+08 2.00577e+09)
(2.59075e+11 -6.12277e+09 -2.98997e+09 3.92022e+11 -3.77356e+09 2.69296e+11)
(1.8044e+09 8.73253e+07 1.02577e+09 -3.22019e+09 -7.92978e+07 3.4227e+09)
(2.84346e+11 -6.38259e+09 -5.50066e+09 4.30859e+11 -5.16874e+09 2.9983e+11)
(8.98736e+08 6.87685e+08 9.5446e+08 -4.52365e+09 -5.55915e+08 3.23793e+09)
(3.08079e+11 -1.25625e+10 -2.23071e+09 4.66858e+11 -2.17864e+09 3.26083e+11)
(3.25291e+08 4.40317e+08 9.68043e+08 -5.01422e+09 -9.91716e+08 2.84212e+09)
(1.15165e+11 -5.2566e+10 7.42027e+09 8.80651e+09 -6.17417e+09 7.52312e+10)
(1.89195e+11 -4.05435e+10 7.8731e+09 2.89472e+11 2.38222e+10 1.96014e+11)
(2.0237e+10 -1.53696e+10 3.36189e+09 2.24577e+09 2.01834e+09 1.97778e+10)
(1.38518e+11 -2.16843e+10 4.78493e+08 2.0234e+11 4.611e+09 1.41802e+11)
(1.33261e+10 -3.32512e+09 2.04221e+09 1.36377e+09 4.93008e+07 1.32391e+10)
(1.33574e+11 -6.89604e+09 -5.08403e+09 1.97154e+11 -2.84651e+08 1.3454e+11)
(7.71938e+09 -2.33032e+08 1.8771e+09 -3.96482e+09 -8.36583e+08 9.30149e+09)
(2.86014e+11 -1.00112e+10 2.15888e+09 4.16294e+11 -1.4498e+10 3.06104e+11)
(6.33536e+08 7.57808e+08 1.66579e+09 -6.63015e+09 -2.34234e+09 4.43998e+09)
(2.61601e+11 -2.52486e+10 5.28897e+09 3.76348e+11 -1.05154e+10 2.69516e+11)
(3.81649e+11 -9.03017e+10 1.75923e+10 3.16163e+11 3.57297e+10 3.26957e+11)
(4.58094e+11 -2.37322e+10 4.18482e+10 2.59638e+11 -5.88382e+09 3.16317e+11)
(1.48905e+11 -4.1525e+10 -1.57892e+09 1.02858e+11 2.44865e+10 1.16766e+11)
(1.94717e+11 -4.29343e+10 1.02995e+10 1.05827e+11 -7.62115e+09 1.52305e+11)
(9.46922e+10 -1.57492e+10 9.31213e+08 7.28274e+10 1.01753e+10 8.18291e+10)
(8.05596e+10 -1.49369e+10 5.96808e+09 3.64858e+10 -4.83502e+08 7.0422e+10)
(2.33472e+11 7.63397e+09 -1.51159e+09 2.73059e+11 -1.33248e+10 2.51036e+11)
(2.21505e+10 8.36398e+08 2.28674e+09 -4.84281e+09 9.50301e+08 2.4327e+10)
(8.0557e+11 -3.7911e+10 1.01582e+10 9.54407e+11 -3.5762e+10 8.35099e+11)
(-2.66693e+09 -1.95244e+07 5.26417e+09 -1.5685e+10 -5.27019e+09 8.11314e+09)
(2.54747e+11 6.49331e+10 2.23694e+10 4.96224e+11 -5.09351e+10 2.38814e+11)
(-2.33868e+10 -2.16763e+10 -2.97257e+10 1.40152e+10 8.28673e+09 5.74815e+10)
(6.47223e+10 -6.25209e+09 -3.98883e+09 1.00412e+11 -2.57246e+09 5.66458e+10)
(-2.7533e+09 5.91208e+09 -9.69946e+08 -1.01296e+09 7.92205e+07 1.14757e+10)
(6.23097e+10 -1.35527e+09 -4.87107e+09 8.98439e+10 -4.36874e+09 6.71999e+10)
(-1.72656e+09 1.71776e+09 1.30321e+09 -9.24388e+08 1.84363e+09 3.95614e+09)
(6.79139e+10 -1.29445e+09 -4.56528e+09 1.0632e+11 -9.44648e+09 8.01643e+10)
(1.09374e+09 5.61641e+08 6.39098e+08 1.35074e+09 2.09997e+09 4.14721e+09)
(6.57005e+10 -1.69197e+09 -3.11476e+09 1.07028e+11 -1.26875e+10 8.03424e+10)
(2.38055e+09 5.3599e+08 3.82971e+08 2.27661e+09 2.7929e+09 5.63551e+09)
(-8.52432e+09 -5.44453e+10 1.42306e+10 -5.93379e+10 -3.23476e+10 2.35251e+10)
(2.56509e+11 -1.89038e+10 3.77545e+10 5.19741e+11 3.66337e+10 3.05751e+11)
(-8.11939e+09 -3.88802e+09 3.92433e+09 -8.57387e+09 -2.14164e+09 5.37154e+09)
(2.13333e+11 -1.25383e+10 7.56427e+09 3.60281e+11 9.8897e+09 2.41993e+11)
(2.11068e+08 4.30267e+08 1.71303e+09 -3.34775e+09 -3.97667e+08 4.71183e+09)
(1.95152e+11 -6.01122e+09 -4.08202e+09 3.12757e+11 -2.1815e+09 2.16054e+11)
(1.25027e+09 4.70221e+08 1.34191e+09 -4.34388e+09 -2.38507e+08 5.21922e+09)
(1.90585e+11 -4.9551e+09 -5.58846e+09 2.99742e+11 -5.1911e+09 2.11414e+11)
(1.37174e+09 6.16979e+08 7.99594e+08 -4.19599e+09 -3.22339e+08 5.06714e+09)
(1.77494e+11 -4.24088e+09 -3.33938e+09 2.79745e+11 -3.15479e+09 1.97273e+11)
(5.19292e+11 -1.58516e+11 7.79608e+09 6.32172e+11 7.89235e+10 5.51457e+11)
(4.01676e+10 -2.66565e+10 1.41852e+10 -2.03336e+09 -2.23082e+09 2.27583e+10)
(1.47603e+11 -4.23466e+10 6.66753e+09 2.33323e+11 2.1928e+10 1.67459e+11)
(1.02249e+10 -5.82495e+09 4.51172e+09 -4.0848e+09 -3.58257e+08 1.19438e+10)
(1.21988e+11 -1.95121e+10 1.02985e+09 1.93993e+11 2.31506e+09 1.34366e+11)
(7.874e+09 -1.23471e+09 2.10395e+09 -2.49354e+09 -6.81022e+08 1.11558e+10)
(1.2326e+11 -8.55562e+09 -3.76066e+09 1.9287e+11 -9.032e+09 1.34835e+11)
(5.24464e+09 4.28642e+07 1.55585e+09 -4.19348e+09 -1.13328e+09 9.84894e+09)
(1.39197e+11 -7.43118e+09 -1.53768e+09 2.1472e+11 -1.20008e+10 1.52582e+11)
(4.32857e+09 1.75372e+08 1.47122e+09 -3.54954e+09 -1.55149e+09 8.98004e+09)
(2.93455e+11 -2.72163e+10 6.83688e+10 7.8627e+10 -2.87295e+09 1.70571e+11)
(1.05605e+11 -4.89259e+10 1.92625e+09 9.12863e+10 4.05657e+10 1.00494e+11)
(9.91745e+10 -2.3641e+10 1.57266e+10 3.98835e+10 -2.93232e+09 7.09795e+10)
(3.56297e+10 -1.49055e+10 4.21412e+07 3.04812e+10 6.5762e+09 3.05671e+10)
(4.25837e+10 -9.15194e+09 5.95917e+09 1.28164e+10 -2.1449e+09 3.80865e+10)
(2.11136e+10 -5.46817e+09 -1.83244e+09 2.7144e+10 -1.24353e+09 1.95339e+10)
(1.78093e+10 -1.51975e+09 2.30879e+09 -7.97062e+08 -1.52162e+09 2.05526e+10)
(5.7615e+10 -1.87627e+09 -5.84566e+08 8.08058e+10 -1.23573e+10 6.59653e+10)
(1.06231e+10 5.11812e+08 2.35779e+09 -1.88322e+09 -4.00241e+09 1.87899e+10)
(6.99169e+10 -6.10968e+09 4.44747e+09 9.68935e+10 -1.21275e+10 7.74748e+10)
(7.86542e+10 -1.55648e+11 -1.63076e+11 3.15129e+11 -9.95296e+10 2.94433e+11)
(2.31089e+11 6.21285e+09 6.75903e+10 6.16205e+11 9.31134e+10 3.36144e+11)
(-4.92765e+09 -1.07048e+10 -3.25955e+10 7.26371e+10 -4.91623e+10 1.00341e+11)
(1.33457e+11 -3.08854e+10 7.76515e+09 2.11353e+11 5.37295e+10 1.75108e+11)
(4.80137e+10 1.56864e+10 -4.67647e+09 5.35917e+10 -3.12871e+10 8.39586e+10)
(1.23184e+11 -1.1635e+10 -2.34828e+09 1.57144e+11 4.57788e+10 1.52977e+11)
(4.88774e+10 1.0148e+10 1.46048e+09 4.75128e+10 -3.53924e+10 7.84363e+10)
(1.08469e+11 -3.24492e+09 -2.91774e+09 1.43292e+11 4.58356e+10 1.40863e+11)
(4.49422e+10 3.15901e+09 2.2611e+09 4.25003e+10 -3.26239e+10 6.8477e+10)
(9.50649e+10 2.40351e+08 -1.31505e+09 1.26945e+11 4.22238e+10 1.2414e+11)
(6.25338e+11 -1.19058e+11 8.11957e+10 1.3639e+12 2.79885e+11 9.80687e+11)
(-2.34716e+10 -6.31621e+10 1.44858e+10 -1.1165e+10 -1.09515e+11 1.47333e+11)
(2.34931e+11 -5.00009e+10 2.35251e+10 5.13046e+11 1.06403e+11 4.02769e+11)
(1.26674e+10 -2.60113e+09 8.34168e+09 2.8949e+10 -3.44062e+10 6.96425e+10)
(2.37873e+11 -4.21529e+10 1.05418e+09 3.99295e+11 7.13936e+10 3.24108e+11)
(3.49059e+10 7.05682e+09 3.45214e+09 2.94382e+10 -2.96665e+10 6.50067e+10)
(1.97165e+11 -1.36352e+10 -3.23895e+09 3.01489e+11 6.85536e+10 2.49277e+11)
(4.40899e+10 5.01119e+09 2.46877e+09 3.2605e+10 -3.30067e+10 6.81782e+10)
(1.94063e+11 -1.97579e+09 -2.63847e+09 2.74721e+11 6.43009e+10 2.31984e+11)
(5.01795e+10 2.04722e+09 1.32723e+09 3.62052e+10 -3.49197e+10 7.03157e+10)
(3.53959e+11 -1.18301e+10 2.02608e+11 1.08551e+10 -6.04503e+10 2.7959e+11)
(2.3138e+11 -1.42083e+11 -4.35952e+10 3.59692e+11 8.40187e+10 3.74252e+11)
(4.73658e+10 -2.22716e+10 2.71969e+10 1.98386e+10 -2.03478e+10 7.16051e+10)
(1.55649e+11 -5.84085e+10 -9.00394e+09 2.2461e+11 4.54666e+10 2.07347e+11)
(2.49396e+10 -2.49475e+09 8.69512e+09 1.09474e+10 -1.70185e+10 4.1863e+10)
(1.46422e+11 -3.33639e+10 -6.99105e+09 2.23178e+11 3.94931e+10 1.85249e+11)
(3.01213e+10 2.9519e+09 3.13864e+09 1.77209e+10 -1.78203e+10 4.50426e+10)
(1.33882e+11 -9.32605e+09 -3.50846e+09 2.05919e+11 4.08126e+10 1.65316e+11)
(3.15474e+10 1.717e+09 1.63477e+09 1.88708e+10 -2.11012e+10 4.72247e+10)
(1.37765e+11 -2.33913e+09 -1.6476e+09 2.01496e+11 4.07767e+10 1.61917e+11)
(1.59047e+11 -6.69994e+10 -7.87198e+10 1.43064e+11 1.85202e+10 2.09659e+11)
(1.65182e+11 9.01781e+09 6.38063e+10 4.86352e+10 -1.03647e+10 1.27423e+11)
(5.51683e+10 -3.30765e+10 -1.46078e+10 4.76924e+10 2.19665e+10 7.4773e+10)
(5.90324e+10 -6.74902e+09 1.48445e+10 2.30933e+10 -1.26199e+10 5.89532e+10)
(4.91271e+10 -1.83919e+10 -6.0015e+09 5.79606e+10 1.60863e+10 6.18305e+10)
(3.13341e+10 1.53686e+09 6.14249e+09 1.37201e+10 -1.25783e+10 4.03889e+10)
(6.21036e+10 -8.15414e+09 -3.67873e+09 9.07787e+10 1.73932e+10 7.87706e+10)
(2.70485e+10 2.60388e+09 2.57902e+09 1.34788e+10 -1.3969e+10 3.98614e+10)
(7.70132e+10 -2.1291e+09 -1.75553e+09 1.14438e+11 1.98431e+10 9.51557e+10)
(2.65055e+10 1.37343e+09 1.52173e+09 1.52311e+10 -1.4768e+10 3.94812e+10)
)
;

boundaryField
{
    inlet
    {
        type            calculated;
        value           nonuniform 0();
    }
    outlet
    {
        type            calculated;
        value           nonuniform 0();
    }
    bottom
    {
        type            calculated;
        value           nonuniform List<symmTensor> 
40
(
(2738.97 -6941.77 15868.4 -11621.5 -40338.5 -6063.84)
(-5782.77 6255.26 20477.6 29873.2 26659.8 -2459.24)
(-5083.32 -23694.5 12343.8 -13736.1 -1096.73 -5427.38)
(-4732.78 -16089.7 -31787 1161.55 9297.88 10647.1)
(5647.66 5676.5 26613.9 11229.4 35592.6 -10495.5)
(-1873.57 -9736.01 23620.7 -12506.3 -17755.9 -3608.07)
(-6314.81 -8058.91 -2313.96 16217.1 18677.8 1616.57)
(11176 -8932.8 -6569.25 -4307.91 -1391.72 -3130.42)
(-1506.7 549.361 26748.8 -5263.94 -34851 -2651.17)
(-4159.45 -919.902 19498.7 27733.3 26180.2 -6808.29)
(5311.13 -14909.1 11406.8 -10917.2 2612.12 -8948.64)
(-3246.91 -12465.1 -23654.4 -914.907 16109.1 3016.83)
(-2494.87 -969.024 24011.8 18751.6 38909 -8081.53)
(-2535.45 -6143.39 22962.6 -13724.1 -13099.9 -3682.5)
(-1224.85 -10580.7 1896.05 13215.1 20321.3 -632.216)
(14548.5 -10903.1 -6515.64 -3364.45 1469.79 -6446.46)
(-5202.15 1035.83 25632.6 -3000.49 -35040.4 -3389.57)
(-4474.07 -6288.36 17899.9 28825.9 29336.2 -6303.49)
(6723 -11822.2 9640.29 -12258.5 2954.29 -10243.5)
(1153.86 -9706.23 -17481.2 -240.717 16698.2 593.903)
(-5388.53 -3334.54 20347.5 21084.4 42617.6 -4559.81)
(-1996.45 -2639.09 20947.1 -16622.6 -16273.3 -3792.29)
(816.363 -13730.1 8573.76 17538 19032 -5383.34)
(19442 -12161.3 -9725.57 -8072.19 5722.94 -17061.4)
(-5562.25 1378.41 22032 -2761.57 -37817.3 -5160.42)
(-3634.52 -7980.53 16829.3 27909.6 34590.4 -3846.71)
(5751.57 -4058.41 13057 -16356.7 -4755 -5348.82)
(16981.8 -15893.8 4652.2 6650.67 11717.3 -11656.7)
(-5802.42 -3336.04 16883.3 19668.3 45899.3 -1620)
(-2492.21 287.724 19006.2 -16611.4 -21931.4 -3459.2)
(922.784 -9233.47 12039 18289.5 25650.5 -2868.36)
(9193.34 -7758.27 9082.28 -12058.5 -1491.69 -2720.99)
(-5005.9 1452.56 17797.7 -2907.72 -41039.3 -6900.69)
(-3769.67 -5569.51 14585 26819.4 39896.7 -563.172)
(961.548 -1231.47 15056.7 -17308 -9354.33 -777.803)
(2317.84 -10492 9470.56 11632.9 13114.6 -3421.8)
(-5634.06 -1993.14 13911.3 18228.6 48199.8 -199.673)
(-2951.53 684.505 15937.9 -15941.3 -25661.9 -4842.69)
(-1966.11 -5906.04 10007 19934.6 32030.4 3204.03)
(1111.28 -2661.65 12161.7 -17053.3 -3662.72 9300.75)
)
;
    }
    top
    {
        type            symmetryPlane;
    }
    side1
    {
        type            symmetryPlane;
    }
    side2
    {
        type            symmetryPlane;
    }
    procBoundary5to4
    {
        type            processor;
        value           nonuniform List<symmTensor> 
20
(
(4.79502e+10 1.38932e+11 7.43764e+10 7.38033e+10 -2.67767e+10 -7.10413e+09)
(-3.15534e+10 -7.19331e+10 1.98147e+10 -6.00171e+10 5.63841e+09 7.88061e+09)
(-7.89149e+10 -3.03789e+10 1.39949e+10 1.42705e+11 1.9727e+10 -2.28753e+08)
(1.1035e+10 -1.38351e+10 -1.22623e+10 -2.19445e+10 -4.95982e+09 1.2753e+09)
(-1.26837e+10 -3.669e+10 -4.65698e+10 -3.86879e+10 2.04821e+10 2.05029e+10)
(-1.33302e+10 4.31392e+10 -1.78679e+10 1.72124e+11 -1.98454e+09 -3.10619e+10)
(2.4565e+10 -7.1707e+10 -1.66624e+10 -9.5733e+10 -1.25339e+10 -2.04861e+10)
(2.31411e+10 -6.59273e+10 3.50206e+09 1.90593e+10 3.30387e+09 -4.45829e+09)
(-2.41464e+09 6.37727e+10 -4.4099e+10 1.47098e+11 -8.22706e+10 -1.7833e+10)
(2.33596e+09 -4.16602e+10 -1.64994e+10 -6.87431e+10 -1.92304e+10 -1.27623e+10)
(1.82479e+10 -8.52989e+10 1.67428e+10 1.46951e+11 6.7325e+10 -6.50735e+09)
(2.68304e+10 -6.4871e+10 2.08882e+10 -5.90957e+10 -1.10604e+10 -2.10269e+10)
(-9.9246e+10 -1.0627e+11 -7.74043e+10 -3.55285e+10 2.67341e+10 3.79601e+10)
(-1.50421e+11 -2.40374e+10 9.65431e+10 6.97177e+11 1.30424e+11 -4.39937e+10)
(1.22101e+11 -9.21416e+10 5.11031e+10 -1.79796e+11 -5.19748e+10 -9.13137e+10)
(8.22553e+10 -9.6285e+10 1.09773e+09 -6.77397e+10 7.53187e+10 5.11514e+10)
(-2.86211e+11 2.97343e+11 2.06347e+11 1.18546e+12 1.68301e+11 -2.37694e+11)
(-7.17197e+10 -4.15279e+11 -1.80663e+11 -4.94281e+11 -3.0821e+11 1.03686e+11)
(-1.08097e+11 -3.86e+11 -3.11559e+10 7.10208e+10 1.03163e+11 1.75413e+11)
(2.31141e+11 -4.60817e+10 1.30312e+11 -3.37399e+10 6.6572e+10 -2.17441e+10)
)
;
    }
    procBoundary5to6
    {
        type            processor;
        value           nonuniform List<symmTensor> 
20
(
(-4.03169e+09 8.24546e+08 6.77424e+09 -3.03523e+09 3.43545e+09 -9.36744e+08)
(-2.26645e+10 -1.70205e+10 3.29857e+10 1.37621e+11 2.03776e+10 -2.1978e+10)
(-1.84263e+09 -2.27702e+09 8.11646e+09 -2.32542e+10 9.7589e+09 2.45853e+09)
(-5.29738e+09 -2.33646e+10 -6.78496e+09 3.45828e+10 3.26582e+10 3.20159e+08)
(-1.67492e+10 -3.32698e+09 1.85448e+08 5.05066e+10 -1.2169e+10 -1.35927e+10)
(-2.52216e+09 1.19677e+08 7.7591e+08 -8.69889e+09 4.65602e+08 8.99949e+08)
(-8.18289e+09 -5.73221e+10 2.5231e+09 1.23056e+11 7.66816e+09 -2.63592e+10)
(-1.54427e+10 6.08873e+08 1.00808e+10 -3.70743e+10 -4.87326e+09 -4.05312e+09)
(-1.95245e+09 4.11488e+08 3.65135e+08 -1.5482e+09 1.92075e+09 1.44242e+08)
(-2.53204e+10 -1.12001e+10 3.17417e+08 1.209e+11 2.09221e+09 -1.02297e+10)
(-1.8927e+09 -1.37448e+09 2.70693e+09 -9.92865e+09 -2.76421e+09 -5.52132e+06)
(4.39606e+09 -3.2891e+10 1.5693e+10 3.27054e+10 -9.18209e+09 -8.86267e+09)
(-1.1583e+10 -1.16932e+09 -1.10973e+09 2.51072e+10 -1.28599e+10 1.82129e+09)
(-2.19525e+09 6.21535e+08 3.96109e+08 -7.7514e+09 -3.71183e+08 1.19883e+09)
(-1.30606e+10 -7.50325e+09 -2.72785e+08 6.04476e+10 -8.08642e+09 -2.0135e+09)
(-1.99119e+09 -4.88752e+08 3.86151e+09 -1.08146e+10 -3.76019e+09 4.38619e+09)
(-8.78921e+09 6.80567e+08 1.03598e+09 -1.2516e+10 -2.92096e+10 1.00305e+10)
(-1.81651e+10 1.53543e+09 -5.93978e+08 5.17818e+10 6.40566e+10 1.21518e+10)
(-6.29551e+09 9.40435e+08 5.03683e+08 -1.91442e+10 -2.22743e+10 7.56895e+09)
(-9.78301e+09 -1.022e+08 -7.96265e+08 2.98388e+10 2.2986e+10 4.4622e+09)
)
;
    }
    procBoundary5to13
    {
        type            processor;
        value           nonuniform List<symmTensor> 
50
(
(2.13246e+10 6.41791e+08 -4.51908e+10 4.33615e+09 -1.09132e+10 -1.7379e+10)
(9.78499e+08 -1.98592e+10 -2.65891e+10 -3.63748e+09 1.15529e+10 6.60255e+08)
(1.71404e+10 -8.31506e+08 -3.10883e+10 -5.57643e+08 -5.5895e+09 -1.16585e+10)
(8.52733e+09 -1.81955e+10 -3.58571e+10 -7.93043e+09 1.48082e+10 1.80036e+09)
(2.81327e+10 -2.70635e+10 -3.19886e+10 -7.73725e+09 -3.325e+08 -1.5353e+10)
(9.97178e+09 -1.60928e+10 -4.51613e+10 -5.9471e+09 1.44587e+10 -5.71058e+09)
(2.5659e+10 -2.43549e+10 -3.02798e+10 -1.21878e+10 3.97427e+09 -1.98357e+10)
(7.61028e+10 -5.51333e+10 -4.09255e+10 2.20605e+10 2.21893e+10 -5.57934e+10)
(2.91159e+10 -1.59997e+10 1.70332e+09 -1.34491e+10 -5.83991e+09 -8.49722e+09)
(3.33836e+10 -4.52786e+10 3.62763e+10 7.23935e+10 4.05612e+10 -7.14397e+10)
(9.86313e+09 -3.82658e+10 1.92545e+10 -1.80366e+10 4.16157e+09 1.39246e+10)
(1.13342e+10 -1.41641e+10 2.20388e+09 2.76835e+09 -2.71342e+10 -1.48742e+10)
(6.37731e+09 -2.90069e+10 5.21425e+09 -2.48008e+10 6.20336e+09 1.08286e+10)
(2.79331e+10 -3.00504e+10 6.97994e+09 -1.37753e+10 -2.22624e+10 -1.42964e+10)
(6.84036e+08 -1.54464e+10 2.04838e+09 -2.79639e+10 1.14266e+10 1.0802e+10)
(8.10594e+10 -8.61866e+10 3.65559e+10 -5.21556e+09 -3.31076e+10 -6.81141e+09)
(9.68829e+09 5.53726e+10 -2.40212e+10 -1.84583e+11 7.31955e+10 -2.39595e+09)
(2.9831e+10 -3.03823e+10 1.27459e+10 -4.532e+09 -7.51018e+09 6.34805e+07)
(-1.61845e+11 8.17738e+11 -3.18219e+11 1.26168e+11 1.01998e+11 -1.14221e+11)
(-2.96619e+09 7.34857e+09 3.04078e+08 -1.30923e+10 -3.67745e+09 -2.26284e+09)
(9.9019e+09 -9.07631e+09 1.15043e+10 -4.82155e+09 -1.14124e+10 -3.69357e+09)
(2.82691e+10 -4.87343e+10 2.72962e+10 -5.62553e+10 3.69211e+10 1.76549e+10)
(4.18741e+10 -3.27183e+10 3.15078e+10 -4.38083e+10 -1.6454e+10 7.38759e+09)
(2.5475e+10 -2.74478e+10 7.56429e+09 -4.36711e+10 3.01176e+10 -4.54027e+09)
(1.28351e+11 -6.66501e+10 6.06935e+10 -6.10868e+10 -1.25845e+10 1.46782e+10)
(7.55209e+10 4.21139e+10 -2.04223e+10 -5.40657e+10 3.12243e+10 -1.10551e+10)
(5.13409e+10 -5.22326e+10 1.30754e+10 -3.99505e+10 -1.39664e+09 4.9309e+09)
(-7.15538e+10 3.34335e+10 -6.94903e+09 1.49613e+11 -2.00824e+10 5.21933e+09)
(-1.55857e+09 8.87138e+09 2.54734e+09 -2.82463e+10 6.86344e+09 -1.4003e+09)
(-1.58283e+10 -1.41212e+11 5.63511e+10 2.10648e+11 -1.06121e+11 4.54386e+10)
(3.40986e+10 -5.76501e+10 2.30063e+10 -4.17785e+10 6.76948e+10 -1.71357e+09)
(9.13246e+10 1.14691e+09 6.36376e+10 -6.59437e+10 -8.4501e+09 1.57426e+10)
(1.93551e+10 -2.19262e+10 -9.09783e+09 -2.02523e+10 2.55529e+10 -1.55498e+10)
(4.78608e+10 -2.24635e+10 3.63273e+10 -3.86013e+10 6.57921e+08 1.79413e+10)
(1.57431e+10 -5.00729e+09 1.08428e+09 -1.12118e+10 8.98464e+09 -1.09468e+10)
(2.89808e+10 -1.12929e+10 1.3534e+10 -3.40956e+10 2.59772e+09 9.2037e+09)
(4.21403e+09 -8.34169e+07 -1.42828e+09 -1.59662e+09 -3.42228e+09 3.98187e+08)
(3.56704e+09 -4.50548e+08 1.44417e+09 -2.65603e+10 3.2229e+09 9.16863e+09)
(-8.76414e+09 -7.12129e+09 6.30074e+09 1.72692e+10 -2.3161e+10 9.51885e+09)
(-6.44047e+09 2.92745e+09 8.04902e+09 -2.53001e+10 -4.14013e+09 1.29665e+10)
(5.48333e+10 1.36272e+10 8.31555e+10 -3.78985e+10 2.03577e+10 1.55934e+10)
(-9.79602e+09 -3.52415e+10 -1.64904e+10 -8.72423e+09 1.72265e+10 -1.07089e+10)
(3.36814e+10 5.56424e+08 3.55342e+10 -3.47426e+10 -8.7222e+09 1.47574e+10)
(5.1937e+08 -9.24447e+09 -3.06006e+09 -5.86229e+09 1.03573e+10 1.45935e+09)
(1.05539e+10 1.0559e+09 1.29812e+10 -2.27009e+10 -1.02197e+10 1.17595e+10)
(-5.63349e+08 -3.70976e+09 -1.16153e+09 -3.3982e+07 8.16174e+09 4.00882e+09)
(1.56925e+09 3.2133e+09 4.70291e+09 -1.78761e+10 -9.78904e+09 1.03408e+10)
(-3.78785e+09 -2.20995e+08 -1.44902e+09 4.75613e+09 7.69302e+09 6.57822e+09)
(-3.19587e+09 2.62481e+09 2.69414e+09 -1.83739e+10 -1.13232e+10 1.30872e+10)
(-5.18008e+09 5.62815e+08 1.00841e+09 8.62393e+09 9.42941e+09 7.76088e+09)
)
;
    }
}


// ************************************************************************* //
