/*--------------------------------*- C++ -*----------------------------------*\
| =========                 |                                                 |
| \\      /  F ield         | OpenFOAM: The Open Source CFD Toolbox           |
|  \\    /   O peration     | Version:  2.4.0                                 |
|   \\  /    A nd           | Web:      www.OpenFOAM.org                      |
|    \\/     M anipulation  |                                                 |
\*---------------------------------------------------------------------------*/
FoamFile
{
    version     2.0;
    format      ascii;
    class       volScalarField;
    location    "0.08";
    object      p;
}
// * * * * * * * * * * * * * * * * * * * * * * * * * * * * * * * * * * * * * //

dimensions      [1 -1 -2 0 0 0 0];

internalField   nonuniform List<scalar> 
200
(
3.9658e+12
4.09054e+12
3.88653e+12
4.14436e+12
4.00085e+12
4.29744e+12
4.18251e+12
4.40845e+12
4.30797e+12
4.45662e+12
3.80783e+12
3.41549e+12
3.94485e+12
3.71543e+12
4.30869e+12
4.08757e+12
4.5976e+12
4.33606e+12
4.72019e+12
4.45667e+12
2.86915e+12
3.21504e+12
3.45223e+12
3.90742e+12
4.14512e+12
4.59579e+12
4.61792e+12
4.87819e+12
4.74999e+12
5.01805e+12
3.301e+12
3.52745e+12
3.65746e+12
4.00218e+12
4.22985e+12
4.5526e+12
4.79426e+12
4.94532e+12
5.13758e+12
5.17904e+12
4.20931e+12
3.96503e+12
4.16219e+12
4.01229e+12
4.25581e+12
4.15496e+12
4.41382e+12
4.33791e+12
4.53327e+12
4.44679e+12
3.62494e+12
4.06859e+12
3.70092e+12
4.20285e+12
3.92214e+12
4.41991e+12
4.19264e+12
4.70564e+12
4.45581e+12
4.87536e+12
3.51661e+12
3.27468e+12
3.70683e+12
3.77118e+12
4.203e+12
4.19468e+12
4.68811e+12
4.33889e+12
5.1508e+12
4.9662e+12
3.50691e+12
3.66875e+12
3.8014e+12
3.79714e+12
3.88987e+12
3.94766e+12
4.0174e+12
4.55805e+12
5.00076e+12
6.20715e+12
4.06266e+12
4.35179e+12
4.14192e+12
4.39607e+12
4.22993e+12
4.45506e+12
4.31269e+12
4.50193e+12
4.36509e+12
4.48646e+12
4.28848e+12
3.89538e+12
4.46466e+12
4.10114e+12
4.57879e+12
4.24544e+12
4.69394e+12
4.39405e+12
4.7913e+12
4.48633e+12
3.76653e+12
4.25537e+12
4.14191e+12
4.48081e+12
4.34821e+12
4.68164e+12
4.55518e+12
4.97955e+12
4.80936e+12
5.11365e+12
4.35262e+12
4.48095e+12
4.39102e+12
4.34735e+12
4.43167e+12
4.55414e+12
4.89499e+12
4.79809e+12
5.5529e+12
5.35067e+12
5.51787e+12
4.77182e+12
4.86173e+12
4.58443e+12
4.7407e+12
4.54989e+12
4.67144e+12
4.49646e+12
4.58042e+12
4.40749e+12
4.071e+12
4.86018e+12
4.4443e+12
4.92246e+12
4.52769e+12
4.88567e+12
4.53735e+12
4.83209e+12
4.51561e+12
4.73976e+12
4.89765e+12
4.74729e+12
5.02465e+12
4.77918e+12
5.00641e+12
4.74648e+12
4.97413e+12
4.74851e+12
4.96661e+12
4.73063e+12
4.86445e+12
4.90702e+12
4.90809e+12
4.91071e+12
4.87035e+12
4.94541e+12
4.87518e+12
5.03374e+12
4.96626e+12
5.09808e+12
7.37244e+12
6.76831e+12
5.62055e+12
5.46356e+12
5.02529e+12
5.06855e+12
4.83613e+12
4.86609e+12
4.6802e+12
4.67126e+12
5.86154e+12
4.95397e+12
5.54666e+12
5.03802e+12
5.32681e+12
4.91608e+12
5.10645e+12
4.78356e+12
4.91118e+12
4.6343e+12
5.02008e+12
5.64754e+12
5.44999e+12
5.53861e+12
5.21271e+12
5.29749e+12
5.00615e+12
5.10736e+12
4.84323e+12
4.92572e+12
5.33996e+12
5.45445e+12
5.3396e+12
5.28496e+12
5.26894e+12
5.14296e+12
5.19446e+12
5.03379e+12
5.10655e+12
4.91853e+12
)
;

boundaryField
{
    inlet
    {
        type            zeroGradient;
    }
    outlet
    {
        type            fixedValue;
        value           nonuniform 0();
    }
    bottom
    {
        type            zeroGradient;
    }
    top
    {
        type            symmetryPlane;
    }
    side1
    {
        type            symmetryPlane;
    }
    side2
    {
        type            symmetryPlane;
    }
    procBoundary5to4
    {
        type            processor;
        value           nonuniform List<scalar> 
20
(
4.45349e+12
3.25797e+12
3.13627e+12
3.31059e+12
4.07117e+12
4.03962e+12
3.26323e+12
3.67313e+12
4.62221e+12
3.45195e+12
4.00313e+12
3.9563e+12
5.44342e+12
4.97146e+12
4.18286e+12
4.69761e+12
1.03077e+13
3.29828e+12
3.91972e+12
4.86728e+12
)
;
    }
    procBoundary5to6
    {
        type            processor;
        value           nonuniform List<scalar> 
20
(
4.34685e+12
4.75317e+12
4.85015e+12
5.34402e+12
4.53857e+12
4.62042e+12
5.33287e+12
5.73829e+12
4.33477e+12
4.76335e+12
4.87878e+12
5.52228e+12
4.44478e+12
4.42762e+12
4.88048e+12
4.97138e+12
4.49238e+12
4.70426e+12
4.67141e+12
4.96028e+12
)
;
    }
    procBoundary5to13
    {
        type            processor;
        value           nonuniform List<scalar> 
50
(
3.75172e+12
3.72218e+12
3.83856e+12
3.95406e+12
4.10445e+12
4.27961e+12
4.60494e+12
5.06278e+12
5.31184e+12
5.40783e+12
3.76338e+12
3.72008e+12
3.66146e+12
3.6872e+12
3.64966e+12
3.6814e+12
3.4051e+12
4.24182e+12
4.72263e+12
5.54461e+12
4.46217e+12
4.40355e+12
4.36364e+12
4.32817e+12
4.53369e+12
4.47142e+12
4.54233e+12
4.9483e+12
5.25815e+12
6.36893e+12
4.95268e+12
5.02585e+12
4.9607e+12
4.99096e+12
4.88475e+12
4.87626e+12
4.86809e+12
4.85233e+12
5.15854e+12
5.12406e+12
5.33938e+12
5.12946e+12
5.19889e+12
5.13052e+12
5.11375e+12
5.10321e+12
5.03741e+12
5.10146e+12
5.02594e+12
5.08616e+12
)
;
    }
}


// ************************************************************************* //
