/*--------------------------------*- C++ -*----------------------------------*\
| =========                 |                                                 |
| \\      /  F ield         | OpenFOAM: The Open Source CFD Toolbox           |
|  \\    /   O peration     | Version:  2.4.0                                 |
|   \\  /    A nd           | Web:      www.OpenFOAM.org                      |
|    \\/     M anipulation  |                                                 |
\*---------------------------------------------------------------------------*/
FoamFile
{
    version     2.0;
    format      ascii;
    class       volScalarField;
    location    "0.1";
    object      nut;
}
// * * * * * * * * * * * * * * * * * * * * * * * * * * * * * * * * * * * * * //

dimensions      [0 2 -1 0 0 0 0];

internalField   nonuniform List<scalar> 
200
(
9618.75
20850
5051.12
7812.61
5665.58
8692.69
6072.63
17342.3
10342.7
14325.1
32265.6
5425
18040.7
4614.04
18307.4
2882.4
19756.1
9808.18
21475.4
20324.9
5135.63
14699.7
4620.6
16924.4
3041.03
13323.9
6242.34
10478
15591.3
13203.3
9536.88
6641.12
12206
5333.75
9653.62
4891.48
10097.5
6489.03
9962.43
12348.6
9458.01
3613.91
6005.65
3105
5823.98
2098.7
6518.86
3774.33
35136.1
4363.41
4585.2
5585.12
2503.93
4106.19
2325.75
5718.47
6025.02
57398.9
12317.9
58734.3
12302.2
4591.83
9785.15
2469.84
8333.49
1730.91
8765.68
6731.89
23129.9
5714.57
9569.81
12431.1
3214.99
10406.7
2249.06
9668.77
2424.5
11966
5361.09
16686.6
5280.81
2984.51
3809.25
2196.15
3610
2615.3
2878.64
4148.76
2095.17
4712.49
6953.04
3747.35
5184.26
3479.07
4818.36
3423.43
8402.45
2427.97
39682.9
800.108
3488.68
8409.98
2757.79
6513.96
2608.6
6442.35
2189.26
10443.2
1544.3
15710.7
12440.2
2865.48
7685.1
2207.92
7253.06
1151.78
8403.15
2108.85
13971.5
2925.86
1548.71
2189.64
1343.8
2374.98
1608.53
2552.09
1833.59
2404.64
2590.7
3729.79
2870.32
1943.19
2255.06
2196.39
2753.06
2809.56
2738.31
3579.57
2697.03
6657.66
4249.1
2630.16
2860.46
2578.82
3231.48
3657.71
5252.88
4001.98
8397.67
5857.04
2011.4
5206.66
2267.07
4440.12
3014.95
5541.9
4805.66
7722.82
5851.12
7715.57
1064.67
1510.82
1829.86
2039.58
2612.02
2575.63
3636.53
4311.83
4465.12
11423.5
1528.74
1555.55
2126.72
2544.86
2771.77
3161.15
3998.23
5153.13
6878.15
7876.63
1955.79
2457.87
2746.8
3444.83
4260.08
5068.84
7648.47
9084.73
7366.25
5407.41
4072.85
3081.63
4377.59
4813.71
5795.94
8559.26
9807.12
8147.32
5293.89
4015.16
)
;

boundaryField
{
    inlet
    {
        type            calculated;
        value           nonuniform 0();
    }
    outlet
    {
        type            calculated;
        value           nonuniform 0();
    }
    bottom
    {
        type            calculated;
        value           nonuniform List<scalar> 
40
(
5.36272e-20
3.12612e-20
6.99901e-21
3.52723e-20
1.37316e-20
4.15961e-21
4.21531e-20
7.75455e-21
2.7107e-20
1.66914e-20
5.32689e-21
3.75613e-20
6.26972e-21
1.05432e-20
3.38154e-20
6.01842e-21
2.44861e-20
1.74932e-20
4.16727e-21
3.3572e-20
6.66722e-21
3.1722e-21
3.41442e-20
5.52142e-21
1.72951e-20
2.32361e-20
5.82475e-21
3.5608e-20
1.57294e-20
7.94171e-21
4.26915e-20
5.39924e-21
8.48281e-21
3.98072e-20
1.21421e-20
4.41517e-20
7.50857e-21
1.84589e-20
2.93895e-20
9.27423e-21
)
;
    }
    top
    {
        type            symmetryPlane;
    }
    side1
    {
        type            symmetryPlane;
    }
    side2
    {
        type            symmetryPlane;
    }
    procBoundary14to6
    {
        type            processor;
        value           nonuniform List<scalar> 
50
(
7080.96
10205.5
5155.09
9514.26
5508.48
9265.99
6380.08
6792.49
5701.89
8483.43
6971.17
6182.29
5117.71
2642.04
4568.62
2668.46
1699.22
3406
3866.46
1584.27
2501.82
3786.13
4530.95
2989.67
4913.26
2861.97
2975.16
2866.28
2882.84
4069.57
2050.64
871.615
1349.46
1324.47
1447.01
2003.23
1144.49
1687.55
3088.73
7029.17
908.557
1330.41
742.554
2266.61
3221.64
3132.32
1050.26
6204.81
9872.87
8047.1
)
;
    }
    procBoundary14to13
    {
        type            processor;
        value           nonuniform List<scalar> 
20
(
23558.8
19758.9
16622.7
18364
5600.35
11364.1
8530.49
9805.14
4902.39
4230.82
14171.5
7820.23
2992.37
2507.59
3294.5
5956.01
1277.44
1161.97
1963.79
2772.01
)
;
    }
    procBoundary14to15
    {
        type            processor;
        value           nonuniform List<scalar> 
20
(
17540.2
19215.8
8204.39
12049.3
7143.3
5380.78
20781.9
5876.28
3973.08
9667.77
1164.7
9948.37
4833.98
6319.93
7530.89
6089.04
6139.28
7017.15
4344.73
3933.26
)
;
    }
    procBoundary14to22
    {
        type            processor;
        value           nonuniform List<scalar> 
50
(
7864.27
15286.6
9254.95
9300.56
8133.16
10065.4
6954.27
9916.48
6711.38
9487.56
11730.9
4819.7
7587.15
3667.14
7051.98
2113.02
7657.21
3844.35
11705.2
4915.53
2831.55
10733.2
3217.01
9156.95
615.278
8066.04
2693.45
10046.8
3426.46
9861.2
6486.11
2628.57
6709.19
2863.37
6500.72
4679.59
8274.54
5782.24
7664.16
6060.56
4138.73
6453.06
5297.34
7354.73
8127.05
10552.9
8329.22
5492.83
4385.66
4134.25
)
;
    }
}


// ************************************************************************* //
