/*--------------------------------*- C++ -*----------------------------------*\
| =========                 |                                                 |
| \\      /  F ield         | OpenFOAM: The Open Source CFD Toolbox           |
|  \\    /   O peration     | Version:  2.4.0                                 |
|   \\  /    A nd           | Web:      www.OpenFOAM.org                      |
|    \\/     M anipulation  |                                                 |
\*---------------------------------------------------------------------------*/
FoamFile
{
    version     2.0;
    format      ascii;
    class       volVectorField;
    location    "0.01";
    object      Uc;
}
// * * * * * * * * * * * * * * * * * * * * * * * * * * * * * * * * * * * * * //

dimensions      [0 1 -1 0 0 0 0];

internalField   nonuniform List<vector> 
200
(
(2.25636e-64 9.11278e-65 -1.0636e-65)
(1.43085e-66 5.77873e-67 -6.74461e-68)
(8.9438e-69 3.61206e-69 -4.21575e-70)
(5.51453e-71 2.22708e-71 -2.59926e-72)
(3.35668e-73 1.3556e-73 -1.58212e-74)
(2.01879e-75 8.15281e-76 -9.51497e-77)
(1.20062e-77 4.8486e-78 -5.65859e-79)
(7.06626e-80 2.8536e-80 -3.33024e-81)
(4.1186e-82 1.6632e-82 -1.94096e-83)
(2.3788e-84 9.60612e-85 -1.12101e-85)
(1.01611e-66 4.10395e-67 -4.79023e-68)
(6.60866e-69 2.66913e-69 -3.11547e-70)
(4.23501e-71 1.71044e-71 -1.99645e-72)
(2.67635e-73 1.08091e-73 -1.26165e-74)
(1.66927e-75 6.74171e-76 -7.86892e-77)
(1.02834e-77 4.15311e-78 -4.84745e-79)
(6.26157e-80 2.52881e-80 -2.95155e-81)
(3.77113e-82 1.523e-82 -1.77757e-83)
(2.24796e-84 9.07844e-85 -1.05957e-85)
(1.32708e-86 5.35936e-87 -6.25497e-88)
(4.20237e-69 1.69734e-69 -1.98125e-70)
(2.80219e-71 1.1318e-71 -1.32112e-72)
(1.83981e-73 7.4309e-74 -8.6739e-75)
(1.19062e-75 4.80881e-76 -5.61319e-77)
(7.60131e-78 3.07007e-78 -3.5836e-79)
(4.79144e-80 1.93519e-80 -2.25887e-81)
(2.98417e-82 1.20525e-82 -1.40683e-83)
(1.83762e-84 7.42169e-85 -8.66288e-86)
(1.11953e-86 4.52144e-87 -5.27754e-88)
(6.75172e-89 2.7268e-89 -3.18274e-90)
(1.61424e-71 6.5201e-72 -7.61084e-73)
(1.1032e-73 4.45593e-74 -5.2014e-75)
(7.41789e-76 2.99613e-76 -3.4974e-77)
(4.91305e-78 1.9844e-78 -2.31641e-79)
(3.20853e-80 1.29592e-80 -1.51275e-81)
(2.06788e-82 8.3521e-83 -9.7495e-84)
(1.31629e-84 5.31639e-85 -6.20586e-86)
(8.28104e-87 3.34463e-87 -3.90419e-88)
(5.1524e-89 2.08098e-89 -2.42912e-90)
(3.17232e-91 1.28125e-91 -1.49557e-92)
(3.22691e-66 1.30322e-66 -1.5209e-67)
(2.10431e-68 8.49836e-69 -9.91784e-70)
(1.35158e-70 5.45834e-71 -6.37e-72)
(8.55684e-73 3.45564e-73 -4.03276e-74)
(5.34443e-75 2.1583e-75 -2.51872e-76)
(3.29598e-77 1.33103e-77 -1.55328e-78)
(2.00877e-79 8.11201e-80 -9.46633e-81)
(1.21084e-81 4.88966e-82 -5.70588e-83)
(7.22394e-84 2.91715e-84 -3.40404e-85)
(4.26853e-86 1.72368e-86 -2.01132e-87)
(1.49423e-68 6.03483e-69 -7.04334e-70)
(9.98588e-71 4.03303e-71 -4.70701e-72)
(6.57069e-73 2.6537e-73 -3.09717e-74)
(4.26074e-75 1.72076e-75 -2.00831e-76)
(2.72502e-77 1.10053e-77 -1.28442e-78)
(1.72031e-79 6.94761e-80 -8.10846e-81)
(1.07283e-81 4.33263e-82 -5.0565e-83)
(6.61372e-84 2.67094e-84 -3.11714e-85)
(4.03326e-86 1.6288e-86 -1.90088e-87)
(2.43463e-88 9.83196e-89 -1.14741e-89)
(6.34972e-71 2.56459e-71 -2.99329e-72)
(4.34744e-73 1.75588e-73 -2.0494e-74)
(2.92879e-75 1.18289e-75 -1.38064e-76)
(1.9435e-77 7.84943e-78 -9.16164e-79)
(1.27153e-79 5.13543e-80 -5.99392e-81)
(8.20872e-82 3.31529e-82 -3.86949e-83)
(5.2331e-84 2.11349e-84 -2.46678e-85)
(3.29672e-86 1.33144e-86 -1.55398e-87)
(2.05367e-88 8.29399e-89 -9.68022e-90)
(1.2658e-90 5.11205e-91 -5.96638e-92)
(2.50446e-73 1.01155e-73 -1.18067e-74)
(1.75619e-75 7.09322e-76 -8.2792e-77)
(1.21084e-77 4.89052e-78 -5.70826e-79)
(8.21821e-80 3.31928e-80 -3.87432e-81)
(5.49664e-82 2.22004e-82 -2.59127e-83)
(3.62609e-84 1.46453e-84 -1.70943e-85)
(2.36131e-86 9.53695e-87 -1.11317e-87)
(1.51899e-88 6.1349e-89 -7.16073e-90)
(9.65899e-91 3.90105e-91 -4.55333e-92)
(6.07503e-93 2.45355e-93 -2.86377e-94)
(2.38466e-68 9.6304e-69 -1.12379e-69)
(1.59813e-70 6.45392e-71 -7.53119e-72)
(1.05411e-72 4.25691e-73 -4.96743e-74)
(6.84863e-75 2.76571e-75 -3.2273e-76)
(4.38684e-77 1.77153e-77 -2.06718e-78)
(2.77283e-79 1.11973e-79 -1.30658e-80)
(1.73101e-81 6.99015e-82 -8.15647e-83)
(1.06818e-83 4.31343e-84 -5.03304e-85)
(6.52053e-86 2.63303e-86 -3.07223e-87)
(3.94017e-88 1.59104e-88 -1.85639e-89)
(1.1347e-70 4.58265e-71 -5.34796e-72)
(7.78733e-73 3.14501e-73 -3.67025e-74)
(5.25842e-75 2.12366e-75 -2.47832e-76)
(3.49693e-77 1.41225e-77 -1.6481e-78)
(2.29224e-79 9.25722e-80 -1.08031e-80)
(1.48228e-81 5.98613e-82 -6.98573e-83)
(9.46316e-84 3.82162e-84 -4.45974e-85)
(5.96905e-86 2.41053e-86 -2.81299e-87)
(3.72258e-88 1.5033e-88 -1.75427e-89)
(2.29686e-90 9.27537e-91 -1.08237e-91)
(4.9516e-73 1.99985e-73 -2.33393e-74)
(3.47903e-75 1.4051e-75 -1.63984e-76)
(2.40362e-77 9.70759e-78 -1.13294e-78)
(1.63473e-79 6.60219e-80 -7.70524e-81)
(1.09551e-81 4.4244e-82 -5.1636e-83)
(7.24014e-84 2.92404e-84 -3.41256e-85)
(4.7226e-86 1.90727e-86 -2.22591e-87)
(3.0425e-88 1.22874e-88 -1.434e-89)
(1.93728e-90 7.82377e-91 -9.1307e-92)
(1.21994e-92 4.9267e-93 -5.74963e-94)
(2.00424e-75 8.09493e-76 -9.44742e-77)
(1.44128e-77 5.82119e-78 -6.79389e-79)
(1.01845e-79 4.11339e-80 -4.80078e-81)
(7.08033e-82 2.85964e-82 -3.33754e-83)
(4.84788e-84 1.95797e-84 -2.2852e-85)
(3.2722e-86 1.32157e-86 -1.54244e-87)
(2.1791e-88 8.80085e-89 -1.02717e-89)
(1.43281e-90 5.78673e-91 -6.75384e-92)
(9.30838e-93 3.75936e-93 -4.38763e-94)
(5.97863e-95 2.41456e-95 -2.81807e-96)
(1.20897e-70 4.88224e-71 -5.6966e-72)
(8.32063e-73 3.36013e-73 -3.92061e-74)
(5.63235e-75 2.2745e-75 -2.65388e-76)
(3.75302e-77 1.51555e-77 -1.76833e-78)
(2.46394e-79 9.94983e-80 -1.16093e-80)
(1.59532e-81 6.44209e-82 -7.51641e-83)
(1.01959e-83 4.11717e-84 -4.8037e-85)
(6.43772e-86 2.59956e-86 -3.03298e-87)
(4.01897e-88 1.62284e-88 -1.89338e-89)
(2.48242e-90 1.00238e-90 -1.16945e-91)
(5.90729e-73 2.38569e-73 -2.78383e-74)
(4.16055e-75 1.68024e-75 -1.96067e-76)
(2.88129e-77 1.1636e-77 -1.35781e-78)
(1.9639e-79 7.93112e-80 -9.2548e-81)
(1.31867e-81 5.32534e-82 -6.2141e-83)
(8.72983e-84 3.52543e-84 -4.11377e-85)
(5.70267e-86 2.30292e-86 -2.68723e-87)
(3.67865e-88 1.48554e-88 -1.73343e-89)
(2.34507e-90 9.46992e-91 -1.105e-91)
(1.47833e-92 5.96975e-93 -6.96571e-94)
(2.64543e-75 1.06841e-75 -1.24677e-76)
(1.90622e-77 7.69859e-78 -8.98393e-79)
(1.34981e-79 5.45142e-80 -6.36163e-81)
(9.4036e-82 3.79775e-82 -4.43187e-83)
(6.45149e-84 2.60549e-84 -3.04054e-85)
(4.3627e-86 1.7619e-86 -2.05609e-87)
(2.91024e-88 1.1753e-88 -1.37155e-89)
(1.91649e-90 7.73969e-91 -9.03194e-92)
(1.24678e-92 5.03505e-93 -5.87568e-94)
(8.01791e-95 3.23795e-95 -3.77851e-96)
(1.09818e-77 4.43533e-78 -5.17591e-79)
(8.09395e-80 3.26898e-80 -3.81488e-81)
(5.85847e-82 2.3661e-82 -2.76127e-83)
(4.16954e-84 1.68397e-84 -1.96523e-85)
(2.92108e-86 1.17975e-86 -1.3768e-87)
(2.01636e-88 8.14346e-89 -9.50371e-90)
(1.37255e-90 5.54328e-91 -6.46921e-92)
(9.22064e-93 3.72388e-93 -4.3459e-94)
(6.11745e-95 2.4706e-95 -2.88327e-96)
(4.01085e-97 1.61981e-97 -1.89036e-98)
(4.7388e-73 1.91364e-73 -2.21833e-74)
(3.34741e-75 1.35175e-75 -1.56672e-76)
(2.3241e-77 9.38509e-78 -1.08758e-78)
(1.58741e-79 6.41014e-80 -7.42708e-81)
(1.06764e-81 4.3112e-82 -4.9943e-83)
(7.07752e-84 2.85791e-84 -3.31017e-85)
(4.62875e-86 1.86907e-86 -2.16446e-87)
(2.9892e-88 1.20701e-88 -1.39751e-89)
(1.90768e-90 7.70292e-91 -8.91707e-92)
(1.20401e-92 4.86155e-93 -5.62679e-94)
(2.37632e-75 9.59663e-76 -1.11237e-76)
(1.71663e-77 6.93246e-78 -8.03432e-79)
(1.21858e-79 4.92108e-80 -5.70234e-81)
(8.50884e-82 3.43616e-82 -3.98103e-83)
(5.8496e-84 2.36225e-84 -2.73637e-85)
(3.96279e-86 1.60028e-86 -1.85341e-87)
(2.64761e-88 1.06916e-88 -1.23808e-89)
(1.74596e-90 7.05048e-91 -8.16294e-92)
(1.13727e-92 4.59245e-93 -5.31614e-94)
(7.3223e-95 2.9568e-95 -3.42213e-96)
(1.09147e-77 4.40801e-78 -5.10884e-79)
(8.0616e-80 3.25573e-80 -3.7728e-81)
(5.84792e-82 2.36171e-82 -2.73637e-83)
(4.17115e-84 1.68453e-84 -1.95145e-85)
(2.92836e-86 1.18261e-86 -1.36979e-87)
(2.02534e-88 8.17926e-89 -9.47226e-90)
(1.38114e-90 5.57764e-91 -6.4583e-92)
(9.29349e-93 3.75307e-93 -4.34492e-94)
(6.1749e-95 2.49364e-95 -2.88639e-96)
(4.05397e-97 1.63712e-97 -1.89464e-98)
(4.6444e-80 1.87574e-80 -2.17367e-81)
(3.50662e-82 1.41622e-82 -1.64093e-83)
(2.59861e-84 1.04949e-84 -1.21584e-85)
(1.89252e-86 7.64325e-87 -8.85334e-88)
(1.35604e-88 5.47655e-89 -6.34261e-90)
(9.56884e-91 3.86448e-91 -4.4749e-92)
(6.65548e-93 2.68787e-93 -3.11194e-94)
(4.56643e-95 1.84417e-95 -2.13478e-96)
(3.09288e-97 1.24906e-97 -1.44566e-98)
(2.06931e-99 8.35688e-100 -9.67055e-101)
)
;

boundaryField
{
    inlet
    {
        type            calculated;
        value           nonuniform 0();
    }
    outlet
    {
        type            calculated;
        value           nonuniform 0();
    }
    bottom
    {
        type            calculated;
        value           uniform (0 0 0);
    }
    top
    {
        type            symmetryPlane;
    }
    side1
    {
        type            symmetryPlane;
    }
    side2
    {
        type            symmetryPlane;
    }
    procBoundary22to14
    {
        type            processor;
        value           nonuniform List<vector> 
50
(
(4.77668e-62 1.92903e-62 -2.2512e-63)
(2.94132e-64 1.18781e-64 -1.38617e-65)
(1.78557e-66 7.2107e-67 -8.41467e-68)
(1.06987e-68 4.32039e-69 -5.04166e-70)
(6.3336e-71 2.55762e-71 -2.98453e-72)
(3.70805e-73 1.49735e-73 -1.74724e-74)
(2.1487e-75 8.67655e-76 -1.01242e-76)
(1.2333e-77 4.98004e-78 -5.81079e-79)
(7.01643e-80 2.83316e-80 -3.30566e-81)
(3.95887e-82 1.59851e-82 -1.86504e-83)
(6.64186e-64 2.68219e-64 -3.12981e-65)
(4.20895e-66 1.69968e-66 -1.98331e-67)
(2.6274e-68 1.061e-68 -1.23802e-69)
(1.61758e-70 6.53199e-71 -7.62171e-72)
(9.83236e-73 3.97037e-73 -4.63263e-74)
(5.90644e-75 2.38502e-75 -2.78277e-76)
(3.50953e-77 1.41712e-77 -1.65341e-78)
(2.06427e-79 8.33518e-80 -9.72472e-81)
(1.20276e-81 4.85646e-82 -5.66589e-83)
(6.94634e-84 2.80471e-84 -3.27207e-85)
(4.77527e-66 1.92834e-66 -2.24991e-67)
(3.11213e-68 1.25671e-68 -1.46627e-69)
(1.99642e-70 8.06168e-71 -9.40582e-72)
(1.26217e-72 5.09666e-73 -5.94634e-74)
(7.87304e-75 3.17909e-75 -3.709e-76)
(4.85019e-77 1.95845e-77 -2.28484e-78)
(2.95367e-79 1.19263e-79 -1.39136e-80)
(1.77952e-81 7.1852e-82 -8.38224e-83)
(1.06144e-83 4.28572e-84 -4.99956e-85)
(6.2722e-86 2.53244e-86 -2.95416e-87)
(2.35701e-68 9.5177e-69 -1.11037e-69)
(1.57861e-70 6.37442e-71 -7.43657e-72)
(1.03995e-72 4.19924e-73 -4.89889e-74)
(6.74717e-75 2.72442e-75 -3.1783e-76)
(4.31624e-77 1.74282e-77 -2.03312e-78)
(2.7253e-79 1.10041e-79 -1.28368e-80)
(1.70001e-81 6.86411e-82 -8.00712e-83)
(1.04854e-83 4.23359e-84 -4.93845e-85)
(6.39939e-86 2.58377e-86 -3.01386e-87)
(3.86724e-88 1.56138e-88 -1.82122e-89)
(9.00023e-71 3.63422e-71 -4.21291e-72)
(6.19083e-73 2.49977e-73 -2.89733e-74)
(4.18569e-75 1.6901e-75 -1.95856e-76)
(2.78533e-77 1.12465e-77 -1.30305e-78)
(1.82638e-79 7.37436e-80 -8.54263e-81)
(1.18134e-81 4.76981e-82 -5.52445e-83)
(7.54477e-84 3.04624e-84 -3.52753e-85)
(4.76188e-86 1.9226e-86 -2.22594e-87)
(2.97241e-88 1.20008e-88 -1.38916e-89)
(1.83627e-90 7.41362e-91 -8.58e-92)
)
;
    }
    procBoundary22to21
    {
        type            processor;
        value           nonuniform List<vector> 
20
(
(3.69433e-62 1.49204e-62 -1.74141e-63)
(1.61511e-64 6.52327e-65 -7.61395e-66)
(6.48389e-67 2.61885e-67 -3.05682e-68)
(2.41654e-69 9.76067e-70 -1.13931e-70)
(5.13626e-64 2.07433e-64 -2.42077e-65)
(2.31076e-66 9.33266e-67 -1.0892e-67)
(9.53882e-69 3.85264e-69 -4.49651e-70)
(3.65291e-71 1.47541e-71 -1.72201e-72)
(3.69237e-66 1.49116e-66 -1.74002e-67)
(1.70829e-68 6.89922e-69 -8.05117e-70)
(7.24659e-71 2.92676e-71 -3.41556e-72)
(2.84974e-73 1.15098e-73 -1.34324e-74)
(1.82231e-68 7.35913e-69 -8.58641e-70)
(8.66378e-71 3.49892e-71 -4.08271e-72)
(3.77408e-73 1.52423e-73 -1.77863e-74)
(1.52309e-75 6.15144e-76 -7.17828e-77)
(6.95776e-71 2.80971e-71 -3.2575e-72)
(3.39713e-73 1.37191e-73 -1.59041e-74)
(1.51876e-75 6.13364e-76 -7.10969e-77)
(6.28638e-78 2.53888e-78 -2.94249e-79)
)
;
    }
    procBoundary22to23
    {
        type            processor;
        value           nonuniform List<vector> 
20
(
(1.14819e-86 4.63659e-87 -5.41071e-88)
(6.58272e-89 2.65839e-89 -3.10265e-90)
(3.48232e-91 1.40639e-91 -1.64157e-92)
(1.70821e-93 6.89918e-94 -8.05343e-95)
(2.10485e-88 8.4995e-89 -9.91778e-90)
(1.23319e-90 4.98006e-91 -5.81185e-92)
(6.66415e-93 2.69137e-93 -3.1412e-94)
(3.33805e-95 1.34815e-95 -1.57359e-96)
(1.98428e-90 8.01242e-91 -9.34865e-92)
(1.18764e-92 4.796e-93 -5.59662e-94)
(6.5541e-95 2.64686e-95 -3.08903e-96)
(3.35124e-97 1.35345e-97 -1.57966e-98)
(1.27624e-92 5.15324e-93 -6.01215e-94)
(7.8002e-95 3.14984e-95 -3.67537e-96)
(4.39412e-97 1.77452e-97 -2.0708e-98)
(2.29266e-99 9.25909e-100 -1.08059e-100)
(6.317e-95 2.55064e-95 -2.95165e-96)
(3.94122e-97 1.59149e-97 -1.84168e-98)
(2.26566e-99 9.14943e-100 -1.05872e-100)
(1.20589e-101 4.86997e-102 -5.63476e-103)
)
;
    }
    procBoundary22to30
    {
        type            processor;
        value           nonuniform List<vector> 
50
(
(5.02767e-74 2.03079e-74 -2.3706e-75)
(3.50094e-76 1.41411e-76 -1.65075e-77)
(2.39937e-78 9.69154e-79 -1.13135e-79)
(1.6207e-80 6.5463e-81 -7.64196e-82)
(1.08027e-82 4.36337e-83 -5.0937e-84)
(7.11247e-85 2.87282e-85 -3.35367e-86)
(4.62929e-87 1.86982e-87 -2.18279e-88)
(2.98048e-89 1.20383e-89 -1.40533e-90)
(1.89912e-91 7.67059e-92 -8.95446e-93)
(1.19807e-93 4.83899e-94 -5.64888e-95)
(7.99643e-76 3.22986e-76 -3.76999e-77)
(5.70957e-78 2.30617e-78 -2.69187e-79)
(4.00993e-80 1.61965e-80 -1.89056e-81)
(2.77401e-82 1.12045e-82 -1.30787e-83)
(1.89261e-84 7.64439e-85 -8.9232e-86)
(1.27481e-86 5.14901e-87 -6.0104e-88)
(8.48426e-89 3.42681e-89 -4.0001e-90)
(5.58277e-91 2.25487e-91 -2.6321e-92)
(3.63394e-93 1.46773e-93 -1.71327e-94)
(2.34086e-95 9.45454e-96 -1.10362e-96)
(6.55699e-78 2.64839e-78 -3.09101e-79)
(4.7983e-80 1.93805e-80 -2.26199e-81)
(3.45176e-82 1.39417e-82 -1.62724e-83)
(2.4445e-84 9.87335e-85 -1.1524e-85)
(1.70644e-86 6.8923e-87 -8.04468e-88)
(1.17545e-88 4.7476e-89 -5.54142e-90)
(7.99635e-91 3.22967e-91 -3.76971e-92)
(5.37582e-93 2.17124e-93 -2.5343e-94)
(3.57353e-95 1.4433e-95 -1.68464e-96)
(2.34981e-97 9.49049e-98 -1.10774e-98)
(3.67926e-80 1.48603e-80 -1.73424e-81)
(2.75788e-82 1.11389e-82 -1.29997e-83)
(2.03103e-84 8.2032e-85 -9.57375e-86)
(1.47172e-86 5.94415e-87 -6.93737e-88)
(1.05067e-88 4.24353e-89 -4.95265e-90)
(7.39784e-91 2.9879e-91 -3.48722e-92)
(5.14186e-93 2.07672e-93 -2.42379e-94)
(3.53027e-95 1.42581e-95 -1.6641e-96)
(2.39557e-97 9.67521e-98 -1.12922e-98)
(1.60736e-99 6.49175e-100 -7.57668e-101)
(1.59276e-82 6.43292e-83 -7.45386e-84)
(1.22234e-84 4.93683e-85 -5.71954e-86)
(9.21144e-87 3.72035e-87 -4.30958e-88)
(6.82668e-89 2.75718e-89 -3.19339e-90)
(4.98211e-91 2.01218e-91 -2.33018e-92)
(3.58441e-93 1.44767e-93 -1.67619e-94)
(2.54451e-95 1.02767e-95 -1.18971e-96)
(1.78352e-97 7.20316e-98 -8.3376e-99)
(1.23506e-99 4.98804e-100 -5.77268e-101)
(8.45337e-102 3.41404e-102 -3.95043e-103)
)
;
    }
}


// ************************************************************************* //
