/*--------------------------------*- C++ -*----------------------------------*\
| =========                 |                                                 |
| \\      /  F ield         | OpenFOAM: The Open Source CFD Toolbox           |
|  \\    /   O peration     | Version:  2.4.0                                 |
|   \\  /    A nd           | Web:      www.OpenFOAM.org                      |
|    \\/     M anipulation  |                                                 |
\*---------------------------------------------------------------------------*/
FoamFile
{
    version     2.0;
    format      ascii;
    class       volVectorField;
    location    "0.11";
    object      A_Source;
}
// * * * * * * * * * * * * * * * * * * * * * * * * * * * * * * * * * * * * * //

dimensions      [1 -2 -2 0 0 0 0];

internalField   nonuniform List<vector> 
200
(
(3.68072e-67 2.60528e-67 -5.05904e-67)
(2.0882e-69 1.47756e-69 -2.87017e-69)
(1.23267e-71 8.71875e-72 -1.69427e-71)
(7.40931e-74 5.23868e-74 -1.01839e-73)
(4.46767e-76 3.15771e-76 -6.14068e-76)
(2.67907e-78 1.89293e-78 -3.6823e-78)
(1.59069e-80 1.12359e-80 -2.18636e-80)
(9.335e-83 6.59194e-83 -1.28307e-82)
(5.41268e-85 3.82116e-85 -7.43956e-85)
(3.1019e-87 2.18926e-87 -4.26346e-87)
(2.22952e-69 1.57931e-69 -3.06441e-69)
(1.22821e-71 8.69848e-72 -1.68814e-71)
(6.84767e-74 4.84847e-74 -9.41192e-74)
(3.87204e-76 2.74079e-76 -5.32201e-76)
(2.21736e-78 1.56903e-78 -3.0477e-78)
(1.28154e-80 9.0653e-81 -1.76144e-80)
(7.44468e-83 5.26443e-83 -1.02325e-82)
(4.33032e-85 3.06116e-85 -5.9519e-85)
(2.51426e-87 1.77681e-87 -3.45578e-87)
(1.45386e-89 1.02713e-89 -1.99829e-89)
(1.11725e-71 7.91925e-72 -1.53563e-71)
(6.35019e-74 4.50036e-74 -8.72815e-74)
(3.58904e-76 2.54307e-76 -4.93302e-76)
(2.02583e-78 1.43513e-78 -2.78444e-78)
(1.14549e-80 8.11299e-81 -1.57445e-80)
(6.49982e-83 4.60232e-83 -8.93382e-83)
(3.70297e-85 2.62121e-85 -5.08962e-85)
(2.1171e-87 1.49818e-87 -2.90989e-87)
(1.21339e-89 8.58403e-90 -1.66777e-89)
(6.96154e-92 4.92339e-92 -9.56843e-92)
(5.02015e-74 3.56051e-74 -6.90004e-74)
(2.94316e-76 2.08706e-76 -4.04529e-76)
(1.70797e-78 1.21095e-78 -2.34756e-78)
(9.83453e-81 6.97143e-81 -1.35173e-80)
(5.63206e-83 3.99167e-83 -7.7411e-83)
(3.21476e-85 2.27797e-85 -4.4186e-85)
(1.83208e-87 1.29791e-87 -2.51813e-87)
(1.04371e-89 7.39225e-90 -1.43454e-89)
(5.94778e-92 4.21156e-92 -8.17505e-92)
(3.39125e-94 2.40067e-94 -4.66118e-94)
(6.4961e-69 4.59704e-69 -8.92869e-69)
(3.76947e-71 2.66659e-71 -5.18102e-71)
(2.27568e-73 1.60923e-73 -3.12785e-73)
(1.39849e-75 9.8856e-76 -1.92218e-75)
(8.61749e-78 6.08934e-78 -1.18445e-77)
(5.2781e-80 3.72843e-80 -7.25459e-80)
(3.19927e-82 2.25928e-82 -4.39731e-82)
(1.91575e-84 1.35249e-84 -2.63314e-84)
(1.1329e-86 7.99598e-87 -1.55714e-86)
(6.61876e-89 4.67028e-89 -9.09729e-89)
(4.0313e-71 2.85506e-71 -5.5409e-71)
(2.26923e-73 1.6068e-73 -3.11899e-73)
(1.29237e-75 9.14874e-76 -1.77632e-75)
(7.46279e-78 5.2814e-78 -1.02574e-77)
(4.36308e-80 3.08674e-80 -5.99692e-80)
(2.57365e-82 1.82016e-82 -3.5374e-82)
(1.52537e-84 1.07843e-84 -2.09658e-84)
(9.0491e-87 6.39555e-87 -1.24377e-86)
(5.35657e-89 3.78463e-89 -7.36245e-89)
(3.15664e-91 2.22963e-91 -4.33871e-91)
(2.06637e-73 1.46442e-73 -2.84017e-73)
(1.19962e-75 8.50016e-76 -1.64885e-75)
(6.9223e-78 4.90403e-78 -9.5145e-78)
(3.98772e-80 2.82447e-80 -5.48101e-80)
(2.30047e-82 1.62902e-82 -3.16193e-82)
(1.33133e-84 9.42502e-85 -1.82988e-84)
(7.73325e-87 5.47311e-87 -1.06291e-86)
(4.50658e-89 3.18852e-89 -6.19417e-89)
(2.63189e-91 1.86156e-91 -3.61746e-91)
(1.53815e-93 1.08761e-93 -2.11414e-93)
(9.4901e-76 6.72971e-76 -1.30439e-75)
(5.68059e-78 4.02757e-78 -7.80781e-78)
(3.36434e-80 2.38492e-80 -4.62418e-80)
(1.97622e-82 1.40066e-82 -2.71626e-82)
(1.15412e-84 8.17835e-85 -1.5863e-84)
(6.71553e-87 4.75781e-87 -9.23029e-87)
(3.90014e-89 2.76256e-89 -5.36063e-89)
(2.26353e-91 1.60292e-91 -3.11115e-91)
(1.31373e-93 9.30078e-94 -1.80568e-93)
(7.62652e-96 5.39788e-96 -1.04824e-95)
(5.90051e-71 4.17464e-71 -8.11007e-71)
(3.50057e-73 2.47581e-73 -4.81143e-73)
(2.16056e-75 1.52748e-75 -2.96962e-75)
(1.357e-77 9.59009e-78 -1.86516e-77)
(8.54232e-80 6.0348e-80 -1.17412e-79)
(5.34235e-82 3.77292e-82 -7.3429e-82)
(3.30485e-84 2.33327e-84 -4.54242e-84)
(2.01873e-86 1.42485e-86 -2.77468e-86)
(1.21725e-88 8.58923e-89 -1.67307e-88)
(7.24818e-91 5.11317e-91 -9.96241e-91)
(3.74982e-73 2.65518e-73 -5.15402e-73)
(2.15608e-75 1.52638e-75 -2.96347e-75)
(1.25391e-77 8.87474e-78 -1.72347e-77)
(7.39203e-80 5.23026e-80 -1.01601e-79)
(4.41083e-82 3.11988e-82 -6.06256e-82)
(2.65469e-84 1.87708e-84 -3.6488e-84)
(1.60486e-86 1.13438e-86 -2.20583e-86)
(9.70757e-89 6.85945e-89 -1.33428e-88)
(5.85706e-91 4.13735e-91 -8.05035e-91)
(3.51679e-93 2.48347e-93 -4.83373e-93)
(1.96533e-75 1.39256e-75 -2.70129e-75)
(1.16501e-77 8.25343e-78 -1.60127e-77)
(6.86146e-80 4.86006e-80 -9.43087e-80)
(4.03287e-82 2.85593e-82 -5.54306e-82)
(2.37293e-84 1.68003e-84 -3.26153e-84)
(1.40024e-86 9.91103e-87 -1.92459e-86)
(8.29083e-89 5.86663e-89 -1.13955e-88)
(4.92352e-91 3.48286e-91 -6.76724e-91)
(2.92928e-93 2.0715e-93 -4.02621e-93)
(1.74352e-95 1.23258e-95 -2.39641e-95)
(9.22242e-78 6.53882e-78 -1.2676e-77)
(5.63455e-80 3.99427e-80 -7.74452e-80)
(3.40468e-82 2.41313e-82 -4.67964e-82)
(2.03966e-84 1.44538e-84 -2.80345e-84)
(1.21439e-86 8.60406e-87 -1.66915e-86)
(7.20164e-89 5.10137e-89 -9.89844e-89)
(4.26125e-91 3.01784e-91 -5.85697e-91)
(2.51895e-93 1.7835e-93 -3.46222e-93)
(1.48864e-95 1.05373e-95 -2.0461e-95)
(8.79718e-98 6.22537e-98 -1.20915e-97)
(3.6599e-73 2.58883e-73 -5.03043e-73)
(2.21891e-75 1.56899e-75 -3.04983e-75)
(1.39949e-77 9.89186e-78 -1.92355e-77)
(8.97969e-80 6.34457e-80 -1.23423e-79)
(5.77232e-82 4.07694e-82 -7.93388e-82)
(3.68464e-84 2.60158e-84 -5.06443e-84)
(2.32539e-86 1.64137e-86 -3.19618e-86)
(1.44846e-88 1.0221e-88 -1.99086e-88)
(8.90236e-91 6.28022e-91 -1.2236e-90)
(5.40104e-93 3.8092e-93 -7.42357e-93)
(2.38067e-75 1.68538e-75 -3.27216e-75)
(1.39763e-77 9.89241e-78 -1.921e-77)
(8.29675e-80 5.87097e-80 -1.14036e-79)
(4.99129e-82 3.53089e-82 -6.86038e-82)
(3.03856e-84 2.1488e-84 -4.17641e-84)
(1.86525e-86 1.31861e-86 -2.56374e-86)
(1.14975e-88 8.12516e-89 -1.58029e-88)
(7.08877e-91 5.00791e-91 -9.74331e-91)
(4.35797e-93 3.07774e-93 -5.9899e-93)
(2.66528e-95 1.88175e-95 -3.66336e-95)
(1.27523e-77 9.0342e-78 -1.75277e-77)
(7.71548e-80 5.46499e-80 -1.06047e-79)
(4.63618e-82 3.28327e-82 -6.37229e-82)
(2.77919e-84 1.96776e-84 -3.81991e-84)
(1.66729e-86 1.18022e-86 -2.29165e-86)
(1.00283e-88 7.09679e-89 -1.37836e-88)
(6.05055e-91 4.2806e-91 -8.3163e-91)
(3.66037e-93 2.58882e-93 -5.03107e-93)
(2.21789e-95 1.56812e-95 -3.04842e-95)
(1.34403e-97 9.49979e-98 -1.84733e-97)
(6.11165e-80 4.33254e-80 -8.40029e-80)
(3.80972e-82 2.70023e-82 -5.23635e-82)
(2.3478e-84 1.66377e-84 -3.22698e-84)
(1.43393e-86 1.01598e-86 -1.9709e-86)
(8.701e-89 6.16371e-89 -1.19593e-88)
(5.25702e-91 3.72326e-91 -7.22562e-91)
(3.1682e-93 2.24336e-93 -4.3546e-93)
(1.90694e-95 1.34995e-95 -2.62104e-95)
(1.14718e-97 8.11894e-98 -1.57677e-97)
(6.89912e-100 4.88136e-100 -9.48264e-100)
(1.74838e-75 1.23644e-75 -2.38447e-75)
(1.08284e-77 7.65505e-78 -1.47656e-77)
(6.97648e-80 4.92998e-80 -9.51148e-80)
(4.57145e-82 3.22919e-82 -6.23151e-82)
(2.9998e-84 2.11823e-84 -4.08845e-84)
(1.95384e-86 1.37919e-86 -2.66245e-86)
(1.2576e-88 8.87455e-89 -1.71341e-88)
(7.98569e-91 5.63371e-91 -1.08783e-90)
(5.00143e-93 3.52743e-93 -6.81193e-93)
(3.09087e-95 2.17937e-95 -4.20905e-95)
(1.16358e-77 8.2358e-78 -1.58663e-77)
(6.97224e-80 4.93397e-80 -9.50565e-80)
(4.22338e-82 2.98796e-82 -5.75705e-82)
(2.592e-84 1.83323e-84 -3.53267e-84)
(1.60937e-86 1.13787e-86 -2.19307e-86)
(1.00734e-88 7.11971e-89 -1.37246e-88)
(6.32935e-91 4.47194e-91 -8.6221e-91)
(3.97657e-93 2.80866e-93 -5.41614e-93)
(2.49033e-95 1.75837e-95 -3.3913e-95)
(1.55097e-97 1.09478e-97 -2.11174e-97)
(6.36778e-80 4.51034e-80 -8.6815e-80)
(3.93095e-82 2.78385e-82 -5.35839e-82)
(2.40918e-84 1.70584e-84 -3.28349e-84)
(1.47251e-86 1.0424e-86 -2.00657e-86)
(9.00433e-89 6.3727e-89 -1.22681e-88)
(5.51878e-91 3.90479e-91 -7.51793e-91)
(3.39213e-93 2.39939e-93 -4.62015e-93)
(2.09e-95 1.47789e-95 -2.84616e-95)
(1.2894e-97 9.11474e-98 -1.75561e-97)
(7.95358e-100 5.6206e-100 -1.08276e-99)
(3.11578e-82 2.20841e-82 -4.24718e-82)
(1.98101e-84 1.40386e-84 -2.69992e-84)
(1.24472e-86 8.8193e-87 -1.69616e-86)
(7.74831e-89 5.48897e-89 -1.05568e-88)
(4.79037e-91 3.39289e-91 -6.52563e-91)
(2.94799e-93 2.08755e-93 -4.01522e-93)
(1.80909e-95 1.28078e-95 -2.46361e-95)
(1.10848e-97 7.84572e-98 -1.50927e-97)
(6.78655e-100 4.8022e-100 -9.23889e-100)
(4.15265e-102 2.93762e-102 -5.65229e-102)
)
;

boundaryField
{
    inlet
    {
        type            zeroGradient;
    }
    outlet
    {
        type            zeroGradient;
    }
    bottom
    {
        type            zeroGradient;
    }
    top
    {
        type            symmetryPlane;
    }
    side1
    {
        type            symmetryPlane;
    }
    side2
    {
        type            symmetryPlane;
    }
    procBoundary19to11
    {
        type            processor;
        value           nonuniform List<vector> 
50
(
(2.51784e-64 1.7797e-64 -3.4607e-64)
(1.39969e-66 9.89081e-67 -1.92383e-66)
(7.71664e-69 5.45149e-69 -1.06063e-68)
(4.22193e-71 2.98185e-71 -5.80292e-71)
(2.294e-73 1.61978e-73 -3.15304e-73)
(1.23879e-75 8.74465e-76 -1.70267e-75)
(6.65308e-78 4.69517e-78 -9.14446e-78)
(3.55597e-80 2.50878e-80 -4.88757e-80)
(1.89258e-82 1.33485e-82 -2.6013e-82)
(1.00351e-84 7.07562e-85 -1.3793e-84)
(4.38524e-66 3.09884e-66 -6.02738e-66)
(2.4938e-68 1.76178e-68 -3.42765e-68)
(1.40574e-70 9.9284e-71 -1.93214e-70)
(7.85999e-73 5.54989e-73 -1.08033e-72)
(4.36254e-75 3.07956e-75 -5.99619e-75)
(2.40539e-77 1.69754e-77 -3.30614e-77)
(1.31848e-79 9.3023e-80 -1.81222e-79)
(7.1895e-82 5.07098e-82 -9.88176e-82)
(3.90229e-84 2.75159e-84 -5.36358e-84)
(2.10936e-86 1.48689e-86 -2.89926e-86)
(3.93129e-68 2.77734e-68 -5.40344e-68)
(2.28613e-70 1.61465e-70 -3.14222e-70)
(1.31714e-72 9.30021e-73 -1.81036e-72)
(7.52374e-75 5.31109e-75 -1.03412e-74)
(4.26428e-77 3.00941e-77 -5.86112e-77)
(2.39995e-79 1.69326e-79 -3.29866e-79)
(1.34224e-81 9.46742e-82 -1.84486e-81)
(7.46491e-84 5.26386e-84 -1.02603e-83)
(4.13103e-86 2.91211e-86 -5.67797e-86)
(2.27589e-88 1.60385e-88 -3.12814e-88)
(2.40715e-70 1.70014e-70 -3.30856e-70)
(1.43075e-72 1.01025e-72 -1.96653e-72)
(8.42147e-75 5.9448e-75 -1.15751e-74)
(4.91239e-77 3.4668e-77 -6.75193e-77)
(2.84198e-79 2.00514e-79 -3.90622e-79)
(1.63201e-81 1.15114e-81 -2.24314e-81)
(9.30945e-84 6.56468e-84 -1.27956e-83)
(5.27881e-86 3.72136e-86 -7.25557e-86)
(2.97738e-88 2.09831e-88 -4.09231e-88)
(1.67126e-90 1.17745e-90 -2.2971e-90)
(1.13534e-72 8.01663e-73 -1.54854e-72)
(6.89468e-75 4.86703e-75 -9.40245e-75)
(4.14451e-77 2.92489e-77 -5.65105e-77)
(2.46791e-79 1.74122e-79 -3.36446e-79)
(1.45692e-81 1.02765e-81 -1.98586e-81)
(8.53379e-84 6.01778e-84 -1.16302e-83)
(4.96355e-86 3.49919e-86 -6.76341e-86)
(2.86879e-88 2.02186e-88 -3.90842e-88)
(1.64871e-90 1.16162e-90 -2.24583e-90)
(9.42677e-93 6.63967e-93 -1.28388e-92)
)
;
    }
    procBoundary19to18
    {
        type            processor;
        value           nonuniform List<vector> 
20
(
(1.98304e-64 1.40322e-64 -2.72562e-64)
(8.08561e-67 5.72568e-67 -1.11134e-66)
(3.19941e-69 2.26732e-69 -4.3975e-69)
(1.25778e-71 8.92011e-72 -1.72879e-71)
(3.45079e-66 2.44124e-66 -4.74301e-66)
(1.43814e-68 1.01818e-68 -1.97668e-68)
(5.81482e-71 4.12e-71 -7.9923e-71)
(2.33559e-73 1.6561e-73 -3.21019e-73)
(3.09098e-68 2.18619e-68 -4.24846e-68)
(1.3162e-70 9.3165e-71 -1.80908e-70)
(5.43604e-73 3.85088e-73 -7.47167e-73)
(2.23006e-75 1.58101e-75 -3.06516e-75)
(1.89109e-70 1.33722e-70 -2.59925e-70)
(8.22416e-73 5.82009e-73 -1.13039e-72)
(3.46809e-75 2.45633e-75 -4.76679e-75)
(1.45251e-77 1.02959e-77 -1.99643e-77)
(8.91236e-73 6.30058e-73 -1.21561e-72)
(3.95701e-75 2.79971e-75 -5.39634e-75)
(1.70315e-77 1.20605e-77 -2.32229e-77)
(7.27992e-80 5.15938e-80 -9.92477e-80)
)
;
    }
    procBoundary19to20
    {
        type            processor;
        value           nonuniform List<vector> 
20
(
(4.29256e-90 3.03094e-90 -5.89999e-90)
(3.04281e-92 2.15052e-92 -4.18225e-92)
(1.80272e-94 1.27513e-94 -2.47779e-94)
(9.65198e-97 6.83231e-97 -1.32664e-96)
(9.24684e-92 6.52763e-92 -1.27095e-91)
(6.68337e-94 4.72252e-94 -9.1861e-94)
(4.03349e-96 2.85249e-96 -5.54392e-96)
(2.19899e-98 1.55633e-98 -3.02245e-98)
(1.0222e-93 7.21437e-94 -1.40498e-93)
(7.5315e-96 5.32072e-96 -1.03518e-95)
(4.62923e-98 3.27319e-98 -6.36274e-98)
(2.56934e-100 1.81813e-100 -3.53148e-100)
(7.68806e-96 5.42475e-96 -1.0567e-95)
(5.77254e-98 4.07724e-98 -7.93419e-98)
(3.61249e-100 2.5538e-100 -4.96526e-100)
(2.04064e-102 1.44377e-102 -2.8048e-102)
(4.44027e-98 3.13237e-98 -6.04612e-98)
(3.39671e-100 2.39865e-100 -4.62435e-100)
(2.16378e-102 1.52937e-102 -2.94533e-102)
(1.24374e-104 8.79803e-105 -1.69269e-104)
)
;
    }
    procBoundary19to27
    {
        type            processor;
        value           nonuniform List<vector> 
50
(
(4.08915e-77 2.90222e-77 -5.62042e-77)
(2.54627e-79 1.80667e-79 -3.49978e-79)
(1.65476e-81 1.17379e-81 -2.27442e-81)
(1.0872e-83 7.71004e-84 -1.49432e-83)
(7.09807e-86 5.03259e-86 -9.75608e-86)
(4.57109e-88 3.24028e-88 -6.28282e-88)
(2.89747e-90 2.05352e-90 -3.98248e-90)
(1.80829e-92 1.28135e-92 -2.48544e-92)
(1.11257e-94 7.88222e-95 -1.5292e-94)
(6.75879e-97 4.7875e-97 -9.28976e-97)
(7.80598e-79 5.53938e-79 -1.07291e-78)
(4.9636e-81 3.52133e-81 -6.82233e-81)
(3.29387e-83 2.33612e-83 -4.52732e-83)
(2.20906e-85 1.56634e-85 -3.03628e-85)
(1.4715e-87 1.04314e-87 -2.02253e-87)
(9.66385e-90 6.84931e-90 -1.32827e-89)
(6.24398e-92 4.42461e-92 -8.58217e-92)
(3.97045e-94 2.81302e-94 -5.45727e-94)
(2.48805e-96 1.76243e-96 -3.41975e-96)
(1.53887e-98 1.08986e-98 -2.11513e-98)
(7.6594e-81 5.43458e-81 -1.05276e-80)
(4.97197e-83 3.52674e-83 -6.83382e-83)
(3.36811e-85 2.38841e-85 -4.62937e-85)
(2.3051e-87 1.6342e-87 -3.1683e-87)
(1.56621e-89 1.11011e-89 -2.15271e-89)
(1.04868e-91 7.43144e-92 -1.44139e-91)
(6.90506e-94 4.8923e-94 -9.4908e-94)
(4.4728e-96 3.16843e-96 -6.14773e-96)
(2.8541e-98 2.0214e-98 -3.92287e-98)
(1.79693e-100 1.27243e-100 -2.46982e-100)
(5.12433e-83 3.63534e-83 -7.04324e-83)
(3.39441e-85 2.40738e-85 -4.66551e-85)
(2.34641e-87 1.66364e-87 -3.22507e-87)
(1.63814e-89 1.16117e-89 -2.25157e-89)
(1.13491e-91 8.04289e-92 -1.55991e-91)
(7.74488e-94 5.48751e-94 -1.06451e-93)
(5.19528e-96 3.68033e-96 -7.14076e-96)
(3.42705e-98 2.42727e-98 -4.71038e-98)
(2.22614e-100 1.57641e-100 -3.05977e-100)
(1.4263e-102 1.00982e-102 -1.96041e-102)
(2.63709e-85 1.87055e-85 -3.5944e-85)
(1.782e-87 1.26364e-87 -2.42849e-87)
(1.2566e-89 8.90815e-90 -1.7122e-89)
(8.94664e-92 6.34074e-92 -1.21883e-91)
(6.31838e-94 4.47701e-94 -8.60631e-94)
(4.39341e-96 3.11239e-96 -5.98329e-96)
(3.00165e-98 2.12603e-98 -4.08721e-98)
(2.01591e-100 1.42758e-100 -2.74451e-100)
(1.33276e-102 9.43619e-103 -1.81415e-102)
(8.68788e-105 6.15004e-105 -1.1824e-104)
)
;
    }
}


// ************************************************************************* //
