/*--------------------------------*- C++ -*----------------------------------*\
| =========                 |                                                 |
| \\      /  F ield         | OpenFOAM: The Open Source CFD Toolbox           |
|  \\    /   O peration     | Version:  2.4.0                                 |
|   \\  /    A nd           | Web:      www.OpenFOAM.org                      |
|    \\/     M anipulation  |                                                 |
\*---------------------------------------------------------------------------*/
FoamFile
{
    version     2.0;
    format      ascii;
    class       volScalarField;
    location    "0.01";
    object      alpha;
}
// * * * * * * * * * * * * * * * * * * * * * * * * * * * * * * * * * * * * * //

dimensions      [0 0 0 0 0 0 0];

internalField   nonuniform List<scalar> 
40
(
1.79863e-129
7.59818e-132
3.2098e-134
1.35596e-136
5.72806e-139
1.03232e-130
4.43655e-133
1.90608e-135
8.18665e-138
3.51511e-140
3.07394e-132
1.344e-134
5.87274e-137
2.56465e-139
1.11934e-141
6.23919e-134
2.77471e-136
1.23288e-138
5.47328e-141
2.42775e-143
4.10701e-131
1.7656e-133
7.58793e-136
3.26006e-138
1.40022e-140
2.39757e-132
1.04825e-134
4.58029e-137
2.00018e-139
8.72954e-142
7.26168e-134
3.22906e-136
1.43459e-138
6.36801e-141
2.82429e-143
1.49887e-135
6.77742e-138
3.06095e-140
1.38088e-142
6.2226e-145
)
;

boundaryField
{
    inlet
    {
        type            zeroGradient;
    }
    outlet
    {
        type            zeroGradient;
    }
    bottom
    {
        type            fixedValue;
        value           uniform 0;
    }
    top
    {
        type            symmetryPlane;
    }
    side1
    {
        type            symmetryPlane;
    }
    side2
    {
        type            symmetryPlane;
    }
    procBoundary11to10
    {
        type            processor;
        value           nonuniform List<scalar> 8(1.0965e-125 6.28916e-127 1.87147e-128 3.79609e-130 2.50207e-127 1.4597e-128 4.41823e-130 9.11395e-132);
    }
    procBoundary11to12
    {
        type            processor;
        value           uniform 0;
    }
    procBoundary11to27
    {
        type            processor;
        value           nonuniform List<scalar> 10(9.09571e-149 3.83837e-151 1.61978e-153 6.83544e-156 2.88449e-158 -1.51968e-151 -4.82922e-154 -1.36983e-156 -2.9625e-159 -6.14215e-163);
    }
    procBoundary11to75
    {
        type            processor;
        value           nonuniform List<scalar> 
20
(
4.63892e-133
1.95887e-135
8.27171e-138
3.49289e-140
1.47491e-142
4.89201e-136
4.12932e-138
2.61414e-140
1.47105e-142
7.7605e-145
5.15892e-139
6.53076e-141
5.5116e-143
3.87624e-145
2.45344e-147
5.44038e-142
9.18195e-144
9.68547e-146
8.17328e-148
6.03487e-150
)
;
    }
}


// ************************************************************************* //
