/*--------------------------------*- C++ -*----------------------------------*\
| =========                 |                                                 |
| \\      /  F ield         | OpenFOAM: The Open Source CFD Toolbox           |
|  \\    /   O peration     | Version:  2.4.0                                 |
|   \\  /    A nd           | Web:      www.OpenFOAM.org                      |
|    \\/     M anipulation  |                                                 |
\*---------------------------------------------------------------------------*/
FoamFile
{
    version     2.0;
    format      ascii;
    class       volScalarField;
    location    "0.01";
    object      p;
}
// * * * * * * * * * * * * * * * * * * * * * * * * * * * * * * * * * * * * * //

dimensions      [1 -1 -2 0 0 0 0];

internalField   nonuniform List<scalar> 
40
(
6.22153e+15
5.35441e+15
4.66311e+15
3.78328e+15
2.75101e+15
6.77485e+15
5.57775e+15
4.36846e+15
3.35218e+15
2.80863e+15
6.54516e+15
5.58818e+15
4.45229e+15
3.49362e+15
2.90529e+15
5.77422e+15
4.94474e+15
3.91987e+15
3.0683e+15
2.60994e+15
6.6511e+15
5.15613e+15
3.86062e+15
2.86552e+15
2.40198e+15
6.27263e+15
4.92332e+15
3.80095e+15
2.97725e+15
2.50076e+15
6.05201e+15
4.58075e+15
3.75541e+15
3.11339e+15
2.54994e+15
5.29998e+15
4.29656e+15
3.49561e+15
2.8916e+15
2.41864e+15
)
;

boundaryField
{
    inlet
    {
        type            zeroGradient;
    }
    outlet
    {
        type            fixedValue;
        value           nonuniform 0();
    }
    bottom
    {
        type            zeroGradient;
    }
    top
    {
        type            symmetryPlane;
    }
    side1
    {
        type            symmetryPlane;
    }
    side2
    {
        type            symmetryPlane;
    }
    procBoundary11to10
    {
        type            processor;
        value           nonuniform List<scalar> 8(8.04443e+15 8.16818e+15 7.77709e+15 6.72847e+15 9.0986e+15 7.89126e+15 7.81377e+15 6.43938e+15);
    }
    procBoundary11to12
    {
        type            processor;
        value           nonuniform List<scalar> 8(2.41593e+15 2.42297e+15 2.50951e+15 2.26959e+15 2.125e+15 2.22098e+15 2.19905e+15 2.03788e+15);
    }
    procBoundary11to27
    {
        type            processor;
        value           nonuniform List<scalar> 10(4.29026e+15 3.45266e+15 2.5979e+15 2.06521e+15 1.74541e+15 4.02083e+15 3.29229e+15 2.68176e+15 2.26305e+15 1.92341e+15);
    }
    procBoundary11to75
    {
        type            processor;
        value           nonuniform List<scalar> 
20
(
6.01582e+15
4.51281e+15
3.19221e+15
2.58621e+15
2.26149e+15
5.77185e+15
4.40387e+15
3.2975e+15
2.56758e+15
2.24139e+15
5.37118e+15
4.16982e+15
3.3152e+15
2.70014e+15
2.27501e+15
4.80709e+15
3.85458e+15
3.17508e+15
2.61917e+15
2.15587e+15
)
;
    }
}


// ************************************************************************* //
