/*--------------------------------*- C++ -*----------------------------------*\
| =========                 |                                                 |
| \\      /  F ield         | OpenFOAM: The Open Source CFD Toolbox           |
|  \\    /   O peration     | Version:  2.4.0                                 |
|   \\  /    A nd           | Web:      www.OpenFOAM.org                      |
|    \\/     M anipulation  |                                                 |
\*---------------------------------------------------------------------------*/
FoamFile
{
    version     2.0;
    format      ascii;
    class       volVectorField;
    location    "0.01";
    object      Ub;
}
// * * * * * * * * * * * * * * * * * * * * * * * * * * * * * * * * * * * * * //

dimensions      [0 1 -1 0 0 0 0];

internalField   nonuniform List<vector> 
200
(
(3.54294 -5.66761 1.56718)
(3.88958 -0.741995 2.50152)
(4.91541 -0.838546 1.54187)
(8.35019 -1.06462 -0.588749)
(8.38141 2.01843 0.862087)
(7.81643 -0.521578 0.698277)
(7.50987 -0.22627 -1.13854)
(9.84501 4.13857 2.59529)
(6.71107 -0.330178 -1.24435)
(11.8521 9.52927 13.683)
(3.90567 -2.30913 -0.518075)
(4.49397 -0.424835 0.270242)
(6.54461 0.166648 0.195179)
(6.31477 0.185227 0.532249)
(7.00852 -1.69288 0.326186)
(7.47908 -1.48976 0.144457)
(7.72769 -1.68713 0.781258)
(6.47114 2.04115 0.414044)
(10.1054 1.64232 9.29716)
(-3.25902 24.5877 10.3284)
(5.61824 -0.340004 3.91267)
(0.947271 -6.83626 -1.0448)
(4.28126 -1.49833 -2.74783)
(4.8942 -1.03386 -0.878117)
(4.91701 -0.948898 0.416199)
(6.56707 -1.58459 0.804361)
(4.87639 2.93471 1.17516)
(7.34815 -0.423286 3.60376)
(-0.229129 16.5002 5.24166)
(6.63469 -1.9509 0.443832)
(5.87824 -1.3152 0.363139)
(5.32884 -1.52705 1.25692)
(3.65661 -1.70296 -1.12308)
(3.60714 1.03773 -1.77603)
(4.18287 0.14253 -7.06805)
(4.91622 -0.803176 -1.74024)
(6.67638 -0.430537 1.15265)
(4.22038 5.65257 1.54435)
(6.59015 -1.12835 0.589127)
(9.26973 0.342311 0.461918)
(4.24553 -3.2598 -10.1035)
(5.3276 -0.364607 2.05726)
(9.01784 -0.400648 2.19125)
(7.7079 -0.818669 1.46859)
(7.23601 -0.882668 0.367368)
(7.07484 0.0272046 8.8409)
(9.71146 -6.22447 0.571717)
(6.31441 -2.06766 -1.29404)
(6.77448 0.983632 1.19912)
(6.21076 -0.520378 -0.915814)
(4.61659 0.194487 1.77545)
(4.70581 -2.94376 -2.92166)
(4.84786 -0.370403 0.42729)
(6.58117 0.262216 0.654553)
(4.95858 -2.40149 -0.983336)
(7.32044 -2.50499 1.32969)
(7.00383 -1.55961 0.691296)
(5.69303 -1.7393 1.83632)
(4.33078 4.26018 1.23505)
(7.37036 0.676261 -0.32521)
(5.07833 -2.69857 2.03886)
(5.36645 -1.07159 5.92901)
(4.599 0.877446 -1.09975)
(3.12975 -0.806079 -3.25247)
(5.10532 0.357051 -5.31644)
(1.89211 -5.46198 -8.29899)
(6.65969 -0.964856 2.97926)
(6.66002 1.15559 2.39732)
(6.96688 -0.424676 1.57914)
(7.67973 -0.557135 1.76331)
(5.25675 -1.23997 -0.141849)
(6.1786 -1.68832 0.144467)
(6.16564 -0.612401 0.681292)
(6.03705 0.290534 -2.85436)
(5.29178 -0.42819 -2.16003)
(5.47584 0.279456 -2.53512)
(1.23972 -8.7922 -16.6614)
(7.33447 0.947932 5.20991)
(7.84543 0.645268 2.30531)
(7.33365 0.108929 1.10174)
(5.69431 1.09702 0.760058)
(4.96436 -9.39168 -23.2786)
(5.25761 -0.901257 1.43362)
(5.25732 -0.452118 1.39421)
(4.78834 1.85208 -0.589788)
(5.24996 -5.20849 2.25782)
(7.94922 6.92636 0.449815)
(7.84066 -1.08323 1.34515)
(7.49213 -1.11282 0.658681)
(6.2577 4.3504 5.44015)
(7.17697 -2.69155 -2.17554)
(5.92832 0.791803 1.84898)
(5.50832 -7.00747 -8.6685)
(3.90984 -0.236894 -1.21355)
(6.62465 -2.93412 0.349307)
(2.96856 -0.542256 -9.49226)
(6.64697 -14.906 7.05345)
(8.73803 -1.09349 1.59898)
(7.37298 1.44836 2.3871)
(7.94821 1.65494 2.08105)
(5.76757 -0.117543 2.11244)
(6.92695 -1.3461 0.65709)
(5.54661 -0.237385 -1.00559)
(6.4905 0.987721 -2.34644)
(5.00363 -0.588749 -4.93239)
(6.50675 -0.585118 -1.3637)
(2.2724 -8.2124 -16.7167)
(3.76813 1.04956 2.91537)
(6.69188 0.0780132 1.33608)
(8.03465 -1.12884 1.10608)
(5.38402 -1.14849 2.47703)
(5.81646 -0.406736 -1.61414)
(5.19457 -1.89226 3.1349)
(6.06155 -2.79598 1.97647)
(6.77888 -0.489253 -1.84745)
(6.62307 -2.49771 -4.46331)
(4.97708 1.06811 -3.63125)
(2.03192 -11.9332 -18.2905)
(3.88124 -5.43041 1.32278)
(6.25351 0.461003 1.22114)
(7.44878 -0.208767 -0.937634)
(6.07148 -0.0697267 0.315141)
(4.96338 2.85066 -0.30088)
(5.5417 -0.5034 -2.06216)
(5.07428 -1.03245 0.452624)
(6.99937 -1.02836 -1.06844)
(5.24098 -0.0200093 0.969087)
(6.72347 0.328142 0.82321)
(6.20853 1.50882 2.07657)
(7.04188 1.16747 0.0675722)
(6.32636 -0.15572 0.554084)
(6.45556 -0.271104 -0.484948)
(5.79583 -0.656151 0.393732)
(5.77206 1.07178 -0.918873)
(5.46138 0.137859 -1.55152)
(4.72986 -8.03348 2.16901)
(5.30129 0.917764 2.13848)
(6.78815 0.206905 1.21931)
(6.68577 0.0723283 -0.690676)
(7.31508 2.11724 6.21626)
(5.61711 0.0619026 1.00445)
(6.14963 0.482917 0.206476)
(6.70476 1.17487 -1.88892)
(5.14724 -0.0955643 -0.628162)
(7.59422 2.25967 -6.14799)
(6.00889 -0.762653 -2.78473)
(5.41592 0.179997 -0.394957)
(4.39491 -0.0642444 -0.574176)
(5.22284 0.92807 4.4802)
(5.8518 0.0157258 -1.60031)
(5.06767 1.18229 1.23484)
(5.45705 -1.22618 2.14145)
(6.64636 0.971908 -3.28793)
(6.33137 0.648432 -0.102913)
(6.83624 -6.90737 -2.63995)
(5.56387 -0.230397 -1.39547)
(7.06141 -1.47333 -2.97029)
(5.2838 0.156406 1.51724)
(4.24491 0.253646 0.300544)
(4.62901 2.30351 5.12601)
(7.97905 5.30263 1.20111)
(7.67675 0.884671 -1.81499)
(8.75263 0.598387 -2.3924)
(9.27854 8.33366 -2.00503)
(6.11964 -1.89057 -7.33986)
(5.4133 -2.09877 -0.495796)
(5.92793 -2.2303 -0.314744)
(5.50081 -2.16134 0.496908)
(5.47522 -2.40344 -0.597872)
(5.74934 -0.496468 6.40298)
(5.63781 0.838217 -0.486836)
(6.78453 1.90662 -0.753138)
(5.7968 2.62522 -1.15308)
(5.09895 -0.445231 -1.80765)
(6.64675 -0.365633 -1.54445)
(5.54536 -2.55462 -1.53466)
(5.0511 -1.29269 -0.431588)
(4.37633 -1.50159 -1.373)
(3.9111 1.07899 8.91173)
(3.86233 0.461488 -0.511751)
(5.96484 1.89105 -0.146207)
(5.6252 0.742084 0.366353)
(6.09588 3.4492 -1.50212)
(4.7012 1.51344 0.682243)
(5.32451 -4.28008 -3.7397)
(4.39485 3.67573 -1.62181)
(7.6444 1.40633 -1.57909)
(4.52236 1.38273 0.370558)
(4.71516 0.710664 -1.06205)
(3.05589 4.5337 10.4291)
(5.09378 1.07417 0.37833)
(6.03122 2.19329 0.023374)
(6.33586 1.57448 0.66232)
(7.42098 -1.39618 -0.11359)
(4.9703 0.542906 4.99031)
(12.8008 -30.0747 -15.765)
(2.91682 2.62034 -6.47924)
(4.98949 3.26353 -0.92952)
(4.10374 3.74598 1.22789)
(5.11827 3.09023 -1.10797)
)
;

boundaryField
{
    inlet
    {
        type            fixedValue;
        value           nonuniform 0();
    }
    outlet
    {
        type            zeroGradient;
    }
    bottom
    {
        type            fixedValue;
        value           uniform (0 0 0);
    }
    top
    {
        type            symmetryPlane;
    }
    side1
    {
        type            symmetryPlane;
    }
    side2
    {
        type            symmetryPlane;
    }
    procBoundary11to3
    {
        type            processor;
        value           nonuniform List<vector> 
50
(
(7.02359 -2.16369 3.57618)
(10.3869 -2.91988 -1.20478)
(3.87748 26.9467 42.5202)
(2.25486 3.04656 2.98716)
(8.13955 0.594066 0.206669)
(6.85648 -0.0419077 -0.0389639)
(7.979 3.96408 1.41056)
(7.18559 1.00688 -3.1761)
(11.6105 13.6519 8.94792)
(2.9759 0.651411 -2.07291)
(3.62488 -3.54829 1.35942)
(2.9217 0.487241 7.29932)
(0.873291 -0.522791 5.45678)
(9.55023 0.098423 2.37313)
(7.41527 -1.30704 0.843268)
(6.93845 -2.51382 0.8684)
(6.99196 -2.44864 0.365282)
(7.98807 -0.383579 -0.466114)
(5.54307 -1.5964 -1.95274)
(11.6491 10.3625 11.3491)
(4.06975 -4.7084 -7.65209)
(3.46273 3.84923 1.88689)
(5.16628 -13.0153 9.97968)
(7.47082 -4.04192 1.96057)
(6.61104 -1.28166 0.913406)
(7.30447 3.5926 -0.157178)
(6.69901 -4.82269 -0.0424428)
(6.03955 -1.92228 0.230034)
(7.36414 3.08366 3.70444)
(5.889 -3.17547 -0.79477)
(6.45352 0.478012 1.48093)
(6.37459 -0.169682 0.999116)
(5.04206 -0.933968 0.804491)
(6.45004 -1.71525 1.25152)
(6.2439 -1.78764 -0.100427)
(6.63214 -7.89519 3.85674)
(5.24232 -1.02319 -0.561677)
(5.37489 0.810731 0.716301)
(5.85244 0.0993393 0.534218)
(4.8757 2.94135 2.39109)
(8.81812 -1.51969 2.53588)
(13.2745 13.0374 3.92407)
(8.04876 1.05556 -0.499401)
(7.42301 -1.15918 -4.80687)
(4.39956 -2.96332 0.0274051)
(6.46349 -1.04014 0.238858)
(6.42794 0.913777 2.4479)
(1.64699 -2.41492 -0.551211)
(4.42586 -0.234284 -0.422954)
(5.31782 -0.438195 0.0486451)
)
;
    }
    procBoundary11to10
    {
        type            processor;
        value           nonuniform List<vector> 
20
(
(5.83606 -7.74373 22.7988)
(5.89374 -1.63629 1.03737)
(4.57907 -1.96568 0.0388223)
(5.36293 -0.739362 0.480095)
(4.00161 -0.535026 -1.07336)
(4.19558 -0.0371426 0.994198)
(5.12823 -0.757489 0.504394)
(8.20841 1.01265 -8.98488)
(6.38561 -1.39112 -4.21241)
(6.51613 0.235085 1.99028)
(6.03973 -0.490438 1.77773)
(5.76965 -1.11328 2.86751)
(7.53967 0.2922 0.180361)
(7.12949 -0.415731 0.292407)
(6.41973 0.662405 1.45546)
(5.64602 1.47114 1.43509)
(7.58364 0.131228 0.33952)
(5.80612 1.6891 0.21316)
(5.49711 0.86575 0.196259)
(4.68446 0.969639 0.423478)
)
;
    }
    procBoundary11to12
    {
        type            processor;
        value           nonuniform List<vector> 
20
(
(2.51058 -2.85415 1.45879)
(8.76733 7.81056 -0.454925)
(8.12514 -3.03427 0.636995)
(7.87872 0.855766 0.513359)
(8.69858 0.443013 1.06584)
(7.05739 -0.859891 0.174182)
(7.34929 0.00208507 1.66298)
(7.91931 0.546423 1.54998)
(7.98198 2.80734 3.12897)
(9.36488 1.82347 1.46244)
(6.32286 -0.346474 1.30967)
(7.51557 -1.21475 0.967081)
(7.70313 3.10122 1.93707)
(6.09075 3.50319 1.9995)
(0.612724 9.92362 42.9577)
(5.68373 0.516918 0.459601)
(6.75375 -2.3787 0.0699736)
(2.96784 5.76649 29.122)
(7.9598 2.90253 -1.04585)
(5.37219 8.22556 0.71672)
)
;
    }
    procBoundary11to19
    {
        type            processor;
        value           nonuniform List<vector> 
50
(
(6.67989 0.665983 0.1116)
(5.155 -0.625031 0.140857)
(4.65489 0.375276 -1.0687)
(4.59311 0.156417 -0.121714)
(5.44546 -0.142863 -0.798622)
(5.1433 -0.116291 0.24831)
(5.10456 6.74545 -1.56869)
(7.01937 0.0887002 0.370941)
(6.97543 0.619149 0.597497)
(6.5667 -0.298179 0.470738)
(7.1724 0.175356 -0.200937)
(5.10995 -1.85411 0.547343)
(6.23625 -0.198551 1.63557)
(7.21599 0.906628 -1.19286)
(6.75789 -0.14309 -0.984122)
(6.74713 -0.105727 -0.573206)
(5.96149 0.0776395 -0.643543)
(5.76998 0.419597 2.17554)
(7.06621 -1.52981 -0.907496)
(6.80587 -0.0279718 4.35122)
(4.6366 -0.172307 -0.422658)
(5.33871 -1.94599 1.8358)
(7.29922 0.851353 -19.166)
(6.24077 -0.277324 2.73856)
(9.60596 0.165635 1.82535)
(7.08754 -0.0812731 -1.21186)
(6.82769 -0.94844 -0.357406)
(5.10925 -2.61901 -6.75812)
(4.41951 0.230527 2.95162)
(3.90719 -20.1404 -0.635589)
(7.18805 -2.34898 -4.09123)
(7.49768 0.470074 -6.73752)
(6.20561 -3.18454 1.45046)
(9.85979 2.39424 -33.212)
(4.74811 2.10457 0.76955)
(6.7254 0.360661 1.51018)
(6.20179 0.13544 1.38296)
(6.02408 -0.45492 0.328774)
(5.38908 0.69479 1.13649)
(5.79826 0.259521 0.820169)
(5.53808 -1.26387 0.183526)
(6.27048 -0.127358 0.669208)
(8.32243 -0.92982 -2.20145)
(6.03645 -1.10422 2.12992)
(3.97318 -4.52275 -0.958426)
(2.88851 -0.0773642 -3.64507)
(-4.64694 4.67863 -2.37267)
(0.792255 0.255209 2.45268)
(1.363 -0.0444984 0.966602)
(3.25416 3.25994 0.179245)
)
;
    }
}


// ************************************************************************* //
