/*--------------------------------*- C++ -*----------------------------------*\
| =========                 |                                                 |
| \\      /  F ield         | OpenFOAM: The Open Source CFD Toolbox           |
|  \\    /   O peration     | Version:  2.4.0                                 |
|   \\  /    A nd           | Web:      www.OpenFOAM.org                      |
|    \\/     M anipulation  |                                                 |
\*---------------------------------------------------------------------------*/
FoamFile
{
    version     2.0;
    format      ascii;
    class       volScalarField;
    location    "0.16";
    object      nut;
}
// * * * * * * * * * * * * * * * * * * * * * * * * * * * * * * * * * * * * * //

dimensions      [0 2 -1 0 0 0 0];

internalField   nonuniform List<scalar> 
200
(
1.30133e+11
1.58982e+11
2.02853e+11
2.41532e+11
2.94109e+11
3.30304e+11
3.90051e+11
5.0346e+11
6.47082e+11
1.09109e+12
1.64691e+11
1.76718e+11
1.69029e+11
2.1731e+11
3.14815e+11
2.41582e+11
3.70704e+11
4.00818e+11
6.85694e+11
1.34079e+12
2.1006e+11
2.33794e+11
2.17388e+11
2.23461e+11
1.89046e+11
2.13013e+11
2.19986e+11
3.67268e+11
5.12388e+11
1.28453e+12
2.77831e+11
2.26916e+11
2.08737e+11
1.77191e+11
1.98823e+11
2.18828e+11
2.58647e+11
2.84197e+11
3.76671e+11
3.92306e+11
1.38593e+11
1.75805e+11
1.52936e+11
3.03195e+11
2.58628e+11
4.36165e+11
5.33245e+11
6.80483e+11
1.35191e+12
1.31553e+12
7.37669e+10
1.06847e+11
2.17114e+11
2.07935e+11
2.55198e+11
1.29792e+11
4.19687e+11
4.60724e+11
5.87948e+11
8.6528e+11
1.87066e+11
1.09944e+11
1.0352e+11
1.38228e+11
1.56812e+11
2.0607e+11
2.70919e+11
3.37828e+11
3.65179e+11
4.14041e+11
1.26958e+11
2.10017e+11
8.67379e+10
1.51675e+11
1.14831e+11
1.53129e+11
1.71726e+11
1.95757e+11
2.3014e+11
3.02318e+11
8.73646e+10
1.73948e+11
2.5159e+11
1.70872e+11
3.95927e+11
3.5543e+11
5.85087e+11
1.26301e+12
2.20544e+12
2.13957e+12
1.95104e+11
1.0007e+11
9.1469e+10
3.40721e+11
8.33911e+10
4.06011e+11
3.07719e+11
5.40424e+11
6.58504e+11
8.76198e+11
8.17736e+10
2.72936e+11
1.30582e+11
5.85372e+10
3.34868e+11
1.02074e+11
4.35338e+11
2.56593e+11
4.27893e+11
3.75792e+11
2.51328e+11
9.50816e+10
2.81201e+11
1.78834e+11
1.2727e+11
2.29443e+11
1.4706e+11
3.33537e+11
3.37567e+11
4.59778e+11
2.98349e+11
1.46002e+11
2.04591e+11
1.22909e+11
1.22965e+11
2.08422e+11
2.51338e+11
4.41951e+11
6.43063e+11
1.5235e+12
1.09576e+11
2.33991e+11
1.13865e+11
1.18526e+11
1.92088e+11
8.23007e+10
2.17195e+11
2.28791e+11
2.79992e+11
5.22305e+11
2.14696e+11
1.47965e+11
3.14942e+11
1.42648e+11
1.09981e+11
2.50577e+11
1.01105e+11
3.77734e+11
1.47621e+11
1.96452e+11
2.29162e+11
3.11956e+11
1.55898e+11
2.67252e+11
2.46517e+11
1.19938e+11
2.69396e+11
1.82216e+11
4.4271e+11
3.19943e+11
1.09726e+11
1.96655e+11
2.5621e+11
2.86571e+11
1.5623e+11
1.10758e+11
9.85026e+10
8.22257e+10
1.31579e+11
2.53793e+11
1.774e+11
1.13591e+11
2.87133e+11
2.15695e+11
1.55699e+11
2.02242e+11
6.89668e+10
1.39368e+11
7.19494e+10
1.12726e+11
4.9468e+10
1.83731e+11
2.5447e+11
2.77829e+11
1.94507e+11
1.5559e+11
2.56539e+11
1.08945e+11
3.37163e+11
1.03177e+11
3.70772e+11
3.70635e+11
3.95348e+11
2.14157e+11
2.57427e+11
2.81132e+11
1.15762e+11
3.01177e+11
1.22718e+11
4.21985e+11
)
;

boundaryField
{
    inlet
    {
        type            calculated;
        value           nonuniform 0();
    }
    outlet
    {
        type            calculated;
        value           nonuniform 0();
    }
    bottom
    {
        type            calculated;
        value           nonuniform List<scalar> 
40
(
1.25684e-13
2.19647e-13
2.95749e-13
3.06379e-13
2.44783e-13
2.03684e-13
3.26089e-13
3.15608e-13
1.91664e-13
2.67963e-13
3.17441e-13
2.45831e-13
3.92146e-13
2.68245e-13
2.88683e-13
2.57906e-13
3.54415e-13
4.72785e-13
2.47469e-13
2.49452e-13
5.94551e-13
3.49076e-13
2.73959e-13
3.14865e-13
5.08676e-13
5.63659e-13
2.62576e-13
3.43537e-13
7.74169e-13
4.90847e-13
4.60549e-13
3.66297e-13
7.64437e-13
8.07034e-13
4.66471e-13
4.91759e-13
1.16526e-12
1.25615e-12
1.20686e-12
4.47143e-13
)
;
    }
    top
    {
        type            symmetryPlane;
    }
    side1
    {
        type            symmetryPlane;
    }
    side2
    {
        type            symmetryPlane;
    }
    procBoundary30to22
    {
        type            processor;
        value           nonuniform List<scalar> 
50
(
1.62557e+11
1.59463e+11
2.21435e+11
2.95319e+11
3.99268e+11
4.72403e+11
6.61246e+11
7.56697e+11
1.11029e+12
9.9499e+11
1.1581e+11
2.11876e+11
2.45792e+11
3.63314e+11
4.43499e+11
6.5273e+11
8.44198e+11
1.71144e+12
1.33739e+12
1.57738e+12
1.79362e+11
2.11587e+11
2.88482e+11
4.31556e+11
3.54586e+11
5.74002e+11
1.86059e+12
2.72342e+12
2.00454e+12
1.66803e+11
1.72143e+11
2.6108e+11
1.72278e+11
3.07211e+11
2.92321e+11
3.88922e+11
7.07494e+11
6.59023e+11
1.43884e+12
2.4913e+12
1.53841e+11
1.16307e+11
2.14494e+11
3.96634e+11
3.39108e+11
1.77006e+11
1.86511e+11
3.99441e+11
3.15233e+11
3.84065e+11
)
;
    }
    procBoundary30to29
    {
        type            processor;
        value           nonuniform List<scalar> 
20
(
1.33045e+11
1.32482e+11
2.06522e+11
2.21121e+11
5.05816e+10
1.70809e+11
5.09477e+10
1.78593e+11
9.48407e+10
3.92701e+10
2.2347e+11
1.77194e+11
1.33417e+11
3.38258e+11
9.47505e+10
2.48063e+11
1.32447e+11
8.70789e+10
1.35585e+11
2.95975e+11
)
;
    }
    procBoundary30to31
    {
        type            processor;
        value           nonuniform List<scalar> 
20
(
1.36254e+12
2.61312e+12
1.31645e+12
6.37626e+11
1.51225e+12
8.8013e+11
6.61235e+11
4.06835e+11
7.80154e+10
8.33993e+11
3.79046e+11
5.41539e+11
2.50709e+12
8.13975e+11
2.27364e+11
3.14622e+11
3.94663e+11
1.29321e+11
1.51897e+11
2.31475e+11
)
;
    }
}


// ************************************************************************* //
