/*--------------------------------*- C++ -*----------------------------------*\
| =========                 |                                                 |
| \\      /  F ield         | OpenFOAM: The Open Source CFD Toolbox           |
|  \\    /   O peration     | Version:  2.4.0                                 |
|   \\  /    A nd           | Web:      www.OpenFOAM.org                      |
|    \\/     M anipulation  |                                                 |
\*---------------------------------------------------------------------------*/
FoamFile
{
    version     2.0;
    format      ascii;
    class       volSymmTensorField;
    location    "0.13";
    object      B;
}
// * * * * * * * * * * * * * * * * * * * * * * * * * * * * * * * * * * * * * //

dimensions      [0 2 -2 0 0 0 0];

internalField   nonuniform List<symmTensor> 
200
(
(6.20002e+25 5.17052e+24 -8.54976e+25 5.81619e+25 1.1361e+25 5.63804e+25)
(1.06754e+26 2.44638e+25 -1.39068e+25 1.1213e+26 2.65676e+25 1.30101e+26)
(1.92051e+25 9.03654e+24 -9.20993e+24 3.67288e+25 1.39809e+25 1.27249e+25)
(1.3485e+26 3.43347e+24 -2.50425e+25 1.56583e+26 3.90774e+25 2.02664e+26)
(3.96982e+25 1.68711e+24 -1.9961e+25 5.53315e+25 6.90881e+24 4.60104e+25)
(1.51942e+26 -5.55089e+25 -6.50244e+25 1.95207e+26 4.25383e+25 2.65907e+26)
(1.96587e+25 5.04485e+24 -8.83082e+24 3.65135e+25 5.69403e+24 2.34705e+25)
(2.73178e+26 -1.16358e+26 -4.35374e+25 2.40043e+26 1.14369e+25 3.48654e+26)
(1.3566e+26 1.62535e+25 -5.43346e+25 1.70174e+26 -2.13572e+25 1.42902e+26)
(1.44536e+27 6.82444e+26 5.13208e+26 9.46714e+26 -8.29158e+25 1.46074e+27)
(9.79269e+25 2.95784e+25 -8.11162e+24 1.21889e+26 3.88631e+25 1.77083e+26)
(1.57339e+25 2.93772e+24 -1.41344e+25 2.96994e+25 4.47975e+24 2.54885e+25)
(1.27211e+26 2.71844e+24 -1.98624e+25 1.29851e+26 4.26733e+25 2.13272e+26)
(3.49475e+25 -7.97295e+23 -2.25473e+25 5.18154e+25 2.61262e+24 5.86791e+25)
(1.68161e+26 -1.62572e+25 -5.94867e+25 1.66682e+26 5.24771e+25 2.58076e+26)
(1.19935e+25 2.50264e+24 -6.99139e+24 1.47042e+25 4.42573e+24 1.94627e+25)
(2.70754e+26 -2.75834e+26 -1.7555e+26 1.7411e+26 8.00301e+25 4.85045e+26)
(7.21356e+25 1.45605e+25 -1.6106e+25 6.96901e+25 -4.07634e+24 6.84408e+25)
(4.37677e+26 -1.70149e+26 -2.60329e+25 2.85893e+26 -2.07624e+25 4.6616e+26)
(2.7449e+27 -1.31254e+27 -9.36936e+26 2.89936e+27 -1.33841e+26 2.88405e+27)
(5.36586e+25 -1.43726e+24 -1.57859e+25 6.69875e+25 2.14249e+24 7.22746e+25)
(1.24304e+26 -7.54514e+24 -2.85676e+25 1.28987e+26 5.18028e+25 2.59432e+26)
(5.04742e+25 -3.00461e+24 -2.05989e+25 6.22309e+25 -7.47878e+23 7.31784e+25)
(1.48316e+26 -3.51458e+24 -4.90586e+25 1.15509e+26 4.426e+25 2.36587e+26)
(2.26425e+25 -4.14773e+24 -1.87188e+25 1.87608e+25 3.13977e+24 4.04203e+25)
(3.95306e+26 -8.93459e+25 -9.592e+25 3.64565e+26 3.7727e+25 4.58473e+26)
(1.66001e+25 6.49248e+24 -1.75495e+24 4.6979e+24 -3.51435e+24 1.67681e+25)
(6.1843e+26 -5.24887e+26 -1.58244e+26 5.87148e+26 -6.82885e+24 8.03075e+26)
(5.05613e+25 7.84088e+24 -8.64591e+24 1.70906e+25 -1.61829e+25 4.92255e+25)
(3.42698e+27 1.35737e+27 8.49806e+26 3.16459e+27 -2.46347e+26 3.50464e+27)
(1.74232e+26 -8.73582e+24 -4.25476e+25 1.74975e+26 5.03043e+25 3.70086e+26)
(9.9042e+25 -1.00672e+24 -2.9955e+25 1.06959e+26 6.13088e+24 1.28901e+26)
(1.15668e+26 -8.88589e+24 -4.97598e+25 9.86609e+25 3.77424e+25 2.33507e+26)
(4.46949e+25 -4.88797e+24 -1.51896e+25 4.31055e+25 -4.61591e+22 5.974e+25)
(1.89026e+26 -3.7422e+24 -7.74437e+25 1.12799e+26 1.63545e+25 2.3516e+26)
(3.46585e+25 -8.75983e+24 -9.47244e+24 -2.52771e+24 -3.30147e+24 3.06138e+25)
(5.47053e+26 -1.14077e+26 -1.0032e+26 5.44728e+26 4.13638e+24 5.70903e+26)
(1.79137e+25 6.4735e+24 7.45031e+24 -1.16814e+25 -8.77947e+24 2.06944e+25)
(8.68372e+26 -3.97502e+26 -7.23151e+25 1.12495e+27 -1.63067e+26 1.086e+27)
(2.21513e+27 -8.71763e+26 -7.00444e+26 1.97158e+27 -9.96243e+25 2.40199e+27)
(4.38763e+25 1.46989e+25 -2.38495e+24 5.49048e+25 6.88383e+24 6.3196e+25)
(7.61703e+25 1.74089e+25 -6.77215e+25 7.32734e+25 -3.26074e+25 -3.40872e+25)
(2.92649e+25 1.01016e+25 5.27332e+24 3.95404e+25 7.26282e+24 3.93066e+25)
(5.82001e+25 6.44813e+24 -1.57723e+24 9.77938e+25 1.52793e+25 5.80885e+25)
(1.32687e+26 -1.2671e+25 1.43998e+25 1.23028e+26 -1.12933e+25 -1.49708e+24)
(1.3207e+26 -8.41681e+23 -5.60208e+23 1.36006e+26 -3.78294e+24 4.44413e+25)
(1.75207e+26 -5.49843e+25 -3.23174e+25 2.07476e+26 -1.40239e+25 2.55864e+26)
(4.15858e+25 1.84168e+25 2.21976e+24 8.42731e+25 -5.65528e+24 -2.71669e+25)
(4.57884e+26 -2.14363e+26 -7.13957e+24 2.4978e+26 4.31818e+25 4.59887e+26)
(9.75418e+26 -6.11775e+26 -4.28768e+26 1.01909e+27 -7.2441e+25 8.04004e+26)
(4.76695e+25 7.12451e+24 -2.84238e+25 6.94107e+25 -5.09201e+23 2.01022e+25)
(6.73976e+25 8.99361e+24 1.10057e+25 8.8263e+25 1.74188e+25 8.28312e+25)
(2.26634e+25 5.58542e+24 1.37088e+22 4.27542e+25 5.17733e+24 9.91594e+24)
(1.89348e+25 8.78181e+24 -2.3851e+24 1.59382e+25 9.61241e+24 2.69564e+25)
(1.43311e+25 -7.5535e+23 -4.66617e+24 2.34495e+25 3.39248e+23 1.00609e+24)
(1.10617e+26 -7.65069e+25 -8.00838e+25 7.98805e+25 1.04793e+25 1.75118e+26)
(1.72724e+25 -1.42852e+24 -2.6273e+24 2.20777e+25 -3.15728e+24 -1.83407e+24)
(6.00692e+26 -2.14105e+26 -5.71971e+25 4.94623e+26 2.71273e+25 6.34397e+26)
(1.60835e+26 3.07745e+25 -1.6262e+25 1.34584e+26 -1.71158e+25 5.83154e+25)
(1.54024e+27 9.07887e+26 4.63848e+26 8.97571e+26 1.69653e+26 1.4473e+27)
(9.90518e+25 4.61848e+24 4.50538e+24 1.3517e+26 2.82139e+25 1.26138e+26)
(1.24991e+24 2.2052e+24 -8.63287e+24 1.49758e+25 3.09583e+24 -5.12402e+24)
(3.41418e+25 -2.88181e+24 -5.49346e+24 4.85816e+25 2.61392e+25 5.70124e+25)
(-3.09226e+24 -8.15738e+23 -4.65204e+24 5.03926e+24 -2.59454e+24 4.40394e+24)
(6.72153e+25 -1.56065e+25 -3.86285e+25 4.03111e+25 4.17022e+24 8.27925e+25)
(1.61756e+25 -1.08488e+24 -3.66685e+23 1.3222e+25 -1.83114e+24 9.28302e+24)
(4.25107e+26 -3.63428e+26 -2.11237e+26 2.20895e+26 1.64395e+25 4.44574e+26)
(8.26179e+25 1.22456e+25 2.98194e+24 5.10555e+25 -9.88726e+24 3.00306e+25)
(8.06007e+26 -3.38648e+26 -1.98401e+25 5.81148e+26 8.71881e+25 7.38523e+26)
(2.01288e+27 -1.39098e+27 -6.4965e+26 2.06341e+27 2.31928e+25 1.8109e+27)
(-5.87336e+24 1.19205e+24 3.77825e+23 -2.48942e+24 -1.56564e+24 -9.28731e+24)
(3.03006e+25 1.92204e+24 3.2047e+24 4.83888e+25 1.73012e+25 8.64114e+25)
(2.53326e+24 2.51307e+24 -2.18218e+24 3.23065e+23 -3.79224e+23 2.80988e+24)
(2.44485e+25 -7.14276e+24 -2.28786e+25 1.96626e+25 1.50736e+24 5.98536e+25)
(-1.46032e+24 2.66096e+24 6.76347e+22 5.8111e+23 -1.13831e+24 -7.85858e+23)
(2.13121e+26 -3.27437e+25 -6.08011e+25 1.36626e+26 -1.40678e+25 1.96926e+26)
(7.61387e+25 1.83409e+24 7.79008e+24 6.07279e+25 -8.6604e+24 4.81188e+25)
(9.83069e+26 -5.95862e+26 -1.27366e+26 7.64317e+26 -1.13919e+25 8.12924e+26)
(3.27429e+26 4.41816e+25 5.06667e+25 2.27019e+26 7.10357e+24 2.06364e+26)
(3.53856e+27 1.51209e+27 1.05518e+27 2.95978e+27 2.78291e+25 3.1424e+27)
(3.45996e+25 -6.96642e+24 -2.99681e+25 2.24725e+24 1.98229e+24 -6.49318e+24)
(2.4802e+25 -3.96364e+24 -1.9016e+25 -3.16733e+25 -3.78422e+24 5.75977e+25)
(4.36054e+26 2.25171e+25 8.96018e+25 5.74902e+26 1.0711e+26 5.23504e+26)
(1.39898e+27 -7.04184e+25 -2.35844e+26 1.33382e+27 4.11521e+25 1.30644e+27)
(1.15365e+27 -4.82985e+25 -1.82943e+26 1.19891e+27 2.68471e+25 1.13803e+27)
(1.04406e+27 4.239e+25 1.50718e+26 1.13111e+27 -4.85922e+24 1.13124e+27)
(4.37998e+26 6.91334e+24 6.64789e+25 4.32462e+26 1.67145e+25 4.03516e+26)
(1.72405e+26 -5.14745e+25 -4.59151e+25 9.80581e+25 -3.423e+25 1.0409e+26)
(4.70504e+25 8.75702e+24 -1.08572e+25 5.35308e+25 2.24406e+24 -1.77134e+24)
(9.93534e+25 4.03505e+25 3.09921e+25 1.13256e+26 5.51447e+25 1.31802e+26)
(8.7923e+25 1.53802e+24 7.3676e+24 9.53003e+25 9.18459e+24 1.0004e+26)
(7.38239e+25 1.51397e+23 5.83784e+24 1.11364e+26 2.61262e+25 8.52776e+25)
(5.70543e+25 -1.85938e+25 1.76081e+25 1.20576e+26 5.09582e+25 4.5396e+25)
(3.67789e+25 2.47201e+25 -2.92212e+25 7.4992e+25 5.27595e+23 8.55741e+25)
(5.7336e+26 -4.962e+24 -1.9627e+24 6.35815e+26 6.0621e+25 6.1083e+26)
(2.03969e+26 -1.58891e+24 -4.71969e+24 2.39893e+26 3.59915e+25 2.04947e+26)
(1.39434e+26 -1.3542e+25 -3.37188e+25 1.1354e+26 -2.6253e+25 1.7497e+26)
(7.29229e+25 4.95119e+24 -2.60183e+24 6.15212e+25 -6.68867e+24 1.84578e+25)
(2.08138e+26 -1.24099e+26 -3.4185e+25 1.11961e+26 7.85619e+25 1.44591e+26)
(1.26099e+26 -1.55913e+26 -1.75084e+26 2.2597e+26 -5.1113e+24 6.36713e+25)
(2.50715e+25 4.28637e+24 1.39849e+25 4.64749e+25 2.41176e+25 4.01352e+25)
(1.69364e+26 3.79156e+25 3.50527e+25 1.90942e+26 6.35527e+25 1.85919e+26)
(2.11101e+26 2.92655e+25 5.71088e+25 2.11503e+26 2.31115e+25 2.23794e+26)
(4.56241e+25 -1.36273e+25 1.31952e+25 7.91126e+25 2.73401e+25 6.92165e+25)
(2.7905e+26 1.17289e+25 -1.29662e+25 3.08795e+26 1.64204e+25 3.47293e+26)
(5.99959e+25 -4.62978e+24 -2.7388e+25 1.17076e+24 -9.21884e+24 8.07868e+25)
(8.72889e+25 7.50939e+24 4.96807e+24 8.13513e+25 -8.48133e+24 7.301e+25)
(2.15483e+26 -2.85782e+25 -4.42192e+25 3.39697e+25 -2.62731e+25 1.97209e+26)
(3.30408e+26 6.79589e+25 3.96416e+25 2.33161e+26 -2.92826e+25 1.8793e+26)
(9.25458e+26 4.0086e+26 3.09728e+26 3.2375e+26 1.30631e+26 7.52319e+26)
(6.6461e+26 1.21242e+26 9.37088e+25 7.60729e+26 7.841e+25 7.02791e+26)
(6.26505e+26 6.17528e+25 4.58275e+25 6.45111e+26 4.18511e+25 6.76215e+26)
(1.82269e+26 4.58876e+25 2.4019e+25 2.22555e+26 3.82291e+25 2.40467e+26)
(1.59377e+27 1.12827e+26 6.39311e+25 1.62752e+27 4.4722e+25 1.62451e+27)
(1.03135e+26 -2.68511e+24 4.95531e+24 8.10049e+25 -2.33239e+24 1.66083e+26)
(9.75343e+26 7.97307e+25 2.39421e+25 1.09196e+27 1.6986e+25 9.89877e+26)
(2.26002e+26 5.04214e+25 -2.27316e+25 9.19757e+25 -6.91886e+25 1.94643e+26)
(8.66573e+26 5.63822e+25 9.67137e+25 8.60242e+26 -1.11272e+25 8.03771e+26)
(8.91449e+26 -1.47255e+26 1.46543e+26 1.33989e+26 -1.10294e+25 5.76945e+26)
(4.84945e+26 -4.46644e+26 -1.68584e+26 4.82781e+26 4.06525e+24 3.25269e+26)
(2.40461e+25 -1.19023e+25 -1.15524e+25 4.60032e+25 1.06424e+24 4.24985e+25)
(9.64702e+25 -9.39161e+24 1.15506e+25 1.59508e+26 2.04496e+25 1.37549e+26)
(1.83896e+26 8.0358e+23 -4.01098e+25 1.65108e+26 -4.8481e+23 1.64203e+26)
(1.52382e+26 2.35796e+25 -3.09702e+25 1.25971e+26 3.66258e+25 9.8294e+25)
(3.57769e+26 -8.15149e+24 4.12828e+25 4.19152e+26 3.28314e+25 5.38432e+26)
(4.33488e+26 -2.43984e+25 1.44027e+25 4.88277e+26 2.27499e+25 5.53004e+26)
(3.5152e+26 7.8768e+25 -1.2211e+26 1.3614e+26 4.64871e+25 2.93313e+26)
(9.36478e+25 3.56833e+24 2.40107e+23 8.15233e+25 6.29501e+24 7.17051e+25)
(5.98299e+26 -8.63686e+25 4.82302e+25 6.19329e+26 4.0412e+24 5.45053e+26)
(3.53842e+25 -1.07257e+25 -2.34858e+24 2.8554e+25 4.07062e+24 2.22017e+25)
(1.38962e+26 2.48467e+25 2.54748e+25 1.91987e+26 2.23583e+25 1.83336e+26)
(2.44894e+26 7.77269e+25 -3.69258e+25 3.385e+26 6.05368e+25 2.48787e+26)
(3.54797e+26 6.68832e+25 1.18819e+26 4.93973e+26 5.25126e+25 4.11388e+26)
(3.96189e+26 -1.0828e+25 4.13565e+25 4.96012e+26 2.76498e+25 4.55308e+26)
(9.35549e+26 4.69427e+25 -1.56804e+25 9.74055e+26 6.01171e+25 9.79456e+26)
(5.4745e+24 -6.10593e+24 5.2501e+25 -3.25054e+25 1.38246e+24 5.68496e+25)
(1.21964e+26 9.7646e+24 -1.39765e+25 1.39448e+26 3.30739e+25 1.3957e+26)
(6.13942e+26 5.64581e+25 -6.18836e+25 4.09798e+26 4.00536e+25 5.40538e+26)
(2.43964e+26 3.37255e+25 3.60464e+25 1.88399e+26 2.79886e+25 1.8365e+26)
(2.46565e+26 4.50368e+25 1.10819e+26 1.85698e+26 1.46465e+25 2.15076e+26)
(3.28518e+25 2.48144e+26 8.6427e+24 5.184e+26 1.39123e+26 3.14958e+26)
(1.19337e+27 3.09687e+26 2.32197e+26 1.44205e+27 2.13106e+26 1.38399e+27)
(3.94118e+26 1.27482e+26 4.46967e+25 4.91949e+26 1.18342e+26 5.11079e+26)
(4.23431e+27 3.73726e+26 3.86707e+26 4.45582e+27 1.26751e+26 4.16956e+27)
(3.5507e+25 -5.32207e+25 1.15123e+26 3.71521e+25 4.36998e+25 2.06203e+26)
(6.00459e+26 1.78268e+26 -9.85279e+25 1.38195e+27 1.29658e+26 1.02121e+27)
(1.08637e+26 6.87495e+25 2.05993e+25 -3.92632e+23 -3.09145e+25 1.03847e+26)
(1.18376e+27 1.73713e+26 6.59506e+25 1.31671e+27 8.7778e+25 1.21588e+27)
(6.11214e+26 1.22784e+26 5.56945e+25 3.41488e+26 -5.02605e+24 4.76649e+26)
(2.51367e+26 1.05799e+26 4.60366e+25 2.05727e+26 5.19727e+25 2.2858e+26)
(1.78461e+27 3.81479e+26 2.70238e+26 1.76961e+27 2.08862e+26 1.74824e+27)
(-5.75894e+25 5.12519e+24 2.12131e+26 3.30898e+26 1.51727e+26 3.96272e+26)
(4.71027e+27 6.09274e+26 3.0932e+26 4.76047e+27 2.74992e+26 4.45345e+27)
(1.02449e+27 -2.72018e+26 2.33536e+26 6.16668e+26 1.60202e+26 1.19332e+27)
(1.7333e+27 6.81462e+26 1.01709e+26 3.2669e+27 -3.65499e+25 2.0157e+27)
(2.2324e+26 2.45936e+25 -5.08114e+25 1.14068e+26 -1.20767e+25 1.85848e+26)
(7.56277e+26 4.5902e+25 3.15666e+26 1.03952e+27 2.79674e+26 9.3009e+26)
(7.72785e+26 1.79856e+26 6.06144e+25 4.92601e+26 -6.55207e+25 5.98324e+26)
(3.0284e+26 7.8062e+25 2.96741e+26 6.76086e+26 1.83299e+26 6.39973e+26)
(1.7669e+27 8.06636e+26 5.78623e+26 1.15428e+27 -1.52428e+25 1.50634e+27)
(1.08066e+26 1.28098e+25 -3.15702e+23 1.63352e+26 1.13665e+25 1.36464e+26)
(2.26249e+26 7.23273e+25 -3.63964e+24 2.47926e+26 -6.22722e+24 2.51326e+26)
(1.00778e+26 2.48177e+25 1.94414e+25 1.92194e+26 2.43587e+25 1.53085e+26)
(5.26899e+25 -2.54494e+25 -4.45018e+24 1.15554e+26 6.91584e+24 1.18963e+26)
(5.0199e+26 1.33833e+26 8.6224e+25 5.04786e+26 1.15555e+26 4.81822e+26)
(2.9446e+26 1.23755e+26 1.46842e+26 -4.29703e+25 4.39455e+25 8.68192e+25)
(6.96278e+26 1.39423e+26 -1.58646e+26 5.03069e+26 9.37807e+25 4.62867e+26)
(8.95459e+26 1.17638e+25 -1.70481e+26 5.92147e+26 1.61085e+26 8.95638e+26)
(4.96227e+26 -1.51933e+25 2.29011e+25 6.19855e+26 1.25112e+25 6.02835e+26)
(1.97867e+26 -6.62215e+24 2.62818e+25 2.13247e+26 1.21933e+23 2.11898e+26)
(1.82526e+26 2.03033e+26 -9.45887e+25 5.93242e+26 2.75284e+25 3.29976e+26)
(9.53697e+26 1.97586e+26 -2.41725e+24 1.27997e+27 9.44404e+25 1.06455e+27)
(1.42556e+26 1.67553e+26 5.81384e+25 2.88902e+26 8.38337e+25 2.9611e+26)
(1.67306e+27 2.54368e+26 1.62201e+26 2.0779e+27 9.68539e+25 1.67677e+27)
(1.78656e+26 2.04651e+25 1.29987e+26 4.3412e+25 1.05346e+26 3.58199e+24)
(3.32086e+27 4.4273e+26 -9.51505e+25 3.70338e+27 -7.64076e+25 3.13788e+27)
(2.46758e+26 1.52799e+26 1.30542e+25 1.4815e+26 1.57325e+25 1.76388e+26)
(5.40878e+26 1.0979e+26 -4.56234e+25 6.18511e+26 5.77391e+25 5.49509e+26)
(2.12791e+26 5.50064e+25 -2.11704e+24 7.4218e+25 3.83706e+25 2.28604e+26)
(7.57799e+25 2.6802e+25 3.11972e+24 1.39967e+26 1.90753e+25 1.06732e+26)
(2.53176e+27 3.63991e+26 2.72798e+25 2.67822e+27 4.15055e+25 2.49877e+27)
(1.7922e+26 6.13508e+25 1.9739e+26 3.90878e+26 1.51039e+26 2.10825e+26)
(3.65007e+27 6.34048e+26 2.51456e+25 4.00344e+27 7.002e+25 3.16114e+27)
(4.71916e+26 -3.80829e+25 1.48822e+26 4.56436e+25 2.20834e+26 2.48077e+26)
(4.34816e+27 1.06436e+27 -1.85565e+26 6.13182e+27 -4.90303e+26 3.83655e+27)
(7.44987e+25 4.12308e+25 -8.42593e+24 1.04996e+26 2.37001e+25 9.12916e+25)
(2.36187e+27 1.35738e+26 1.42599e+26 3.16746e+27 -5.42775e+25 2.4905e+27)
(4.56805e+26 1.98562e+25 1.05074e+25 3.68491e+26 -6.44358e+24 4.04796e+26)
(3.62791e+26 1.00282e+25 7.86981e+25 3.26377e+26 3.61671e+25 3.49801e+26)
(1.98605e+27 3.83501e+26 2.96715e+26 1.72362e+27 -1.95783e+25 1.84963e+27)
(4.24231e+26 -3.08628e+25 2.74888e+26 4.60409e+26 1.97489e+26 4.08811e+26)
(6.41224e+27 8.14204e+26 -9.34693e+25 6.31629e+27 -1.14993e+25 5.28094e+27)
(1.37062e+27 -1.08098e+26 1.32466e+26 1.15951e+27 1.64783e+26 1.22818e+27)
(6.02997e+27 1.38666e+27 -5.60244e+26 8.03506e+27 -8.21055e+26 5.32648e+27)
(1.34394e+26 1.30793e+26 -1.71736e+26 3.37849e+26 1.74021e+26 1.46758e+26)
(3.1029e+27 6.44581e+26 1.44705e+26 5.67329e+27 -5.48943e+26 3.81404e+27)
(4.93901e+26 -6.64462e+24 -6.18043e+25 3.65335e+26 5.11659e+25 4.0608e+26)
(6.35393e+26 -9.96339e+26 2.38203e+26 2.07802e+27 -3.39783e+26 2.01052e+27)
(2.08601e+26 2.10202e+25 2.39357e+25 1.77005e+26 2.89051e+24 1.86623e+26)
(2.26627e+27 -6.34853e+26 -7.22614e+26 2.62471e+27 -8.74566e+25 2.38739e+27)
)
;

boundaryField
{
    inlet
    {
        type            calculated;
        value           nonuniform 0();
    }
    outlet
    {
        type            calculated;
        value           nonuniform List<symmTensor> 
20
(
(55.5886 8.90966e+10 -2.39295e+11 -8.14649e+11 -1.8435e+11 3.28212e+11)
(51.5781 6.19662e+10 -2.08958e+11 1.0936e+11 -2.30975e+11 8.29336e+10)
(134.883 -2.78099e+10 -1.77902e+11 -1.28822e+11 -4.0385e+11 4.28633e+11)
(49.3384 -9.19885e+10 -1.48279e+11 -7.54781e+11 -2.46018e+11 3.08119e+11)
(13.276 5.42281e+10 -1.05793e+11 1.23072e+11 -1.68099e+11 -3.76045e+11)
(41.7181 3.62628e+10 -1.17778e+11 -8.26277e+11 3.19422e+11 2.0875e+11)
(5.49647 1.24897e+11 -4.47275e+10 3.56115e+10 3.90399e+10 -3.89431e+11)
(5.09558 1.41883e+11 1.15472e+11 -2.76999e+11 4.16576e+10 -3.64433e+09)
(59.6345 -4.26485e+10 -1.28691e+11 5.51263e+10 3.04396e+11 1.57497e+11)
(19.3578 1.5967e+11 -1.05743e+11 2.02492e+11 -1.59293e+10 -3.0331e+11)
(51.2575 3.45389e+11 4.09717e+10 -8.78104e+11 3.14782e+11 1.5462e+11)
(103.782 5.11383e+11 4.02514e+11 1.25529e+11 8.97216e+09 -2.22107e+11)
(3.16972 1.09911e+11 -3.06039e+10 1.02557e+10 7.80731e+10 -1.11581e+11)
(20.8653 3.07723e+11 1.75619e+11 -2.12789e+11 9.52324e+10 -2.17714e+10)
(332.093 9.38107e+11 5.7281e+11 -8.23703e+10 2.87635e+11 4.41104e+10)
(134.027 9.57804e+11 5.44049e+11 -1.15788e+12 -3.84142e+10 -2.70649e+11)
(31.2153 3.13903e+11 1.6556e+08 4.79912e+10 4.16359e+09 1.91725e+09)
(522.778 1.12513e+12 1.40381e+11 3.7071e+11 1.93599e+11 3.33977e+10)
(134.224 9.34876e+11 5.11046e+11 -8.96688e+11 -1.02355e+11 -2.37932e+11)
(420.661 4.86577e+11 1.38361e+11 6.85737e+11 -1.83323e+11 1.88281e+11)
)
;
    }
    bottom
    {
        type            calculated;
        value           nonuniform List<symmTensor> 
40
(
(-6.78091e+10 3.42953e+10 -7.08169e+11 -9.32678e+10 1.3099e+11 -1.35527e+12)
(-1.17165e+11 1.81961e+11 9.00992e+10 3.02441e+10 4.93834e+11 2.65081e+12)
(-3.43474e+11 -3.91626e+10 -5.64001e+11 1.97106e+10 7.47885e+10 -4.22603e+11)
(-1.95898e+11 -3.96999e+10 -1.97976e+11 -1.92525e+11 4.20196e+11 2.32828e+12)
(3.67584e+10 1.88012e+11 -4.81895e+10 7.80741e+10 4.26152e+11 2.32563e+12)
(-2.33806e+11 6.32255e+10 -4.29658e+11 6.67587e+10 1.95692e+11 -7.91093e+11)
(-1.87082e+11 -4.18505e+10 -1.17418e+11 -1.61107e+11 5.15681e+11 2.21195e+12)
(-2.97313e+11 -1.91418e+10 -7.57875e+11 -1.46779e+11 2.70884e+10 -3.23712e+10)
(-1.31008e+11 1.47873e+11 -2.84738e+11 1.55749e+11 4.18756e+11 -1.12272e+12)
(-1.29124e+11 1.94951e+10 -8.97905e+10 -1.1019e+11 5.85475e+11 2.42541e+12)
(-2.72439e+11 -6.09535e+10 -6.15668e+11 -3.39348e+10 -2.02701e+10 -2.45061e+11)
(-1.48085e+11 -5.08466e+10 -4.04837e+11 -2.454e+11 4.46678e+11 1.58575e+12)
(-1.21643e+11 2.63739e+10 -1.75024e+11 4.5291e+10 5.50081e+11 2.50781e+12)
(-2.89775e+11 -1.40322e+10 -5.64951e+11 7.09499e+09 1.59972e+11 -5.99638e+11)
(-5.44537e+10 -2.16195e+10 -3.748e+11 -2.56263e+11 5.38665e+11 1.83025e+12)
(-1.32082e+11 -1.11582e+11 -6.01174e+11 -1.68363e+11 -1.32809e+11 1.3215e+10)
(-2.21626e+11 3.52353e+10 -5.75214e+11 1.04876e+11 3.42765e+11 -1.00255e+12)
(-1.13265e+11 -1.01117e+11 -4.54091e+11 -1.22463e+11 6.03666e+11 2.06354e+12)
(-8.41161e+10 -5.75036e+10 -4.5321e+11 -1.37932e+11 6.78079e+10 -2.85286e+11)
(1.0312e+11 -2.33213e+10 -6.50889e+11 -3.71928e+11 3.03832e+11 1.46636e+12)
(-2.13719e+11 -3.02028e+11 -4.8717e+11 2.16879e+10 5.42316e+11 2.15387e+12)
(-1.10056e+11 6.50592e+10 -3.96251e+11 -3.95882e+10 1.57962e+11 -8.6616e+11)
(2.46398e+10 -5.4931e+11 -7.09681e+11 -1.64362e+11 5.26528e+11 1.93978e+12)
(1.38798e+11 -1.10052e+11 -3.11138e+11 -3.28381e+11 -1.32916e+11 -3.49949e+11)
(-1.26535e+11 9.33386e+10 -4.61215e+11 1.85308e+11 4.05992e+10 -1.31646e+12)
(-1.33473e+11 -7.34901e+11 -6.08782e+11 -3.9096e+11 6.2341e+11 2.3004e+12)
(4.24451e+10 1.88483e+11 -2.58082e+11 -3.03087e+11 -5.78299e+11 -1.03128e+12)
(1.2625e+11 -6.75642e+11 -7.41405e+11 1.12475e+11 2.32383e+11 1.91093e+12)
(-1.27023e+11 -8.0722e+11 -4.63489e+11 -3.56893e+11 6.06245e+11 2.41886e+12)
(8.03115e+10 2.2822e+11 -5.34164e+11 4.19814e+10 -7.44689e+11 -1.34745e+12)
(-2.34272e+10 -1.10868e+12 -4.60387e+11 -8.95022e+10 6.98427e+11 2.49862e+12)
(-3.06214e+10 1.3463e+11 -3.16731e+10 -6.46115e+11 -9.05188e+11 -1.15628e+12)
(-3.5449e+10 1.272e+11 -7.83197e+11 2.34661e+11 -1.07127e+12 -1.37346e+12)
(1.76146e+11 -9.99488e+11 -2.74639e+11 -7.15462e+11 8.54299e+11 2.40102e+12)
(1.22916e+11 1.21353e+11 -4.12819e+11 -3.95109e+11 -1.87726e+12 -1.22036e+12)
(-1.9806e+11 -1.05857e+12 -4.1418e+11 4.85228e+11 3.00608e+11 2.8569e+12)
(2.94007e+11 1.51731e+12 9.17485e+11 -8.14649e+11 7.11051e+11 2.07737e+12)
(-1.57201e+11 -2.26511e+12 -1.87228e+12 1.0936e+11 -1.9592e+12 -1.11886e+12)
(3.0133e+11 2.22522e+12 1.26311e+12 -1.28822e+11 8.52288e+11 2.70723e+12)
(-1.53336e+11 -2.15278e+12 -2.11528e+12 -7.54781e+11 -2.10614e+12 -1.09669e+12)
)
;
    }
    top
    {
        type            symmetryPlane;
    }
    side1
    {
        type            symmetryPlane;
    }
    side2
    {
        type            symmetryPlane;
    }
    procBoundary15to7
    {
        type            processor;
        value           nonuniform List<symmTensor> 
50
(
(-4.96542e+24 2.80135e+25 -3.51823e+25 1.8151e+25 1.13201e+25 3.05605e+25)
(6.29529e+23 -4.88633e+24 -5.45556e+25 -1.65465e+25 5.14137e+24 -5.37088e+24)
(1.32653e+25 1.8903e+25 -2.02966e+25 2.54613e+25 2.1292e+25 6.04836e+24)
(-1.8125e+24 8.36243e+24 -6.33399e+24 7.91115e+24 1.18834e+25 -2.07547e+25)
(-1.34344e+25 -6.34927e+24 -2.14059e+25 3.21666e+25 1.83922e+25 3.27585e+25)
(-6.53586e+24 9.46057e+23 -1.42292e+25 5.4154e+24 4.09338e+24 -8.82328e+24)
(-3.87088e+25 -3.88292e+25 -2.83075e+25 6.35475e+24 5.71537e+24 5.35017e+25)
(-2.07124e+25 2.05484e+25 -2.34331e+25 3.20333e+25 3.97998e+24 -1.63195e+25)
(-1.51687e+24 -9.19487e+25 -3.4719e+25 -5.71566e+25 -8.85493e+24 5.88006e+25)
(-1.34024e+26 -4.9272e+26 -6.78763e+26 5.69984e+25 -6.02219e+25 3.431e+25)
(-3.7326e+24 3.62058e+25 4.99359e+25 9.28902e+24 3.10158e+25 -4.14909e+25)
(6.78712e+24 3.02047e+25 -1.50057e+25 9.19385e+24 1.69935e+25 5.49747e+25)
(4.34908e+25 -1.47319e+25 -9.42129e+25 -1.20762e+25 -5.35944e+25 -1.59528e+26)
(3.79256e+25 -2.87778e+24 4.07247e+24 3.23274e+25 7.34997e+24 -8.6977e+24)
(-4.82526e+23 3.89777e+24 8.49523e+24 1.06922e+25 4.325e+23 -2.76723e+25)
(-1.4659e+25 -7.78501e+24 7.67663e+25 4.63362e+25 -1.7195e+25 8.97329e+25)
(8.12257e+23 4.32487e+24 1.04267e+24 7.98522e+24 1.04277e+24 -5.04821e+25)
(-5.37117e+25 -1.07534e+26 -7.97062e+25 -6.39222e+24 -2.95587e+24 1.68726e+26)
(1.24292e+25 3.7075e+25 1.31754e+25 -9.3378e+23 -1.72068e+24 -5.37909e+25)
(1.12974e+26 3.23355e+26 2.77553e+26 -1.05377e+26 2.82868e+25 5.70074e+25)
(-1.60496e+25 4.67376e+25 1.972e+25 -1.0932e+25 3.14637e+23 3.995e+25)
(8.58861e+25 -4.62837e+25 -1.56008e+26 -2.48359e+25 -5.75137e+24 -4.25124e+25)
(-2.23985e+25 -4.31291e+25 -6.57039e+25 -7.1171e+24 2.02768e+25 3.1603e+25)
(-3.94157e+25 -1.07844e+24 5.04617e+25 1.65968e+25 4.27957e+25 1.77338e+24)
(5.01826e+25 2.80181e+25 1.04318e+26 -6.15718e+25 -1.01664e+26 2.58955e+25)
(1.45043e+25 -5.36579e+23 -1.9103e+25 -1.55131e+24 -2.1124e+25 -6.75512e+24)
(-7.22847e+24 2.09046e+25 1.75237e+26 7.30362e+25 2.12262e+24 7.65815e+24)
(-1.77966e+25 -3.22681e+24 1.95031e+25 5.57803e+24 8.6893e+24 -1.21214e+25)
(1.45619e+25 -1.13357e+26 -1.72934e+26 8.36142e+24 -3.26115e+25 2.91525e+25)
(2.98869e+25 -7.7508e+25 -6.16734e+25 -3.19945e+25 -1.34549e+25 -6.05866e+25)
(2.60181e+25 -2.63322e+25 -2.21584e+25 3.98928e+25 6.04962e+24 -2.90384e+25)
(1.21445e+25 -2.80476e+24 -2.1195e+24 -2.95975e+25 -6.64488e+24 -5.87375e+24)
(-2.39771e+25 1.42014e+25 -1.56441e+24 -4.71827e+24 2.3675e+25 6.45331e+25)
(-6.66559e+25 -5.68975e+24 -1.15385e+25 -1.24828e+25 1.32278e+25 2.66845e+25)
(-2.89531e+25 -7.76237e+24 1.27176e+25 4.25503e+25 9.05662e+24 1.47425e+25)
(4.66214e+25 -4.45492e+25 5.84997e+25 -9.12457e+25 1.67924e+26 -2.0289e+25)
(2.17898e+24 -1.92826e+25 7.69762e+24 7.90315e+24 2.0145e+25 1.22053e+25)
(4.36902e+25 -1.03939e+26 5.62781e+24 1.51689e+26 -5.41845e+24 -2.17969e+26)
(9.49309e+23 8.55172e+23 -1.49674e+24 1.08877e+23 -1.21426e+23 -8.69369e+23)
(-6.12306e+25 3.42059e+25 -8.40407e+24 4.2552e+25 1.7844e+25 1.17273e+25)
(-1.04339e+24 1.11008e+25 -2.11488e+24 -1.59019e+25 -3.00505e+24 8.19479e+22)
(-1.47116e+25 7.44866e+24 -1.20859e+24 2.01612e+25 8.35408e+24 1.46856e+25)
(-2.65802e+25 7.10176e+23 -2.69493e+25 3.96713e+24 7.38564e+24 2.5049e+24)
(7.98609e+24 6.22897e+24 -2.37135e+24 -1.82261e+25 2.69357e+25 3.88752e+25)
(9.62848e+25 -1.60485e+25 9.88143e+25 -3.08306e+26 7.69804e+25 2.22993e+25)
(4.04103e+26 1.7792e+26 1.41741e+25 -2.27309e+26 1.37625e+26 -1.54619e+25)
(4.28543e+26 1.88662e+26 -6.27342e+26 -4.13896e+26 4.04852e+26 -1.99303e+25)
(-8.94479e+25 -3.19233e+25 1.03191e+25 3.78384e+25 1.8855e+25 5.57524e+25)
(-9.53895e+25 -1.05953e+26 1.14636e+26 6.1202e+25 -2.09063e+25 4.28598e+24)
(4.1821e+25 3.2377e+24 5.31583e+24 1.05124e+24 -3.89182e+24 3.59105e+24)
)
;
    }
    procBoundary15to14
    {
        type            processor;
        value           nonuniform List<symmTensor> 
20
(
(-2.53701e+25 3.3713e+25 -1.58548e+25 9.7429e+24 1.43268e+25 4.37615e+25)
(-5.76003e+25 4.39322e+24 -1.08362e+26 -1.00506e+25 -6.46227e+24 1.14191e+25)
(-5.07879e+25 2.40881e+25 -9.4258e+24 9.26376e+24 5.7471e+25 1.21847e+26)
(-2.54862e+25 -2.0311e+24 -2.59584e+25 -2.39356e+24 7.62428e+24 1.34286e+25)
(9.21558e+24 1.43841e+25 1.79344e+25 1.24255e+25 1.79359e+25 -5.40026e+25)
(-7.94911e+24 6.66678e+24 3.93639e+24 1.60354e+25 1.83111e+25 3.92801e+23)
(-7.7591e+24 -2.78729e+23 -1.67307e+25 9.22277e+24 5.75725e+23 -1.79707e+25)
(-2.14288e+25 5.77383e+24 1.98135e+25 3.72317e+24 3.62145e+25 3.58366e+25)
(-1.43261e+25 1.98058e+24 -8.08159e+23 9.15531e+23 5.38976e+24 1.90193e+25)
(-1.75963e+25 1.40624e+24 -2.55671e+24 2.54366e+25 3.67966e+25 -2.13806e+25)
(-4.33543e+25 9.27973e+24 7.14372e+25 2.27708e+25 7.26356e+25 5.47278e+25)
(-1.08402e+24 5.88567e+25 4.66669e+25 -3.69814e+25 2.1957e+25 1.49945e+25)
(-3.57802e+25 -2.15403e+24 1.11755e+25 3.90446e+25 2.18519e+25 -2.05795e+24)
(-7.00948e+25 9.6293e+25 6.20779e+25 4.62525e+25 9.63991e+25 8.88139e+25)
(-3.20514e+25 5.55402e+25 8.02199e+25 -5.53828e+25 3.12e+25 2.85557e+25)
(-1.73554e+25 2.52833e+26 -1.73736e+26 9.71125e+25 -3.23946e+25 -1.36695e+26)
(-5.14068e+25 2.87313e+25 -1.91525e+25 2.49946e+25 1.09127e+25 5.7204e+23)
(-1.96424e+25 8.41784e+25 3.09408e+25 -6.64431e+25 6.34279e+25 -4.51653e+25)
(2.48839e+25 2.47158e+26 -1.34028e+26 1.15519e+26 -1.48351e+26 -2.45648e+26)
(-4.2537e+26 9.57349e+26 -5.09275e+26 4.91422e+26 9.68014e+25 -1.17128e+26)
)
;
    }
    procBoundary15to23
    {
        type            processor;
        value           nonuniform List<symmTensor> 
50
(
(-2.93876e+25 -1.74242e+24 -4.09986e+25 -2.17075e+25 7.58607e+24 2.32434e+25)
(-5.72371e+25 -4.14421e+24 -3.91074e+25 -5.20746e+25 1.71265e+25 1.56327e+26)
(-1.04126e+25 3.6215e+24 -2.36769e+25 -1.04897e+25 4.50047e+24 1.2109e+25)
(-2.62566e+25 -1.49168e+25 -8.02587e+25 -3.94837e+25 2.85962e+24 6.21646e+25)
(-4.77889e+23 -1.77675e+24 -8.37647e+24 -8.48484e+24 6.37886e+22 4.1279e+24)
(4.21689e+25 -1.34505e+25 -9.01963e+25 -5.80347e+25 -1.78436e+25 4.06105e+25)
(1.96454e+25 -1.60225e+23 1.79916e+25 -1.99186e+25 -8.28682e+24 -1.9543e+25)
(8.86808e+24 -1.04251e+26 -5.78464e+25 3.11961e+25 -4.241e+25 2.74493e+25)
(-2.37773e+25 6.92957e+24 2.12293e+25 -4.35364e+25 -1.96281e+25 1.51647e+25)
(-1.14408e+26 5.20854e+26 8.84141e+26 3.6423e+26 -3.88626e+26 2.46836e+26)
(-1.52774e+25 2.78157e+25 4.24316e+25 -1.21358e+25 2.27773e+25 5.3862e+25)
(4.2045e+24 6.65499e+24 2.04077e+25 -1.01629e+25 -1.00724e+24 9.06732e+24)
(-2.32675e+25 6.21711e+24 2.11301e+25 -5.4339e+24 1.27274e+25 5.36596e+25)
(4.49241e+24 5.81665e+24 8.18965e+24 -3.90193e+24 4.04204e+24 5.82103e+24)
(-8.5964e+24 -2.31178e+25 -5.09511e+24 -5.01746e+25 -2.756e+24 5.92615e+25)
(-4.50375e+24 1.76349e+25 7.65332e+24 3.84876e+25 -5.20638e+24 -2.79368e+25)
(1.0631e+26 -8.8421e+25 -7.77398e+25 -3.30825e+25 -2.424e+25 7.61987e+24)
(1.25164e+25 9.6364e+24 5.43482e+25 -9.13543e+24 4.95574e+24 -3.50242e+25)
(2.63277e+26 -5.54223e+26 1.10951e+26 -2.45236e+24 -8.49379e+25 -2.13582e+25)
(5.63674e+25 -8.39442e+26 -4.00555e+26 -1.75313e+26 1.00227e+26 -1.22232e+26)
(-1.16969e+26 1.82311e+26 1.51387e+26 -3.13171e+25 8.8401e+25 9.64797e+25)
(-2.81115e+26 4.66296e+25 1.11825e+26 5.67587e+24 6.03979e+25 1.22009e+26)
(1.85413e+26 3.37858e+26 1.71153e+26 8.20203e+25 1.22344e+26 8.32231e+25)
(-2.58192e+26 -1.32464e+26 7.33052e+25 -2.77361e+26 8.4863e+25 2.02987e+26)
(-3.58365e+26 5.12128e+26 -1.41681e+26 7.69332e+26 -4.52389e+25 -1.36556e+26)
(5.99832e+25 5.54136e+25 -9.75748e+25 -9.4804e+25 -3.65793e+25 3.90149e+24)
(-2.5514e+26 -2.15502e+25 1.8614e+26 7.47034e+25 7.82325e+24 4.20118e+25)
(1.86195e+26 -5.61484e+25 4.89849e+25 -2.5186e+26 -1.49041e+26 -1.39302e+24)
(-1.51003e+25 9.06714e+25 4.1935e+26 3.42305e+25 7.16945e+25 -4.80013e+24)
(3.4624e+26 1.51188e+27 1.28024e+27 -5.33174e+26 4.17348e+25 2.98844e+25)
(-2.57696e+26 -1.53942e+26 2.32257e+26 -1.48977e+26 1.48514e+26 1.34684e+26)
(4.30885e+26 4.86717e+26 2.12254e+26 3.19496e+26 2.07174e+26 -6.79137e+25)
(-1.51888e+26 -3.7361e+26 2.21976e+26 -4.67176e+26 2.04237e+26 2.42554e+26)
(-5.1905e+26 1.522e+27 -5.25995e+26 2.35194e+27 6.38888e+25 -8.07995e+26)
(1.49055e+26 3.46218e+25 -5.27953e+26 -3.65898e+25 -8.12064e+25 -2.40849e+26)
(-9.37315e+26 -9.21553e+26 8.12273e+26 2.30052e+25 4.1965e+26 9.67927e+25)
(1.40894e+26 1.98833e+25 7.09089e+24 -8.79882e+24 -3.57283e+25 -1.40237e+26)
(-4.45079e+25 -8.53097e+24 4.22124e+26 -8.91394e+25 2.49279e+26 1.82227e+26)
(9.68802e+25 1.0431e+26 9.32281e+25 -1.42343e+26 -1.24991e+25 -7.79404e+25)
(-5.97328e+24 -4.94311e+26 -2.71166e+26 1.18808e+26 1.29876e+26 -1.04114e+25)
(7.04778e+26 8.87107e+26 -5.27444e+25 8.23118e+26 3.81719e+25 -4.67681e+26)
(1.52705e+26 -5.31309e+26 7.23652e+26 -7.38612e+26 8.00994e+26 -3.89978e+26)
(5.22231e+25 3.15488e+27 -2.03958e+27 4.47697e+27 -2.12939e+27 -2.87194e+27)
(-6.41566e+25 2.71202e+26 -9.11586e+26 1.92946e+26 2.60997e+26 -3.99533e+26)
(-1.82669e+27 8.26489e+26 1.67745e+26 2.19904e+27 -1.33956e+27 5.51888e+26)