/*--------------------------------*- C++ -*----------------------------------*\
| =========                 |                                                 |
| \\      /  F ield         | OpenFOAM: The Open Source CFD Toolbox           |
|  \\    /   O peration     | Version:  2.4.0                                 |
|   \\  /    A nd           | Web:      www.OpenFOAM.org                      |
|    \\/     M anipulation  |                                                 |
\*---------------------------------------------------------------------------*/
FoamFile
{
    version     2.0;
    format      ascii;
    class       volVectorField;
    location    "0.06";
    object      U;
}
// * * * * * * * * * * * * * * * * * * * * * * * * * * * * * * * * * * * * * //

dimensions      [0 1 -1 0 0 0 0];

internalField   nonuniform List<vector> 
200
(
(-149307 139504 13238.6)
(-131589 573498 -25495.9)
(-86783.3 151102 -32108.5)
(-162053 212891 -82815)
(-119996 7905.64 -31324)
(-106668 38014.5 -44710.1)
(-175986 109579 15633.3)
(-154001 90149.9 8298.25)
(-216070 107302 77388.6)
(-152167 76843 18268.7)
(-153277 97554.6 41252.7)
(-151065 180546 33467.7)
(-110559 321256 2994.21)
(-88940.4 98389.5 -13554.5)
(-16214.8 -158112 -127565)
(-160961 134113 25689.1)
(-87051.6 70079.9 29715.6)
(-142595 126146 106546)
(-71470.1 -69235.2 -36225.4)
(85845.1 -278183 -239039)
(-100229 145436 15756.1)
(-126609 210719 58129)
(-117650 78869.9 13053.6)
(-70307.5 71927.7 -50979.1)
(-83854.8 73553.1 -44438.1)
(-74225.6 90007.8 -34291.9)
(-36915.9 125122 11379)
(17411.3 -357599 -120464)
(120557 -152052 -276298)
(103005 -136490 -16241)
(-71731.6 140627 12234.6)
(-69218.3 163544 3067.39)
(-64877.9 187727 -7782.1)
(-102280 49443.3 -30961.4)
(-91128.7 33354.3 -88221)
(-50386.8 60941.1 -31391.2)
(-36642.3 -220700 -76648.7)
(-780.693 -10367.8 -178558)
(13616.4 -201819 -27332.6)
(151844 -471562 56519.3)
(-56449.1 53514.7 -22898.4)
(-119588 39264.3 5672.12)
(-126184 107340 19594.6)
(-249111 315519 18264.7)
(-114464 -145956 111958)
(-9443.6 -214680 40855)
(-125983 -3180.57 -22894)
(-100474 -113965 44401.1)
(-64609.8 -30677.1 173399)
(-118939 70845.2 118199)
(-101411 109447 69432.8)
(-105224 70102.7 33148.9)
(-156531 184130 47713.7)
(-118174 87184 22047.8)
(-50231.3 -77256.2 37487.4)
(-107209 -194342 31529)
(-70218.4 -99642.1 58857.8)
(-64960.9 -85775.8 141097)
(-133556 -59506.7 46438.4)
(16184.8 -25645.3 685.671)
(-100551 63238.1 84525.9)
(-149569 102134 102441)
(-129016 43412.3 83491.5)
(-99678.4 -21900.1 26301.8)
(-181621 -407662 -109681)
(-68801 -116300 103956)
(-219980 -157627 114792)
(-262074 -102099 -28418.4)
(-40301 -111125 19690.5)
(50074.8 -964074 -35133.3)
(-129573 121025 83207.1)
(-141122 16437.7 80697.4)
(-178961 87944 10795.2)
(-275831 -148850 -18240.9)
(-107839 -106690 81058.6)
(-454235 -306639 156546)
(-321737 -41077.9 -59326.5)
(-138656 -144681 23563.2)
(8643.99 -1.33298e+06 -49625.8)
(115965 -144873 -69702)
(27672.9 -526390 71163.4)
(199259 -244809 303773)
(-53293.4 -45880.5 109121)
(13496.2 -55275.4 131385)
(-103876 2989.62 113528)
(-89082.7 2416.37 95182.8)
(-29704.6 -117494 65057.2)
(-102317 125292 67904.2)
(-47243.5 62868 127365)
(23801 21257.8 223706)
(17314.6 -10530.2 7053.76)
(-48053.2 -28200.1 69981.6)
(-58317.2 27822.7 81637.5)
(-67024.7 -35486.7 96365.7)
(-89183.4 32974.8 92204.8)
(-59515.6 -46594.2 98957.1)
(-54383 13162.2 76191.5)
(-11213 -4577.08 129871)
(39246.9 -32139.9 174032)
(-40619.9 -67914.8 79488.8)
(-25552.2 38176.5 52310.6)
(-75076.3 40335.2 48677.9)
(-86203.1 46129.1 130819)
(-113526 41699.3 114944)
(-86835.5 -10574 98696.4)
(-92488.2 -170153 133762)
(43079.2 -138591 210614)
(-61745.3 -42311.5 136449)
(-100144 -115387 79512.4)
(84259.3 -12752.8 32109.8)
(-90377.5 170407 96061.6)
(-112511 99496.6 140872)
(-104341 35523.8 99581.6)
(-120137 58156.8 82563.6)
(-169665 -276416 204306)
(54903.5 -172045 254037)
(-205944 -132900 132313)
(-206738 -39097.5 61982)
(26010.9 -86218 44781.4)
(34333.6 -831021 -91971)
(-84715.4 28166.4 -57434.9)
(-77252.5 8537.27 33801.7)
(36642 -20400.2 74426.7)
(-7411.54 -135950 177045)
(-5075.01 15879.1 80096.8)
(-54889.3 -46809.6 158681)
(-27578.3 183522 64962.8)
(-5229.42 115948 90967.5)
(-15838.9 250881 76804)
(-1599.8 170281 142883)
(-9086.26 2195.09 -54429.8)
(20630.8 -23853.5 12063.4)
(5310.72 -70607 72095.3)
(6706.57 771.833 75013.4)
(-38384.8 -43482.2 110658)
(-31739.1 79678.8 68954.8)
(-20387.7 71371.6 88480.1)
(39036.5 177067 75135.2)
(81156.8 215954 122881)
(146424 183141 129325)
(-6462.16 40906.6 4980.56)
(-6679.04 4157.6 28534.3)
(-36338.1 64974.5 27672.8)
(-30014.5 32631.6 86284.4)
(-62071.9 74791.6 87555.1)
(-26342.1 46082.2 105286)
(39158.9 15059.3 128702)
(149178 16596.5 165418)
(48600.3 108078 152364)
(149951 117886 141530)
(10218.9 59018 61622.5)
(-16368.9 115624 41839)
(-25229.1 50208.8 105130)
(-32381.1 76819.8 69882.6)
(-21502.7 69288.9 87406.6)
(-2614.63 -76163.1 177235)
(115738 -43367.4 200249)
(66829.8 33469.4 101073)
(35595.8 34833.3 172178)
(246126 60122.3 103335)
(-71810.7 117639 14560)
(-80804 90653.7 -1265.53)
(-102668 122789 50153.5)
(-39761.1 121759 30661.1)
(-24805.6 30572.4 117970)
(5248.15 169949 35436.3)
(24455.2 98997 102392)
(49267.9 192744 40634.3)
(72477.9 131494 80755.1)
(82054.8 200472 61626.9)
(-46884.3 124624 -5004.97)
(-62698.7 140632 4622.91)
(-17979 109514 32920.5)
(-32708.6 49214 83935.6)
(7297.29 97960.2 56977.6)
(-191.814 45513.1 112096)
(44029.8 192088 34151.2)
(69362.1 116610 70643.5)
(101770 187368 40478.5)
(137763 131857 80919.7)
(-19308.8 112568 -3323.77)
(-18122.1 96706.9 -8770.14)
(3422.67 110997 26047.8)
(4279.76 143591 20736.4)
(20740.9 90672.4 75119.4)
(31125.8 161688 38713.8)
(54234.3 98045.9 68032.9)
(93880.8 163130 41324.7)
(122949 131041 59734.1)
(177191 160961 47677.2)
(34221.8 80271.7 4819.33)
(26867 89699.8 1579.89)
(46211.6 84579.6 22069)
(72615.5 105626 20256.7)
(56249.7 129407 41873.9)
(68632.4 95965.1 83132.2)
(153761 138725 47721.5)
(112698 92365.3 71106.8)
(211770 118839 44685.6)
(264554 114399 61959.3)
)
;

boundaryField
{
    inlet
    {
        type            calculated;
        value           nonuniform 0();
    }
    outlet
    {
        type            calculated;
        value           nonuniform 0();
    }
    bottom
    {
        type            calculated;
        value           uniform (0 0 0);
    }
    top
    {
        type            symmetryPlane;
    }
    side1
    {
        type            symmetryPlane;
    }
    side2
    {
        type            symmetryPlane;
    }
    procBoundary13to5
    {
        type            processor;
        value           nonuniform List<vector> 
50
(
(-105144 134657 -18688.6)
(-152019 180043 -30554.3)
(-188464 223412 -196634)
(-170806 38193.1 -62606.7)
(-205745 56941.6 -49276.7)
(-127141 -95375.7 24651.4)
(-162972 82408.6 -2790.41)
(-179808 6653.44 3055.63)
(-172203 144482 -9780.08)
(-188803 183785 69807.5)
(-127927 41485 -31562.4)
(-108841 62050.8 -23960.7)
(-128703 104939 -25908.2)
(-207731 170224 -70260.3)
(-338924 486794 55395.7)
(-156080 -27837.6 33896.1)
(-73198.5 -386547 8448.53)
(-193267 104825 -33621.3)
(-104973 -15972 54381.3)
(-93146 -28869.7 266787)
(-135094 144089 -13170.8)
(-113592 46808.4 -4123.63)
(31868.8 -136278 107406)
(-55465.1 -179864 201958)
(-55997.4 -8833.61 72787.8)
(-157374 28418.2 125692)
(-133366 101220 57879.2)
(-93131.2 -49594.5 87812.5)
(-190758 208609 100420)
(-114768 81136.9 159527)
(-123840 45343.4 26000.3)
(-109119 40345 7757.67)
(-152298 29546.7 42037.2)
(7938.6 -78241 125250)
(-6548.81 -338183 375978)
(-44717.8 109449 51842)
(-60805.9 67917.2 161272)
(-71125.4 201186 94032.6)
(-66029.5 100579 130254)
(-123082 231070 125303)
(-113484 112487 6184.8)
(-117166 99051 11568.2)
(-117077 114174 10414.3)
(-117815 89598 32253.1)
(-55387.6 101745 55143.3)
(-25015.5 47568.7 126914)
(-16375.3 173837 66661.1)
(3532.31 128504 110523)
(4194.35 170291 64289.2)
(28933.5 100314 140124)
)
;
    }
    procBoundary13to12
    {
        type            processor;
        value           nonuniform List<vector> 
20
(
(-139046 71051.9 20031.9)
(-125160 78436.7 6862.89)
(-94050.3 105506 618.464)
(-64194 96549.9 -7248.86)
(-112823 256159 64094.1)
(-89186.3 89529.2 79234.4)
(-93252.2 120104 37575.3)
(-88434.3 110815 29210.8)
(-86642.2 83033.3 -39241.4)
(17739.7 -11052.7 42836.1)
(-14289.6 17804.5 -1198.55)
(-21395.7 52093.7 60004.9)
(-88489.9 67989.8 -14439.8)
(-23633.6 1445.57 -76234.5)
(18564.8 14377.4 -15888.4)
(18561.1 79672 23378.9)
(-99173.5 213347 29353.5)
(-40114.3 142815 1603.39)
(-25936.6 166407 -10849.6)
(-18359.2 106589 -29801.9)
)
;
    }
    procBoundary13to14
    {
        type            processor;
        value           nonuniform List<vector> 
20
(
(-52299.8 -129390 -55288.8)
(93325.7 16195.2 -5393.95)
(176388 -192988 -76315.1)
(52373.9 278852 28241)
(-70091.7 147139 15959.5)
(217207 -817599 -203397)
(65696.4 78023.6 -63858.9)
(-282501 -145870 94164.3)
(-43406.5 62086 140563)
(106002 60181.2 13666.6)
(113325 -597199 -34035.8)
(72445.6 -50866.6 -50010.6)
(23357.2 166502 157579)
(124804 106774 141279)
(211187 151801 100442)
(245928 -194725 58444.3)
(106184 129996 109286)
(169092 191865 69392.4)
(197893 148795 84720.3)
(256245 195914 62229.1)
)
;
    }
    procBoundary13to21
    {
        type            processor;
        value           nonuniform List<vector> 
50
(
(-62507.8 85952.1 -15026.5)
(-63190.8 204920 32371.4)
(-67311.9 168088 -18525.7)
(-95130.9 102780 -140208)
(-50124.8 67019 -37430.9)
(-172047 -54488.2 -20045.2)
(-93688.8 107402 -126793)
(-52763.5 -185666 -25842.8)
(155889 -515383 58418.3)
(4159.58 -327297 -23228.1)
(-90190.5 107787 17716.9)
(-132921 161240 11323.7)
(-228219 131547 21999.8)
(-135864 -15340.9 93542.8)
(-790871 -566569 263683)
(-333593 91323 -101718)
(-232876 -265914 10304.3)
(8252.4 -1.42257e+06 -86124.3)
(146164 -577609 -165392)
(-675290 90282.3 185279)
(-44739.2 204357 73647.1)
(-18258 101608 48633)
(-82165 99289.7 64582.6)
(-103363 46499.6 173574)
(-6154.01 -79163.9 214463)
(-363209 -266026 143704)
(-241190 66241.4 -2735.32)
(-53508.3 -211735 -6277.19)
(-58823.4 -1.01014e+06 -126178)
(-63058.4 -238376 -65568.4)
(27966.6 120090 63593)
(35690.8 108958 79240.6)
(35161.1 115869 33414.2)
(16230.9 72370.4 66133.5)
(37521.3 75139.6 107867)
(103318 -50353.2 188214)
(-71415.7 -86754.4 111917)
(63798.9 50843.8 100177)
(95949 -37727.5 68240.1)
(164402 -379649 18684.5)
(78439.3 87406.7 -5043.61)
(87955.1 96641.1 18765.2)
(105124 109373 4678.22)
(92458.9 131096 12667)
(109653 121881 27501.1)
(144675 156690 46212.4)
(160569 97331.9 18908.2)
(175642 109814 34687.8)
(214191 90364 73479.2)
(318265 84137.3 81086.9)
)
;
    }
}


// ************************************************************************* //
