/*--------------------------------*- C++ -*----------------------------------*\
| =========                 |                                                 |
| \\      /  F ield         | OpenFOAM: The Open Source CFD Toolbox           |
|  \\    /   O peration     | Version:  2.4.0                                 |
|   \\  /    A nd           | Web:      www.OpenFOAM.org                      |
|    \\/     M anipulation  |                                                 |
\*---------------------------------------------------------------------------*/
FoamFile
{
    version     2.0;
    format      ascii;
    class       volScalarField;
    location    "0.01";
    object      alpha;
}
// * * * * * * * * * * * * * * * * * * * * * * * * * * * * * * * * * * * * * //

dimensions      [0 0 0 0 0 0 0];

internalField   nonuniform List<scalar> 
200
(
6.46941e-35
8.20473e-35
8.33362e-35
8.21478e-35
6.53478e-35
8.21181e-35
8.46768e-35
1.01578e-34
8.60433e-35
1.00107e-34
9.4648e-38
1.19934e-37
1.21913e-37
1.2012e-37
9.5787e-38
1.20054e-37
1.23948e-37
1.48444e-37
1.26042e-37
1.46182e-37
1.35566e-40
1.71615e-40
1.74581e-40
1.71936e-40
1.37439e-40
1.71812e-40
1.77602e-40
2.12351e-40
1.80735e-40
2.0896e-40
1.90825e-43
2.41306e-43
2.45661e-43
2.41831e-43
1.93781e-43
2.4162e-43
2.50065e-43
2.985e-43
2.54661e-43
2.93519e-43
4.82056e-37
6.10166e-37
6.20192e-37
6.11008e-37
4.87354e-37
6.10749e-37
6.30616e-37
7.55099e-37
6.41272e-37
7.4369e-37
7.44027e-40
9.41065e-40
9.57266e-40
9.42692e-40
7.53692e-40
9.42101e-40
9.73913e-40
1.1643e-39
9.91099e-40
1.14586e-39
1.12122e-42
1.41688e-42
1.44237e-42
1.4198e-42
1.13784e-42
1.41866e-42
1.46831e-42
1.75253e-42
1.4953e-42
1.72351e-42
1.65653e-45
2.09121e-45
2.13044e-45
2.09621e-45
1.68391e-45
2.09419e-45
2.17004e-45
2.58594e-45
2.21151e-45
2.54129e-45
1.90027e-39
2.40067e-39
2.44182e-39
2.40436e-39
1.92285e-39
2.40319e-39
2.4846e-39
2.96967e-39
2.52844e-39
2.92298e-39
3.08612e-42
3.89633e-42
3.96616e-42
3.90377e-42
3.12916e-42
3.90103e-42
4.03787e-42
4.81872e-42
4.11211e-42
4.73952e-42
4.88151e-45
6.15809e-45
6.2732e-45
6.17202e-45
4.9588e-45
6.16654e-45
6.39024e-45
7.6141e-45
6.51238e-45
7.48359e-45
7.55383e-48
9.52013e-48
9.70533e-48
9.54491e-48
7.68652e-48
9.53487e-48
9.89212e-48
1.17682e-47
1.00883e-47
1.15583e-47
5.25999e-42
6.63254e-42
6.75087e-42
6.64383e-42
5.32714e-42
6.6402e-42
6.87389e-42
8.20126e-42
7.00027e-42
8.0674e-42
8.96644e-45
1.13003e-44
1.15107e-44
1.13239e-44
9.10007e-45
1.13152e-44
1.17266e-44
1.39701e-44
1.19508e-44
1.37323e-44
1.48537e-47
1.87064e-47
1.9069e-47
1.87525e-47
1.51038e-47
1.87343e-47
1.94374e-47
2.31209e-47
1.98229e-47
2.27114e-47
2.40255e-50
3.023e-50
3.08388e-50
3.03152e-50
2.44725e-50
3.02807e-50
3.14523e-50
3.73554e-50
3.20983e-50
3.66685e-50
1.14896e-44
1.44609e-44
1.47288e-44
1.44878e-44
1.16465e-44
1.44791e-44
1.50074e-44
1.7874e-44
1.52942e-44
1.75717e-44
2.05136e-47
2.58076e-47
2.63057e-47
2.58664e-47
2.08389e-47
2.58447e-47
2.6817e-47
3.18929e-47
2.73489e-47
3.13317e-47
3.55205e-50
4.46587e-50
4.55548e-50
4.47779e-50
3.61542e-50
4.47311e-50
4.64648e-50
5.51779e-50
4.74193e-50
5.41697e-50
5.99463e-53
7.53058e-53
7.68735e-53
7.55347e-53
6.11236e-53
7.54425e-53
7.84521e-53
9.30241e-53
8.01183e-53
9.12624e-53
)
;

boundaryField
{
    inlet
    {
        type            zeroGradient;
    }
    outlet
    {
        type            zeroGradient;
    }
    bottom
    {
        type            fixedValue;
        value           uniform 0;
    }
    top
    {
        type            symmetryPlane;
    }
    side1
    {
        type            symmetryPlane;
    }
    side2
    {
        type            symmetryPlane;
    }
    procBoundary25to17
    {
        type            processor;
        value           nonuniform List<scalar> 
50
(
4.3559e-32
5.51097e-32
5.59284e-32
5.51434e-32
4.37832e-32
5.51494e-32
5.68085e-32
6.82318e-32
5.76795e-32
6.73378e-32
3.07018e-34
3.87504e-34
3.93538e-34
3.87775e-34
3.0876e-34
3.87815e-34
4.00039e-34
4.79544e-34
4.06477e-34
4.72953e-34
1.14813e-36
1.44571e-36
1.46923e-36
1.44685e-36
1.15525e-36
1.44699e-36
1.49464e-36
1.78825e-36
1.51982e-36
1.76255e-36
3.02295e-39
3.79766e-39
3.86208e-39
3.80101e-39
3.04331e-39
3.80139e-39
3.93183e-39
4.69529e-39
4.00096e-39
4.6249e-39
6.29577e-42
7.89124e-42
8.03042e-42
7.89894e-42
6.34152e-42
7.89971e-42
8.18151e-42
9.75195e-42
8.33132e-42
9.59983e-42
)
;
    }
    procBoundary25to24
    {
        type            processor;
        value           nonuniform List<scalar> 
20
(
8.04395e-35
1.1746e-37
1.67901e-40
2.35842e-43
5.97639e-37
9.20794e-40
1.38495e-42
2.04204e-45
2.34916e-39
3.80888e-42
6.01387e-45
9.28801e-48
6.48417e-42
1.10366e-44
1.82519e-47
2.94669e-50
1.41243e-44
2.51825e-47
4.35349e-50
7.33406e-53
)
;
    }
    procBoundary25to26
    {
        type            processor;
        value           nonuniform List<scalar> 
20
(
6.72722e-35
9.85513e-38
1.41348e-40
1.99238e-43
5.02097e-37
7.75953e-40
1.17086e-42
1.73219e-45
1.9825e-39
3.22363e-42
5.10549e-45
7.91069e-48
5.4964e-42
9.38052e-45
1.55588e-47
2.51976e-50
1.2025e-44
2.14937e-47
3.7262e-50
6.29624e-53
)
;
    }
}


// ************************************************************************* //
