/*--------------------------------*- C++ -*----------------------------------*\
| =========                 |                                                 |
| \\      /  F ield         | OpenFOAM: The Open Source CFD Toolbox           |
|  \\    /   O peration     | Version:  2.4.0                                 |
|   \\  /    A nd           | Web:      www.OpenFOAM.org                      |
|    \\/     M anipulation  |                                                 |
\*---------------------------------------------------------------------------*/
FoamFile
{
    version     2.0;
    format      ascii;
    class       volSymmTensorField;
    location    "0.01";
    object      B;
}
// * * * * * * * * * * * * * * * * * * * * * * * * * * * * * * * * * * * * * //

dimensions      [0 2 -2 0 0 0 0];

internalField   nonuniform List<symmTensor> 
42
(
(1.46447e+18 2.91952e+14 -1.48379e+14 1.46429e+18 -1.29603e+14 1.46423e+18)
(5.72916e+17 9.16079e+13 -7.14869e+13 5.72891e+17 -1.11604e+14 5.72849e+17)
(6.18456e+17 2.31331e+14 -1.97668e+14 6.18649e+17 -1.75322e+14 6.18516e+17)
(6.30201e+17 5.74002e+13 -4.20615e+13 6.30225e+17 -3.02029e+13 6.30204e+17)
(7.82971e+17 1.34548e+14 -8.99075e+13 7.82852e+17 -5.8394e+13 7.82859e+17)
(8.25533e+17 3.89133e+14 -1.21594e+14 8.25018e+17 -2.91136e+14 8.25189e+17)
(6.40157e+17 1.52878e+14 -1.18848e+14 6.39728e+17 -2.48946e+14 6.39894e+17)
(5.1211e+17 1.49057e+14 -1.16025e+14 5.11902e+17 -1.90406e+14 5.1193e+17)
(2.26635e+17 8.27069e+13 -8.06585e+13 2.26626e+17 -1.2725e+14 2.26578e+17)
(1.63388e+17 4.73026e+13 -3.63472e+13 1.63376e+17 -5.7783e+13 1.63368e+17)
(3.4054e+17 2.71943e+14 -6.57676e+13 3.40419e+17 -2.50928e+14 3.40485e+17)
(4.13286e+17 5.8563e+13 -3.11138e+13 4.13136e+17 -1.15503e+14 4.132e+17)
(7.41776e+17 1.21063e+14 -2.61446e+13 7.41634e+17 -1.0627e+14 7.41672e+17)
(2.47629e+17 2.00624e+14 -5.47851e+13 2.47225e+17 -2.61055e+14 2.47416e+17)
(1.54446e+17 2.09627e+13 -1.18694e+13 1.54396e+17 -4.72858e+13 1.54418e+17)
(1.07713e+18 4.91993e+13 -6.51128e+12 1.07703e+18 -3.98369e+13 1.07706e+18)
(7.48119e+17 8.40066e+13 2.93482e+12 7.48084e+17 -7.2415e+13 7.48069e+17)
(5.91725e+17 9.76887e+13 -8.01237e+12 5.91696e+17 -9.43547e+13 5.91686e+17)
(3.16724e+17 8.00736e+12 -1.30502e+12 3.1669e+17 -1.36026e+13 3.16708e+17)
(6.12744e+17 4.01881e+13 3.76516e+12 6.12682e+17 -3.68283e+13 6.12706e+17)
(3.39746e+17 6.3246e+13 -8.67301e+13 3.39976e+17 5.44405e+13 3.39744e+17)
(1.86261e+18 3.23646e+14 2.67271e+13 1.86259e+18 8.56472e+12 1.86241e+18)
(2.16375e+18 4.16719e+14 2.96177e+13 2.16354e+18 -2.26704e+12 2.1635e+18)
(7.38375e+17 1.12993e+14 -2.34088e+13 7.38242e+17 -4.36248e+10 7.38252e+17)
(5.80893e+17 2.08738e+14 -3.8047e+13 5.8064e+17 -3.37377e+12 5.80684e+17)
(2.05025e+17 4.10275e+12 2.59264e+13 2.05471e+17 5.5977e+13 2.05108e+17)
(8.22248e+17 7.55134e+13 1.37215e+12 8.22543e+17 1.19442e+13 8.22309e+17)
(4.20232e+17 1.08356e+14 7.46052e+12 4.20215e+17 -8.37943e+12 4.20224e+17)
(4.96724e+17 1.49831e+14 6.54733e+12 4.96642e+17 -7.20102e+12 4.96655e+17)
(2.6613e+17 5.68163e+13 7.76192e+12 2.66045e+17 6.03855e+12 2.66078e+17)
(3.09821e+16 7.52783e+12 1.56103e+14 3.10014e+16 -7.9542e+13 3.095e+16)
(4.28544e+17 -2.10507e+13 3.5024e+13 4.28677e+17 3.15414e+12 4.28548e+17)
(5.93253e+16 5.08862e+13 3.59999e+13 5.93299e+16 -2.11007e+13 5.93184e+16)
(2.59572e+17 1.08496e+14 2.42328e+13 2.59592e+17 -3.51097e+13 2.59618e+17)
(3.19981e+16 1.01278e+13 6.98039e+12 3.19711e+16 -1.7175e+13 3.19947e+16)
(7.05241e+17 1.96872e+14 1.5417e+14 7.04787e+17 -8.99285e+13 7.04894e+17)
(2.37032e+17 4.50996e+12 1.17702e+13 2.37028e+17 -1.63252e+11 2.37021e+17)
(2.01251e+17 4.57603e+12 7.60181e+12 2.01277e+17 -9.01827e+12 2.01251e+17)
(1.65218e+17 3.28429e+13 1.65561e+13 1.65223e+17 -3.4094e+12 1.65209e+17)
(1.12709e+17 -2.48869e+13 1.49903e+13 1.12703e+17 -2.01493e+13 1.12698e+17)
(7.74802e+17 1.70018e+14 2.48822e+13 7.75042e+17 1.8867e+14 7.74963e+17)
(4.89618e+17 1.17373e+14 -4.28314e+12 4.89835e+17 1.45678e+14 4.89799e+17)
)
;

boundaryField
{
    inlet
    {
        type            calculated;
        value           nonuniform 0();
    }
    outlet
    {
        type            calculated;
        value           nonuniform 0();
    }
    bottom
    {
        type            calculated;
        value           nonuniform List<symmTensor> 
20
(
(2.50757e+07 4.70182e+07 -3.09467e+07 -4.98304e+06 -3.01236e+07 -1.2657e+07)
(2.43182e+07 3.28602e+07 -3.19189e+07 -1.91172e+07 -5.13698e+07 -359871)
(-159232 2.82848e+07 -2.40796e+07 -1.27461e+07 -6.1195e+07 -7.09327e+06)
(3.56507e+07 3.54959e+07 -1.93044e+07 -3.05651e+07 -6.78036e+07 -8.43911e+06)
(4.60523e+06 2.54044e+07 -2.61487e+07 -2.13385e+06 -3.26118e+07 -763133)
(2.54156e+07 1.79321e+07 -2.74788e+07 -2.49196e+07 -4.52801e+07 1.45181e+06)
(1.70903e+07 1.41575e+07 -2.2824e+07 -1.91751e+07 -6.72047e+07 -3.76233e+06)
(1.30841e+07 2.99399e+07 -1.03383e+07 663837 -6.81095e+07 -5.52902e+06)
(-1.2419e+07 2.8397e+07 -3.20578e+07 1.12527e+07 -3.78982e+07 -150278)
(1.71737e+07 1.83621e+07 -2.03309e+07 -8.45634e+06 -3.4484e+07 -3.04375e+06)
(2.12364e+07 2.89165e+07 -1.5174e+07 -1.25818e+07 -4.68854e+07 -4.25408e+06)
(8.31087e+06 2.61498e+07 -1.22927e+07 625415 -4.87814e+07 1.83456e+06)
(-9.55212e+06 3.49986e+07 -4.19647e+07 5.52143e+06 -3.50812e+07 -4.47973e+06)
(3.54373e+06 1.15126e+07 -1.6329e+07 2.38059e+06 -2.90873e+07 -3.64224e+06)
(1.35711e+07 1.4701e+07 -9.59812e+06 -1.60233e+07 -3.17556e+07 -3.2739e+06)
(2.14784e+07 1.23592e+07 -8.60969e+06 -3.01401e+07 -4.77782e+07 -2.3166e+06)
(1.94924e+07 3.42762e+07 -3.95819e+07 -1.08677e+07 -3.08836e+07 -7.77888e+06)
(1.70443e+06 1.31277e+07 -1.64269e+07 -1.61789e+06 -3.21362e+07 -4.68713e+06)
(9.13548e+06 7.63855e+06 -6.47278e+06 -9.1214e+06 -3.10677e+07 -1.53196e+06)
(2.23575e+07 2.29337e+07 1.77714e+06 -1.31153e+07 -4.40872e+07 3.44405e+06)
)
;
    }
    top
    {
        type            symmetryPlane;
    }
    side1
    {
        type            symmetryPlane;
    }
    side2
    {
        type            symmetryPlane;
    }
    procBoundary25to9
    {
        type            processor;
        value           nonuniform List<symmTensor> 
12
(
(-9.02504e+12 2.08641e+14 -2.67787e+14 2.03034e+13 -1.5073e+14 -1.56379e+14)
(4.92135e+12 8.95774e+13 -1.94214e+14 -6.28097e+12 -1.23379e+14 -9.38173e+13)
(2.40349e+13 9.467e+13 -2.11856e+14 -2.21723e+13 -9.68629e+13 -5.75132e+13)
(1.90086e+13 4.73283e+13 -8.2499e+13 -2.43204e+13 -2.71014e+13 -1.57053e+13)
(1.73526e+14 1.37505e+14 -3.53135e+14 -1.14075e+14 -8.81403e+13 -4.71521e+13)
(1.07068e+14 -3.81446e+13 -5.42006e+12 -1.53107e+13 -3.78918e+12 -9.29033e+13)
(1.18365e+14 3.89461e+13 1.88827e+13 -5.34945e+13 -1.58397e+13 -4.52156e+13)
(1.41879e+14 8.50688e+13 3.26006e+13 -4.09732e+13 -9.74821e+12 -4.6237e+13)
(3.25991e+14 1.40103e+14 1.15807e+14 -1.70666e+14 -3.17518e+13 -1.19622e+14)
(1.19682e+14 1.85145e+13 2.9715e+13 -4.69711e+13 -2.2952e+13 -2.55728e+13)
(2.27744e+13 5.54376e+13 3.51403e+13 8.2715e+11 2.78965e+13 -1.79864e+13)
(6.98218e+13 8.08025e+13 6.49103e+13 -1.27172e+13 3.9832e+13 -3.35363e+13)
)
;
    }
    procBoundary25to24
    {
        type            processor;
        value           nonuniform List<symmTensor> 9((1.60518e+14 3.11925e+14 -1.76188e+14 -1.41232e+14 -1.25193e+14 -4.05327e+13) (6.13988e+14 5.06028e+14 -1.62562e+14 -2.85685e+14 -3.66232e+14 -8.22746e+13) (6.00453e+13 4.48465e+14 -6.04575e+13 -7.65421e+13 -2.16401e+14 -4.76879e+13) (3.41182e+14 5.33727e+14 -1.10374e+14 -4.51383e+14 -4.30651e+14 -1.27968e+14) (-1.0082e+14 4.22636e+14 2.66125e+13 2.02794e+14 1.26495e+14 -1.12823e+14) (2.95784e+13 1.76456e+14 5.7598e+13 3.78673e+13 2.90849e+13 -6.76628e+13) (1.11392e+14 8.67689e+13 4.80957e+13 -8.20807e+13 2.82664e+12 -1.96282e+13) (2.89836e+14 1.45231e+14 1.40444e+14 -1.94435e+14 -4.15387e+13 -3.49295e+13) (1.15758e+13 1.82681e+14 6.78375e+13 3.96685e+13 8.10714e+13 -2.7665e+13));
    }
    procBoundary25to26
    {
        type            processor;
        value           nonuniform List<symmTensor> 8((7.91407e+13 1.26684e+14 -7.44741e+13 -4.12569e+13 -5.17405e+13 -4.32455e+13) (1.33183e+13 4.36272e+13 -1.96881e+13 -1.01628e+13 -3.75778e+13 -7.92608e+12) (1.9352e+13 3.87838e+13 -1.16318e+13 -1.22537e+13 -7.0638e+13 -1.87381e+12) (1.17013e+13 4.23507e+13 -3.09927e+12 -8.36012e+12 -4.91306e+13 5.97311e+11) (3.38051e+13 4.6931e+13 -3.12408e+13 -4.66191e+13 -5.60198e+12 -1.01843e+13) (2.8872e+13 1.86493e+13 1.49776e+12 -3.71017e+13 3.12217e+12 8.00438e+11) (1.04349e+14 3.22433e+13 2.29909e+13 -1.15323e+14 -1.28024e+13 2.01451e+13) (9.07697e+12 -9.49075e+12 3.69841e+12 -6.41942e+12 -1.60834e+13 3.41676e+12));
    }
    procBoundary25to41
    {
        type            processor;
        value           nonuniform List<symmTensor> 10((1.27313e+14 1.79799e+14 1.83595e+13 -7.90079e+13 -8.42187e+13 -1.8277e+13) (1.47077e+13 9.11702e+13 1.22081e+13 1.51704e+13 -3.77646e+13 -6.20692e+12) (-8.05381e+12 3.20994e+13 2.01591e+13 4.99833e+12 -5.78788e+13 -7.76778e+12) (1.04928e+13 1.65419e+13 9.33269e+12 -2.37801e+13 -4.1303e+13 -1.29175e+12) (8.91806e+12 4.67015e+13 7.15349e+12 -9.83024e+12 -3.01911e+13 -1.51707e+12) (1.14749e+14 1.92185e+14 8.74978e+13 2.92663e+13 -1.93621e+13 -7.29872e+13) (-1.20708e+13 1.26256e+14 7.95021e+13 4.55785e+13 6.99242e+12 -4.61053e+13) (-7.61023e+13 1.01904e+13 6.68845e+13 2.07219e+14 -8.13676e+13 -7.51837e+13) (1.0622e+13 4.37145e+12 1.10817e+13 2.30368e+12 9.89719e+12 -1.63437e+13) (5.16955e+12 -5.57855e+12 1.66736e+12 2.56291e+12 -5.95747e+12 -5.09621e+12));
    }
    procBoundary25to89
    {
        type            processor;
        value           nonuniform List<symmTensor> 
23
(
(-5.01669e+13 1.11542e+14 2.3053e+13 2.3088e+13 1.28379e+13 -1.31193e+13)
(-2.54929e+13 1.22529e+14 3.77473e+13 -2.06733e+13 -1.99648e+13 1.04079e+13)
(-1.51786e+13 4.13976e+13 3.05592e+12 -2.06847e+13 -8.00849e+12 2.01082e+13)
(6.22817e+13 6.81714e+13 1.36073e+13 -8.46983e+13 7.31132e+13 2.56812e+13)
(1.8312e+13 6.93737e+13 1.84704e+13 -2.14716e+12 9.9998e+13 1.76208e+13)
(3.49478e+13 1.34149e+14 4.17434e+13 -9.79777e+12 3.33799e+13 4.86441e+13)
(2.98141e+13 9.05468e+13 1.74868e+13 -3.46925e+13 -1.90266e+13 6.38866e+13)
(2.4225e+13 7.58044e+13 -1.6398e+12 -4.38967e+13 -2.05028e+12 3.80866e+13)
(6.06507e+13 7.80444e+13 2.18053e+13 -1.11094e+14 -1.83632e+13 2.27601e+13)
(1.19367e+13 2.8844e+13 1.33113e+13 1.20182e+12 -5.26194e+12 9.73104e+12)
(1.70327e+13 7.87021e+13 6.16608e+13 -8.53716e+13 -2.00381e+13 3.51236e+13)
(-1.57498e+13 6.76095e+13 3.02248e+13 -1.77331e+12 -7.85529e+13 7.63323e+13)
(9.94683e+12 5.49551e+13 -6.25648e+12 -5.20806e+13 -1.5104e+13 1.79173e+13)
(1.1169e+14 1.3874e+14 3.65338e+13 -9.54683e+13 -6.16708e+13 9.20703e+12)
(3.2974e+13 8.34662e+13 1.84599e+13 3.61462e+13 -5.64494e+13 1.46065e+12)
(-4.98553e+12 2.07795e+13 6.91449e+12 -9.57424e+12 -1.3204e+13 9.55524e+11)
(-1.01338e+13 2.41974e+13 1.74511e+13 1.39183e+13 -3.3628e+13 1.48803e+12)
(-1.29862e+12 8.92323e+12 2.67672e+13 -1.65327e+13 -3.51467e+13 3.94033e+12)
(6.22817e+13 6.81714e+13 1.36073e+13 -8.46983e+13 7.31132e+13 2.56812e+13)
(-2.45663e+14 1.43472e+14 -1.04625e+14 8.78251e+13 7.35805e+13 9.06617e+13)
(-5.01669e+13 1.11542e+14 2.3053e+13 2.3088e+13 1.28379e+13 -1.31193e+13)
(1.8312e+13 6.93737e+13 1.84704e+13 -2.14716e+12 9.9998e+13 1.76208e+13)
(-1.6659e+14 3.31219e+11 -1.03128e+14 3.20052e+13 4.78049e+13 5.61909e+13)
)
;
    }
}


// ************************************************************************* //
