/*--------------------------------*- C++ -*----------------------------------*\
| =========                 |                                                 |
| \\      /  F ield         | OpenFOAM: The Open Source CFD Toolbox           |
|  \\    /   O peration     | Version:  2.4.0                                 |
|   \\  /    A nd           | Web:      www.OpenFOAM.org                      |
|    \\/     M anipulation  |                                                 |
\*---------------------------------------------------------------------------*/
FoamFile
{
    version     2.0;
    format      ascii;
    class       volScalarField;
    location    "0.01";
    object      p;
}
// * * * * * * * * * * * * * * * * * * * * * * * * * * * * * * * * * * * * * //

dimensions      [1 -1 -2 0 0 0 0];

internalField   nonuniform List<scalar> 
200
(
-10.164
-10.148
-10.0265
-9.61419
-9.18131
-8.5225
-7.93924
-7.10122
-6.07312
-4.73515
-10.2808
-10.1783
-10.0035
-9.5704
-9.15781
-8.5869
-8.08608
-7.40393
-7.04394
-5.39315
-10.3417
-10.2015
-10.0001
-9.56347
-9.17051
-8.63764
-8.1394
-7.4671
-6.84738
-6.42473
-10.3692
-10.1878
-9.96224
-9.50844
-9.10076
-8.54242
-8.04049
-7.35507
-6.58878
-5.85949
-12.2641
-11.7466
-11.1102
-10.9409
-10.4781
-10.0491
-9.74588
-9.42158
-9.2932
-8.49931
-11.6413
-11.3929
-10.9597
-10.7186
-10.3305
-10.0928
-9.92438
-9.66871
-9.22323
-8.47501
-11.4138
-11.1586
-10.7284
-10.4321
-9.9868
-9.53773
-9.32887
-9.00139
-9.71028
-10.4777
-11.2835
-11.032
-10.5902
-10.2447
-9.70465
-9.05105
-8.50523
-8.02722
-7.35201
-6.02439
-11.9173
-11.863
-11.8554
-11.8122
-11.831
-11.79
-11.8005
-11.6458
-12.0757
-11.5229
-11.8495
-11.7788
-11.7439
-11.6802
-11.6866
-11.5956
-11.5254
-11.777
-12.323
-12.7371
-11.7844
-11.7041
-11.6603
-11.5951
-11.6259
-11.6236
-11.803
-11.9196
-12.2079
-12.0095
-11.7233
-11.6324
-11.5662
-11.4572
-11.4143
-11.2732
-11.2139
-10.982
-10.9703
-11.2686
-12.0173
-12.1175
-12.3756
-12.5882
-12.8712
-13.104
-13.4293
-13.7027
-13.9004
-14.0455
-11.9154
-11.9696
-12.1692
-12.3151
-12.5332
-12.7087
-13
-13.3306
-13.5734
-13.8512
-11.8492
-11.8851
-12.0689
-12.1947
-12.4007
-12.5772
-12.879
-13.1944
-13.6729
-14.3173
-11.7904
-11.8261
-12.0043
-12.1152
-12.3108
-12.4791
-12.7978
-13.1572
-13.75
-14.5319
-12.0938
-12.2232
-12.3294
-12.4718
-12.6313
-12.7062
-12.8047
-12.7368
-12.6777
-12.7593
-11.9985
-12.0954
-12.1618
-12.2618
-12.3944
-12.4647
-12.6104
-12.6998
-12.5881
-12.5136
-11.9407
-12.0252
-12.0851
-12.1738
-12.3032
-12.3816
-12.5424
-12.6624
-12.7765
-13.0149
-11.9078
-11.9828
-12.0347
-12.109
-12.2278
-12.289
-12.4459
-12.5402
-12.7313
-12.7916
)
;

boundaryField
{
    inlet
    {
        type            zeroGradient;
    }
    outlet
    {
        type            fixedValue;
        value           nonuniform 0();
    }
    bottom
    {
        type            zeroGradient;
    }
    top
    {
        type            symmetryPlane;
    }
    side1
    {
        type            symmetryPlane;
    }
    side2
    {
        type            symmetryPlane;
    }
    procBoundary25to17
    {
        type            processor;
        value           nonuniform List<scalar> 
50
(
-10.093
-10.202
-10.228
-9.83095
-9.35853
-8.65487
-8.03776
-6.90607
-6.30028
-3.60695
-14.9808
-12.5177
-12.0652
-12.2944
-11.259
-10.2779
-9.81332
-8.74869
-7.41746
-7.52728
-11.9092
-11.9214
-11.9853
-11.9311
-11.8563
-11.6276
-11.4101
-11.7955
-11.9056
-10.5587
-12.0263
-12.215
-12.5483
-12.8774
-13.285
-13.4837
-13.9158
-14.2464
-14.7405
-14.6387
-12.2045
-12.2849
-12.455
-12.7271
-13.008
-13.2547
-13.0743
-12.7265
-12.5518
-12.3874
)
;
    }
    procBoundary25to24
    {
        type            processor;
        value           nonuniform List<scalar> 
20
(
-10.2994
-10.4742
-10.5305
-10.5559
-12.033
-11.8526
-11.6948
-11.6207
-11.8223
-11.7731
-11.7151
-11.6658
-11.6855
-11.6819
-11.6266
-11.5139
-11.9726
-11.9402
-11.9027
-11.88
)
;
    }
    procBoundary25to26
    {
        type            processor;
        value           nonuniform List<scalar> 
20
(
-2.96067
-4.49919
-6.00875
-5.06912
-9.30673
-7.28617
-10.0662
-4.68986
-9.2862
-10.9223
-12.4734
-11.1386
-12.5956
-14.3675
-15.2386
-14.9303
-12.7065
-12.5015
-13.3803
-12.5779
)
;
    }
}


// ************************************************************************* //
