/*--------------------------------*- C++ -*----------------------------------*\
| =========                 |                                                 |
| \\      /  F ield         | OpenFOAM: The Open Source CFD Toolbox           |
|  \\    /   O peration     | Version:  2.4.0                                 |
|   \\  /    A nd           | Web:      www.OpenFOAM.org                      |
|    \\/     M anipulation  |                                                 |
\*---------------------------------------------------------------------------*/
FoamFile
{
    version     2.0;
    format      ascii;
    class       volVectorField;
    location    "0.05";
    object      Uc;
}
// * * * * * * * * * * * * * * * * * * * * * * * * * * * * * * * * * * * * * //

dimensions      [0 1 -1 0 0 0 0];

internalField   nonuniform List<vector> 
200
(
(-1.57494e-12 -1.23664e-13 -1.57944e-13)
(-1.27417e-10 -4.31315e-12 -1.47037e-11)
(-7.07015e-09 -1.22097e-10 -8.5557e-10)
(-2.09373e-07 -3.62052e-09 -2.53376e-08)
(-7.07046e-09 -1.22006e-10 -8.55641e-10)
(-1.34351e-10 -2.31345e-12 -1.62587e-11)
(-1.89121e-12 -3.24968e-14 -2.28867e-13)
(-2.19637e-14 -3.76609e-16 -2.65797e-15)
(-2.22616e-16 -3.80914e-18 -2.69403e-17)
(-2.05422e-18 -3.50747e-20 -2.48595e-19)
(1.33149e-10 -3.85513e-11 2.98616e-11)
(3.28458e-09 -9.51267e-10 7.36735e-10)
(6.63283e-11 -3.97142e-11 2.17756e-11)
(-1.75768e-09 -3.15253e-11 -2.12402e-10)
(-6.67954e-11 -1.17694e-12 -8.07844e-12)
(-1.40982e-12 -2.46982e-14 -1.70548e-13)
(-2.18206e-14 -3.81063e-16 -2.63994e-15)
(-2.7632e-16 -4.81488e-18 -3.34322e-17)
(-3.03257e-18 -5.2749e-20 -3.66925e-19)
(-3.01385e-20 -5.23422e-22 -3.64669e-21)
(4.74146e-08 -1.37258e-08 1.0633e-08)
(1.33734e-06 -3.87139e-07 2.99907e-07)
(4.74143e-08 -1.37258e-08 1.0633e-08)
(9.25727e-10 -2.70546e-10 2.08463e-10)
(1.31668e-11 -3.91965e-12 2.9891e-12)
(1.52324e-13 -4.66029e-14 3.50031e-14)
(1.51804e-15 -4.81771e-16 3.54666e-16)
(1.34852e-17 -4.48419e-18 3.21939e-18)
(1.09136e-19 -3.84514e-20 2.67814e-20)
(8.21978e-22 -3.11003e-22 2.08909e-22)
(1.28625e-05 -3.7235e-06 2.88449e-06)
(0.000423343 -0.000122551 9.49376e-05)
(1.28625e-05 -3.7235e-06 2.88451e-06)
(2.21673e-07 -6.41707e-08 4.97118e-08)
(2.85131e-09 -8.2541e-10 6.39429e-10)
(3.0461e-11 -8.81799e-12 6.83114e-12)
(2.85686e-13 -8.27019e-14 6.40676e-14)
(2.4315e-15 -7.03885e-16 5.45286e-16)
(1.91908e-17 -5.55547e-18 4.30371e-18)
(1.43585e-19 -4.15661e-20 3.22004e-20)
(-9.15764e-10 -1.57694e-11 -1.10822e-10)
(-7.22929e-08 -1.24748e-09 -8.74861e-09)
(-4.28052e-06 -7.40197e-08 -5.18012e-07)
(-0.000144866 -2.51035e-06 -1.75312e-05)
(-4.28052e-06 -7.40197e-08 -5.18012e-07)
(-7.22929e-08 -1.24747e-09 -8.74862e-09)
(-9.15766e-10 -1.5769e-11 -1.10823e-10)
(-9.66725e-12 -1.66114e-13 -1.1699e-12)
(-8.98071e-14 -1.53992e-15 -1.08681e-14)
(-7.64401e-16 -1.30793e-17 -9.25052e-17)
(-9.0368e-12 -3.3368e-13 -1.03419e-12)
(-6.7032e-10 -1.56516e-11 -7.97784e-11)
(-3.59838e-08 -6.27027e-10 -4.35456e-09)
(-1.06629e-06 -1.85948e-08 -1.29039e-07)
(-3.59844e-08 -6.26861e-10 -4.35469e-09)
(-6.8331e-10 -1.1891e-11 -8.26917e-11)
(-9.61225e-12 -1.67096e-13 -1.16324e-12)
(-1.11558e-13 -1.93725e-15 -1.35004e-14)
(-1.12996e-15 -1.96015e-17 -1.36744e-16)
(-1.04198e-17 -1.80561e-19 -1.26097e-18)
(1.82056e-10 -5.27196e-11 4.08326e-11)
(4.62178e-09 -1.33904e-09 1.03684e-09)
(1.15312e-11 -5.56976e-11 2.01969e-11)
(-4.49053e-09 -7.96878e-11 -5.43019e-10)
(-1.70519e-10 -2.99701e-12 -2.06291e-11)
(-3.59747e-12 -6.30272e-14 -4.3527e-13)
(-5.56593e-14 -9.73386e-16 -6.73476e-15)
(-7.04585e-16 -1.2306e-17 -8.52572e-17)
(-7.73011e-18 -1.34866e-19 -9.35388e-19)
(-7.67985e-20 -1.3386e-21 -9.29318e-21)
(4.32257e-08 -1.25132e-08 9.69357e-09)
(1.25482e-06 -3.63252e-07 2.81404e-07)
(4.32251e-08 -1.25132e-08 9.69363e-09)
(8.19525e-10 -2.41604e-10 1.85253e-10)
(1.12736e-11 -3.44753e-12 2.59009e-12)
(1.25255e-13 -4.05279e-14 2.95251e-14)
(1.18632e-15 -4.15451e-16 2.90268e-16)
(9.86395e-18 -3.84309e-18 2.54426e-18)
(7.30381e-20 -3.28105e-20 2.03037e-20)
(4.84895e-22 -2.64618e-22 1.50535e-22)
(-2.46729e-07 -4.25751e-09 -2.98582e-08)
(-2.19117e-05 -3.78903e-07 -2.65167e-06)
(-0.0014827 -2.56933e-05 -0.00017943)
(-0.0585362 -0.0010165 -0.00708383)
(-0.0014827 -2.56933e-05 -0.00017943)
(-2.19117e-05 -3.78903e-07 -2.65167e-06)
(-2.46729e-07 -4.25751e-09 -2.98582e-08)
(-2.34415e-09 -4.03651e-11 -2.8368e-10)
(-1.97972e-11 -3.40179e-13 -2.39578e-12)
(-1.54372e-13 -2.64698e-15 -1.86815e-14)
(-2.33201e-09 -4.0582e-11 -2.8221e-10)
(-1.84192e-07 -3.2087e-09 -2.22902e-08)
(-1.09119e-05 -1.9029e-07 -1.32052e-06)
(-0.000369489 -6.45022e-06 -4.47141e-05)
(-1.09119e-05 -1.9029e-07 -1.32052e-06)
(-1.84192e-07 -3.2087e-09 -2.22902e-08)
(-2.33201e-09 -4.05816e-11 -2.82211e-10)
(-2.46047e-11 -4.27721e-13 -2.97757e-12)
(-2.28453e-13 -3.96717e-15 -2.76465e-14)
(-1.94346e-15 -3.3713e-17 -2.3519e-16)
(-1.1894e-11 -3.25985e-13 -1.39954e-12)
(-8.64203e-10 -1.78222e-11 -1.03664e-10)
(-4.59866e-08 -8.03762e-10 -5.56509e-09)
(-1.36293e-06 -2.38348e-08 -1.64937e-07)
(-4.5987e-08 -8.0365e-10 -5.56517e-09)
(-8.73098e-10 -1.52472e-11 -1.05659e-10)
(-1.22799e-11 -2.14296e-13 -1.48606e-12)
(-1.42493e-13 -2.4849e-15 -1.72439e-14)
(-1.44304e-15 -2.51472e-17 -1.74631e-16)
(-1.33045e-17 -2.31687e-19 -1.61006e-18)
(8.1343e-11 -2.35621e-11 1.82463e-11)
(2.10797e-09 -6.11167e-10 4.73046e-10)
(-6.40445e-11 -2.61055e-11 6.52452e-13)
(-3.83053e-09 -6.75803e-11 -4.63376e-10)
(-1.45408e-10 -2.5521e-12 -1.75939e-11)
(-3.06723e-12 -5.37363e-14 -3.71148e-13)
(-4.74498e-14 -8.30388e-16 -5.7418e-15)
(-6.006e-16 -1.05019e-17 -7.26783e-17)
(-6.58863e-18 -1.15125e-19 -7.97295e-19)
(-6.54517e-20 -1.1429e-21 -7.92041e-21)
(-9.15766e-10 -1.5769e-11 -1.10822e-10)
(-7.22929e-08 -1.24747e-09 -8.74862e-09)
(-4.28052e-06 -7.40197e-08 -5.18012e-07)
(-0.000144866 -2.51035e-06 -1.75312e-05)
(-4.28052e-06 -7.40197e-08 -5.18012e-07)
(-7.22929e-08 -1.24747e-09 -8.74861e-09)
(-9.15766e-10 -1.5769e-11 -1.10822e-10)
(-9.66725e-12 -1.66114e-13 -1.16989e-12)
(-8.98071e-14 -1.53992e-15 -1.08681e-14)
(-7.64401e-16 -1.30793e-17 -9.25048e-17)
(-9.61225e-12 -1.67097e-13 -1.16324e-12)
(-6.8331e-10 -1.1891e-11 -8.26917e-11)
(-3.59844e-08 -6.26861e-10 -4.35469e-09)
(-1.06629e-06 -1.85948e-08 -1.29039e-07)
(-3.59844e-08 -6.26861e-10 -4.35469e-09)
(-6.8331e-10 -1.1891e-11 -8.26916e-11)
(-9.61225e-12 -1.67096e-13 -1.16324e-12)
(-1.11558e-13 -1.93725e-15 -1.35003e-14)
(-1.12996e-15 -1.96015e-17 -1.36743e-16)
(-1.04198e-17 -1.80561e-19 -1.26097e-18)
(-5.50721e-14 -1.14336e-15 -6.60321e-15)
(-3.58571e-12 -6.64324e-14 -4.32633e-13)
(-1.7058e-10 -2.97908e-12 -2.0643e-11)
(-4.49448e-09 -7.85437e-11 -5.43905e-10)
(-1.70581e-10 -2.97891e-12 -2.06431e-11)
(-3.59828e-12 -6.27937e-14 -4.3545e-13)
(-5.56682e-14 -9.70785e-16 -6.73676e-15)
(-7.04675e-16 -1.228e-17 -8.5277e-17)
(-7.73093e-18 -1.34628e-19 -9.35567e-19)
(-7.68056e-20 -1.33656e-21 -9.29471e-21)
(1.12933e-13 -3.27643e-14 2.53495e-14)
(2.63725e-12 -7.67711e-13 5.9286e-13)
(-4.86196e-13 -4.324e-14 -4.71541e-14)
(-1.42137e-11 -2.49469e-13 -1.71982e-12)
(-5.99318e-13 -1.04928e-14 -7.25225e-14)
(-1.39048e-14 -2.43186e-16 -1.68265e-15)
(-2.34651e-16 -4.10078e-18 -2.83958e-17)
(-3.21753e-18 -5.61931e-20 -3.89366e-19)
(-3.8011e-20 -6.63449e-22 -4.59987e-21)
(-4.04811e-22 -7.06148e-24 -4.89879e-23)
(-1.89121e-12 -3.24968e-14 -2.28175e-13)
(-1.34351e-10 -2.31345e-12 -1.62141e-11)
(-7.07046e-09 -1.22006e-10 -8.53526e-10)
(-2.09373e-07 -3.62052e-09 -2.52819e-08)
(-7.07046e-09 -1.22006e-10 -8.53526e-10)
(-1.34351e-10 -2.31345e-12 -1.6214e-11)
(-1.89121e-12 -3.24968e-14 -2.28175e-13)
(-2.19637e-14 -3.76609e-16 -2.6492e-15)
(-2.22616e-16 -3.80914e-18 -2.6844e-17)
(-2.05422e-18 -3.50747e-20 -2.47638e-19)
(-2.18275e-14 -3.79043e-16 -2.6328e-15)
(-1.41044e-12 -2.45187e-14 -1.70172e-13)
(-6.68428e-11 -1.1632e-12 -8.06687e-12)
(-1.76063e-09 -3.06707e-11 -2.12538e-10)
(-6.68428e-11 -1.1632e-12 -8.06686e-12)
(-1.41044e-12 -2.45187e-14 -1.70171e-13)
(-2.18275e-14 -3.79042e-16 -2.63279e-15)
(-2.7639e-16 -4.79455e-18 -3.33284e-17)
(-3.03321e-18 -5.25617e-20 -3.65658e-19)
(-3.01441e-20 -5.21803e-22 -3.63291e-21)
(-1.37148e-16 -2.62062e-18 -1.64574e-17)
(-8.15524e-15 -1.46694e-16 -9.82165e-16)
(-3.52061e-13 -6.14406e-15 -4.24766e-14)
(-8.34874e-12 -1.45796e-13 -1.00756e-12)
(-3.52062e-13 -6.14384e-15 -4.24766e-14)
(-8.16982e-15 -1.42471e-16 -9.85426e-16)
(-1.37899e-16 -2.4031e-18 -1.66285e-17)
(-1.89129e-18 -3.29353e-20 -2.27998e-19)
(-2.23481e-20 -3.88901e-22 -2.69336e-21)
(-2.38057e-22 -4.13972e-24 -2.86823e-23)
(1.29018e-16 -3.7542e-17 2.89394e-17)
(2.73364e-15 -8.01919e-16 6.15476e-16)
(-1.23117e-15 -6.13121e-17 -1.35123e-16)
(-2.9341e-14 -5.14037e-16 -3.53968e-15)
(-1.36076e-15 -2.37987e-17 -1.64125e-16)
(-3.44434e-17 -6.01878e-19 -4.15325e-18)
(-6.29751e-19 -1.09972e-20 -7.59163e-20)
(-9.30047e-21 -1.62314e-22 -1.12086e-21)
(-1.17736e-22 -2.05357e-24 -1.41853e-23)
(-1.33842e-24 -2.3332e-26 -1.61215e-25)
)
;

boundaryField
{
    inlet
    {
        type            calculated;
        value           nonuniform 0();
    }
    outlet
    {
        type            calculated;
        value           uniform (0 0 0);
    }
    bottom
    {
        type            calculated;
        value           uniform (0 0 0);
    }
    top
    {
        type            symmetryPlane;
    }
    side1
    {
        type            symmetryPlane;
    }
    side2
    {
        type            symmetryPlane;
    }
    procBoundary7to6
    {
        type            processor;
        value           nonuniform List<vector> 
20
(
(-1.41709e-14 -2.62204e-15 -9.10443e-16)
(2.95174e-12 -8.54569e-13 6.61956e-13)
(9.34073e-10 -2.704e-10 2.09466e-10)
(2.21672e-07 -6.41707e-08 4.97102e-08)
(-9.66721e-12 -1.66126e-13 -1.16988e-12)
(-9.76801e-14 -5.95468e-15 -1.04016e-14)
(3.95151e-12 -1.14411e-12 8.83772e-13)
(8.33739e-10 -2.41355e-10 1.86992e-10)
(-2.34415e-09 -4.03651e-11 -2.8368e-10)
(-2.46047e-11 -4.27731e-13 -2.97754e-12)
(-1.33337e-13 -5.13545e-15 -1.51959e-14)
(1.73762e-12 -5.03197e-13 3.88773e-13)
(-9.66725e-12 -1.66114e-13 -1.16989e-12)
(-1.11558e-13 -1.93726e-15 -1.3489e-14)
(-6.89312e-16 -1.67275e-17 -8.16321e-17)
(2.64872e-15 -7.67747e-16 5.9063e-16)
(-2.19637e-14 -3.76609e-16 -2.64698e-15)
(-2.76391e-16 -4.79457e-18 -3.32261e-17)
(-1.87027e-18 -3.8984e-20 -2.21947e-19)
(3.29915e-18 -9.57897e-19 7.3153e-19)
)
;
    }
    procBoundary7to15
    {
        type            processor;
        value           nonuniform List<vector> 
50
(
(0.0020355 -0.000589245 0.000456474)
(0.0804117 -0.0232779 0.0180329)
(0.0020355 -0.000589245 0.000456474)
(3.0062e-05 -8.70247e-06 6.7416e-06)
(3.38287e-07 -9.79288e-08 7.58632e-08)
(3.212e-09 -9.29824e-10 7.20313e-10)
(2.71093e-11 -7.84772e-12 6.07944e-12)
(2.09737e-13 -6.07157e-14 4.7035e-14)
(1.51732e-15 -4.39241e-16 3.4027e-16)
(1.04735e-17 -3.03192e-18 2.34876e-18)
(5.86305e-06 -1.69726e-06 1.31483e-06)
(0.000198591 -5.74891e-05 4.45355e-05)
(5.86305e-06 -1.69726e-06 1.31483e-06)
(9.89368e-08 -2.86407e-08 2.21872e-08)
(1.25222e-09 -3.625e-10 2.80818e-10)
(1.32079e-11 -3.82351e-12 2.96195e-12)
(1.22596e-13 -3.549e-14 2.74927e-14)
(1.03449e-15 -2.99476e-16 2.3199e-16)
(8.1058e-18 -2.34658e-18 1.81776e-18)
(6.02701e-20 -1.74481e-20 1.35158e-20)
(9.6584e-09 -2.79596e-09 2.16596e-09)
(2.86308e-07 -8.28816e-08 6.42064e-08)
(9.65801e-09 -2.79596e-09 2.16591e-09)
(1.74241e-10 -5.32319e-11 4.00133e-11)
(2.19465e-12 -7.53013e-13 5.31739e-13)
(2.10148e-14 -8.81382e-15 5.63082e-15)
(1.52748e-16 -9.02902e-17 4.97474e-17)
(7.10308e-19 -8.3731e-19 3.71716e-19)
(-9.52335e-22 -7.18629e-21 2.29582e-21)
(-7.27253e-23 -5.84095e-23 1.0414e-23)
(1.19357e-11 -3.45519e-12 2.67665e-12)
(3.14555e-10 -9.10589e-11 7.05412e-11)
(1.19339e-11 -3.45522e-12 2.67643e-12)
(2.14231e-13 -7.35238e-14 5.1912e-14)
(2.15541e-15 -1.15747e-15 6.6277e-16)
(5.2916e-18 -1.50328e-17 5.72685e-18)
(-2.63528e-19 -1.70505e-19 2.38972e-20)
(-6.55118e-21 -1.74747e-21 -2.4367e-22)
(-1.02156e-22 -1.65466e-23 -7.39858e-24)
(-1.29868e-24 -1.48221e-25 -1.14948e-25)
(1.23039e-14 -3.5618e-15 2.75424e-15)
(2.91863e-13 -8.44898e-14 6.53445e-14)
(1.22996e-14 -3.56187e-15 2.7537e-15)
(2.00316e-16 -8.41179e-17 5.36159e-17)
(5.11425e-19 -1.46957e-18 5.58642e-19)
(-5.19941e-20 -2.11802e-20 5.45337e-22)
(-1.54374e-21 -2.66431e-22 -1.05573e-22)
(-2.854e-23 -3.02407e-24 -2.58995e-24)
(-4.17099e-25 -3.16369e-26 -4.20572e-26)
(-5.28214e-27 -3.12372e-28 -5.62095e-28)
)
;
    }
}


// ************************************************************************* //
