/*--------------------------------*- C++ -*----------------------------------*\
| =========                 |                                                 |
| \\      /  F ield         | OpenFOAM: The Open Source CFD Toolbox           |
|  \\    /   O peration     | Version:  2.4.0                                 |
|   \\  /    A nd           | Web:      www.OpenFOAM.org                      |
|    \\/     M anipulation  |                                                 |
\*---------------------------------------------------------------------------*/
FoamFile
{
    version     2.0;
    format      ascii;
    class       volSymmTensorField;
    location    "0.09";
    object      B;
}
// * * * * * * * * * * * * * * * * * * * * * * * * * * * * * * * * * * * * * //

dimensions      [0 2 -2 0 0 0 0];

internalField   nonuniform List<symmTensor> 
200
(
(3.73458e+11 7.87756e+09 -7.56676e+10 5.28184e+11 7.10598e+10 3.80977e+11)
(7.59647e+11 5.72128e+10 -1.45063e+11 1.3673e+12 1.08059e+11 8.33889e+11)
(1.50401e+12 4.37732e+10 -1.13786e+11 1.83707e+12 8.96747e+10 1.50848e+12)
(7.87304e+10 -2.19267e+10 -1.56075e+11 -2.19685e+11 6.11408e+09 -4.92405e+10)
(1.80622e+12 -4.72537e+09 -3.59198e+11 2.8672e+12 3.583e+11 1.83799e+12)
(1.89129e+11 1.65309e+10 -1.11295e+11 2.92936e+11 7.83891e+10 2.2568e+11)
(1.2969e+12 1.64734e+11 -4.12191e+11 1.96599e+12 3.97648e+11 1.34292e+12)
(2.22901e+11 -1.0053e+10 -8.80895e+10 1.21912e+11 3.39074e+10 1.91861e+11)
(1.60292e+12 5.26085e+10 -3.02306e+11 2.17782e+12 2.86571e+11 1.7047e+12)
(3.89639e+11 2.28638e+09 -1.30575e+11 4.37704e+11 7.99722e+10 4.27441e+11)
(3.40295e+11 3.67731e+10 -6.95617e+10 4.70401e+11 8.63024e+10 3.35891e+11)
(3.5448e+11 4.9147e+10 -7.24338e+10 4.64088e+11 1.03133e+11 3.64568e+11)
(5.10265e+11 1.01425e+11 -1.05522e+11 7.24719e+11 1.27895e+11 5.23687e+11)
(4.98815e+11 5.88964e+10 -9.05849e+10 6.29735e+11 1.35418e+11 5.21752e+11)
(3.78001e+11 4.25551e+10 -8.95612e+10 6.33756e+11 1.57046e+11 4.16523e+11)
(6.8825e+11 5.48129e+10 -1.71036e+11 9.83324e+11 1.89942e+11 7.88644e+11)
(6.17956e+11 4.38345e+10 -1.42449e+11 7.31702e+11 1.01902e+11 6.4898e+11)
(9.7157e+11 7.79463e+10 -2.85649e+11 1.17351e+12 3.14692e+11 1.01301e+12)
(6.17845e+11 1.38579e+10 -1.40648e+11 7.30876e+11 1.48736e+11 6.22572e+11)
(1.25013e+12 7.63301e+10 -3.1518e+11 1.54153e+12 3.23443e+11 1.31515e+12)
(3.45134e+11 2.65181e+10 -4.80354e+10 3.94795e+11 7.55285e+10 3.34197e+11)
(4.29326e+11 3.43417e+10 -6.10489e+10 5.1262e+11 8.4488e+10 4.23913e+11)
(4.97963e+11 3.58922e+10 -6.39758e+10 6.22498e+11 1.13688e+11 5.14965e+11)
(5.9503e+11 4.64307e+10 -1.40364e+11 7.76158e+11 7.61505e+10 6.54436e+11)
(1.36091e+12 1.91552e+10 -9.35366e+10 1.66545e+12 2.14875e+11 1.38899e+12)
(1.84284e+12 -3.51362e+10 -2.51895e+10 2.03797e+12 3.91495e+11 1.76939e+12)
(8.37786e+11 -5.199e+09 -1.67358e+11 9.35185e+11 1.81566e+11 8.42992e+11)
(4.69302e+11 6.10039e+10 -1.83366e+11 5.21853e+11 1.29385e+11 5.28022e+11)
(1.12804e+12 6.91841e+10 -1.8949e+11 1.25907e+12 2.98401e+11 1.21282e+12)
(1.14236e+12 1.27873e+10 -1.65916e+11 1.38412e+12 2.749e+11 1.0902e+12)
(3.44366e+11 3.40127e+10 -4.97327e+10 4.01977e+11 7.69459e+10 3.51496e+11)
(6.76621e+11 4.74387e+10 -5.53456e+10 8.19391e+11 1.18103e+11 7.13066e+11)
(4.961e+11 3.78459e+10 -5.94111e+10 6.46776e+11 1.34383e+11 5.62737e+11)
(1.46797e+12 1.50927e+11 -8.00404e+10 1.7655e+12 1.78218e+11 1.58681e+12)
(3.05767e+12 5.72998e+10 -2.05211e+11 3.47175e+12 2.45718e+11 3.17998e+12)
(1.5229e+12 -1.15446e+11 -9.68137e+10 1.64557e+12 3.45775e+11 1.47263e+12)
(9.67367e+11 -3.87685e+10 -3.71855e+10 9.68516e+11 2.2538e+11 9.12047e+11)
(8.5723e+11 6.25481e+10 -1.13899e+11 8.52057e+11 2.4254e+11 7.76481e+11)
(1.70693e+12 2.07013e+11 -2.08697e+11 1.6613e+12 2.21927e+11 1.72565e+12)
(1.17734e+12 7.88458e+10 -1.60827e+11 1.22517e+12 3.31016e+11 1.29107e+12)
(1.73738e+11 5.61167e+10 9.34858e+09 3.22254e+11 4.29315e+10 2.03602e+11)
(1.38824e+11 4.72129e+10 9.89145e+09 2.16883e+11 4.58901e+10 1.72736e+11)
(1.48131e+11 5.84313e+10 4.16769e+10 2.98423e+11 3.44232e+10 1.67152e+11)
(2.51382e+11 8.33227e+10 1.96179e+10 3.91578e+11 5.38433e+10 3.05058e+11)
(4.16048e+11 4.77338e+10 7.77422e+09 4.96541e+11 2.93589e+09 4.36089e+11)
(-1.93136e+09 2.94543e+10 2.84042e+10 1.55486e+11 7.2237e+10 8.30347e+10)
(-3.14473e+09 -2.14683e+10 1.29617e+10 2.18538e+10 3.55406e+09 2.18174e+09)
(1.32544e+11 2.42573e+10 1.11925e+10 2.91613e+11 5.88533e+10 1.85804e+11)
(1.54059e+11 5.33196e+09 1.73508e+09 1.75547e+11 -2.91006e+09 1.58833e+11)
(1.99851e+11 1.44004e+09 7.9241e+10 3.33412e+11 5.16189e+10 2.32149e+11)
(5.31442e+10 1.208e+10 5.34905e+09 8.68213e+10 1.50202e+10 5.89237e+10)
(7.87831e+10 2.0623e+10 7.58181e+09 1.2533e+11 1.46042e+10 8.07197e+10)
(1.22646e+11 2.96622e+10 1.19881e+10 1.58045e+11 1.77885e+10 1.18733e+11)
(1.23333e+11 1.86449e+10 7.13509e+09 1.79143e+10 1.68281e+10 6.11614e+10)
(4.01771e+11 4.03646e+10 1.21708e+10 5.94398e+11 9.91536e+09 4.8261e+11)
(1.25331e+13 6.00877e+10 1.54747e+10 1.32948e+13 -3.70688e+10 1.27357e+13)
(1.9591e+09 -1.77133e+10 1.62616e+10 8.06006e+10 3.46423e+10 3.67147e+10)
(2.83034e+11 5.57994e+10 -3.59072e+10 1.25617e+11 2.40609e+10 2.00246e+11)
(3.14976e+11 3.17226e+10 -1.98158e+10 4.43723e+11 1.15208e+10 4.05563e+11)
(1.29212e+12 4.23487e+09 3.32209e+09 1.45951e+12 -7.51186e+10 1.30406e+12)
(1.9247e+10 7.84216e+09 2.42522e+09 5.26757e+10 6.33855e+09 2.95378e+10)
(1.1878e+11 1.67753e+10 3.73927e+09 1.54351e+11 1.14533e+10 1.19589e+11)
(2.59795e+11 -6.07011e+10 1.09989e+10 4.82816e+11 4.36205e+09 4.20743e+11)
(7.35399e+11 9.57247e+10 -2.70782e+10 7.0127e+11 3.32444e+09 6.93551e+11)
(3.03539e+13 7.03145e+11 -1.06835e+11 2.97688e+13 2.58746e+10 2.97946e+13)
(1.23034e+12 7.17245e+09 2.98722e+10 1.72771e+12 1.89616e+10 1.58408e+12)
(9.67306e+12 -4.58832e+11 1.49209e+11 1.01281e+13 6.10691e+10 1.00236e+13)
(2.67351e+12 9.30842e+10 1.40967e+10 2.52906e+12 2.69939e+10 2.49148e+12)
(4.31819e+12 3.35264e+11 -1.66395e+11 4.17533e+12 3.22877e+10 4.21955e+12)
(6.60137e+11 7.71884e+10 -8.42676e+10 7.44871e+11 2.88203e+10 7.57882e+11)
(2.33656e+10 3.80109e+09 5.08682e+09 4.24716e+10 6.26883e+09 2.25432e+10)
(2.63612e+11 3.97981e+10 4.03874e+09 2.64759e+11 2.88693e+09 2.53819e+11)
(1.71909e+10 -1.47385e+09 1.18584e+10 7.55875e+10 4.10683e+09 3.88394e+10)
(4.26365e+11 -3.05563e+09 7.01871e+08 6.11417e+11 -9.04877e+09 5.32553e+11)
(4.41673e+12 2.31913e+11 1.7359e+10 4.03935e+12 -1.35467e+10 4.13262e+12)
(2.88891e+12 1.03912e+11 2.77055e+10 2.13622e+12 6.79435e+10 2.70062e+12)
(7.15466e+11 5.72358e+10 5.09045e+10 1.06701e+12 7.28945e+10 9.92374e+11)
(2.15334e+12 -8.31454e+09 1.94623e+11 2.95676e+12 1.79262e+11 2.53006e+12)
(2.59078e+12 1.58102e+11 8.99037e+10 2.42189e+12 2.60703e+10 2.45948e+12)
(1.55065e+12 2.49399e+11 -1.15045e+11 1.29564e+12 7.70846e+10 1.57563e+12)
(4.96581e+10 2.39924e+10 7.15275e+09 8.3667e+10 1.82631e+10 9.02245e+10)
(3.70007e+10 1.734e+10 7.66054e+09 6.06538e+10 9.41327e+09 6.39215e+10)
(5.47678e+10 3.51583e+10 1.03833e+10 7.93395e+10 1.85843e+10 9.25711e+10)
(8.98132e+10 3.19011e+10 7.5347e+09 1.29769e+11 2.92965e+09 1.19545e+11)
(1.01673e+11 4.37862e+10 1.05575e+10 1.75151e+11 4.43201e+09 1.57473e+11)
(5.46699e+10 1.69076e+10 1.3974e+10 1.15115e+11 -1.19207e+10 9.06297e+10)
(1.05985e+11 8.83819e+09 1.98204e+10 2.15776e+11 3.0621e+09 1.71354e+11)
(4.19141e+10 -1.4535e+10 7.45029e+09 7.03228e+10 -1.87941e+08 5.07346e+10)
(2.94392e+11 2.87466e+10 7.78697e+09 1.70917e+11 3.79097e+10 2.36462e+11)
(2.7037e+11 -4.75601e+10 1.97275e+10 2.34722e+10 -4.00691e+10 2.20071e+11)
(4.22073e+10 1.37531e+10 4.49058e+09 6.72041e+10 8.69954e+09 6.10303e+10)
(3.39135e+10 1.24826e+10 4.28815e+09 6.55835e+10 1.00103e+10 5.48713e+10)
(7.79405e+10 3.10093e+10 1.4381e+09 9.56858e+10 1.1462e+10 8.98508e+10)
(4.75321e+10 3.52524e+10 -2.20935e+09 4.60935e+10 1.40047e+10 5.73132e+10)
(4.07148e+11 4.88973e+10 -1.37906e+10 5.36324e+11 -2.15493e+10 4.75274e+11)
(1.23507e+11 2.38926e+10 1.2054e+10 2.65632e+11 2.41791e+10 2.11955e+11)
(2.57533e+12 7.26678e+10 4.4e+10 2.97005e+12 9.88123e+09 2.73167e+12)
(7.10082e+11 -9.43451e+10 7.05055e+10 8.68444e+11 8.23778e+09 7.87322e+11)
(8.83875e+11 -2.97522e+11 -9.14031e+10 1.27179e+12 7.05197e+09 1.26888e+12)
(5.53454e+13 1.43925e+12 -9.08317e+11 5.44684e+13 1.00878e+11 5.46308e+13)
(3.72583e+10 9.4626e+09 5.54319e+09 5.28657e+10 3.01418e+09 4.60098e+10)
(3.51282e+10 5.19598e+09 8.22005e+09 6.45873e+10 2.86819e+09 5.34789e+10)
(1.35184e+10 -8.03924e+09 9.18464e+09 6.26151e+10 3.54652e+09 4.87226e+10)
(7.52221e+11 7.14952e+10 -1.1847e+10 7.01246e+11 3.45515e+10 7.01168e+11)
(1.96247e+11 7.97761e+10 1.6814e+10 2.17486e+11 -6.98709e+09 2.62514e+11)
(5.37234e+12 1.79544e+11 1.42897e+10 5.27796e+12 -1.3461e+11 5.33339e+12)
(6.70032e+11 1.05726e+11 1.7792e+10 9.11584e+11 5.46578e+10 7.94956e+11)
(1.95653e+12 -4.45413e+10 1.23235e+10 2.16815e+12 2.08208e+10 2.0922e+12)
(8.70256e+11 -1.28914e+11 1.30272e+11 1.26769e+12 -3.56469e+10 1.05105e+12)
(4.36273e+12 1.4455e+10 -2.14752e+11 4.81204e+12 6.76245e+10 4.53598e+12)
(8.35447e+10 8.48717e+09 4.95014e+09 1.0647e+11 1.47575e+09 9.43948e+10)
(9.65837e+10 8.31151e+09 5.05932e+09 1.20147e+11 1.3055e+09 1.04151e+11)
(2.25512e+10 2.4961e+09 8.43098e+09 8.98051e+10 -1.01334e+10 6.24912e+10)
(1.66073e+11 -3.88442e+09 1.49546e+10 1.75527e+11 6.22343e+09 1.53677e+11)
(1.85628e+11 1.74354e+10 1.97924e+10 1.1314e+11 3.11346e+10 1.59229e+11)
(3.71499e+12 2.99383e+11 4.14885e+10 3.57644e+12 -4.92822e+10 3.59874e+12)
(2.17073e+12 4.78984e+11 5.39885e+10 1.05142e+12 -1.88397e+10 1.87624e+12)
(3.26201e+11 1.25388e+11 -8.00325e+10 7.19037e+11 9.22305e+10 7.2906e+11)
(3.53355e+12 -1.39677e+11 1.09016e+11 4.37236e+12 1.01174e+11 3.8286e+12)
(9.20658e+10 1.16158e+11 2.14196e+11 7.47493e+11 -2.54957e+10 4.18648e+11)
(2.82452e+10 2.12719e+10 4.82127e+09 5.03805e+10 6.91659e+08 8.22457e+10)
(1.89875e+10 1.72449e+10 3.67714e+09 2.98891e+10 7.90279e+08 5.46894e+10)
(4.71478e+10 2.02482e+10 3.80279e+09 7.35339e+10 -4.72805e+09 9.13325e+10)
(4.08205e+10 1.84853e+10 1.84801e+09 6.79364e+10 -2.2561e+09 7.75724e+10)
(4.82457e+10 2.16743e+10 3.23599e+09 8.15134e+10 -1.09732e+10 9.52911e+10)
(2.43557e+10 1.94868e+10 3.8483e+09 4.31846e+10 -6.00458e+09 5.89793e+10)
(6.6374e+10 2.25993e+10 7.42556e+09 1.08591e+11 -1.71781e+10 1.10642e+11)
(4.39194e+10 1.83323e+10 8.72479e+09 6.98458e+10 -5.05679e+09 6.9961e+10)
(7.70927e+10 3.23483e+10 -4.26085e+07 1.19556e+11 -1.058e+10 1.19952e+11)
(1.86405e+11 4.25126e+10 -2.01174e+10 2.49655e+11 -5.70236e+09 2.3694e+11)
(1.34561e+10 7.13229e+09 1.71573e+09 2.61203e+10 1.33523e+09 2.98045e+10)
(3.69685e+10 1.3616e+10 1.23679e+09 5.81324e+10 1.67394e+09 6.4315e+10)
(2.63465e+10 1.28309e+10 1.15873e+09 4.13297e+10 1.82891e+09 4.45922e+10)
(8.44637e+10 2.29305e+10 -2.70816e+09 1.25744e+11 -4.71223e+09 1.24964e+11)
(4.35211e+10 1.12152e+10 -1.72591e+09 7.67112e+10 -3.76336e+09 7.29332e+10)
(6.79742e+10 1.98718e+10 1.87303e+09 1.13591e+11 -7.85847e+09 1.19381e+11)
(9.12692e+10 1.90735e+10 9.15715e+09 1.37594e+11 -7.324e+09 1.26633e+11)
(1.66222e+11 1.68274e+10 2.92129e+10 2.51866e+11 -5.59448e+09 2.19522e+11)
(8.73108e+10 1.80116e+10 1.77375e+10 1.1248e+11 1.55672e+10 7.06539e+10)
(3.03126e+11 6.76889e+10 4.84755e+10 4.70989e+11 8.34993e+10 5.06582e+11)
(2.27509e+10 7.59024e+09 2.46651e+09 3.53702e+10 1.64691e+09 4.04019e+10)
(1.23759e+10 7.07122e+09 2.58297e+09 2.41145e+10 6.32228e+07 2.43796e+10)
(5.21821e+10 1.82298e+10 -7.98787e+07 7.11202e+10 3.34931e+09 7.11457e+10)
(4.53158e+10 1.90161e+10 4.52204e+09 6.22351e+10 8.83707e+09 5.97428e+10)
(2.60984e+11 1.52689e+10 -2.70441e+09 3.18373e+11 -1.47582e+10 3.20718e+11)
(1.03499e+11 1.50098e+10 9.26387e+09 1.4475e+11 -2.45206e+09 1.1799e+11)
(4.27218e+11 3.27437e+10 -1.6353e+10 5.0158e+11 -2.59758e+10 4.68837e+11)
(2.61323e+11 2.32103e+10 1.85594e+10 3.73725e+11 1.55862e+10 3.27477e+11)
(5.49912e+11 1.45822e+10 2.37525e+10 6.0734e+11 2.00337e+10 5.22064e+11)
(4.68905e+11 1.32112e+11 1.27938e+11 4.0641e+11 1.05348e+11 3.33837e+11)
(1.42964e+10 5.48455e+09 1.82131e+09 1.77295e+10 5.58195e+07 1.92761e+10)
(3.50948e+10 1.18973e+10 3.71728e+09 5.3893e+10 -9.31453e+08 5.56226e+10)
(6.72139e+10 1.53648e+10 1.25845e+10 9.55164e+10 2.04181e+08 8.44977e+10)
(1.4277e+11 4.11447e+10 -4.29731e+09 1.35952e+11 6.27043e+09 1.47957e+11)
(1.34225e+11 3.10515e+10 1.34675e+09 1.36571e+11 1.26773e+10 1.45191e+11)
(2.91552e+11 3.93906e+10 3.64028e+10 3.5678e+11 -9.38154e+09 3.4632e+11)
(1.3875e+12 6.60247e+10 3.72826e+10 1.47715e+12 -6.43085e+08 1.36342e+12)
(6.01698e+11 6.98228e+10 -4.66867e+10 7.1178e+11 5.56018e+09 6.34604e+11)
(1.8496e+11 5.27278e+10 -7.74411e+10 4.50931e+11 6.04932e+10 3.28403e+11)
(3.97723e+11 4.31424e+10 -6.95063e+10 3.62718e+11 4.02301e+10 2.74136e+11)
(3.41677e+10 1.26429e+10 1.37592e+09 6.50036e+10 -2.91529e+09 6.12925e+10)
(6.93593e+10 2.85907e+10 7.79556e+08 1.77364e+11 -1.19351e+10 1.43228e+11)
(1.38195e+10 1.43589e+10 6.42374e+08 3.59525e+10 9.32333e+08 3.72687e+10)
(1.08677e+11 2.41294e+10 6.45575e+08 1.75922e+11 -9.97536e+09 1.50512e+11)
(2.75542e+10 1.09159e+10 4.44647e+08 4.52791e+10 -2.73251e+09 4.38388e+10)
(6.19612e+10 2.61759e+10 2.69905e+08 1.36773e+11 -1.35566e+10 1.09694e+11)
(1.61818e+10 1.51631e+10 3.05926e+08 3.83132e+10 -1.23377e+09 3.58703e+10)
(1.01688e+11 3.16122e+10 4.44021e+08 1.71036e+11 -1.30507e+10 1.40309e+11)
(5.37713e+10 2.34119e+10 -1.39479e+09 8.79065e+10 -4.2332e+09 7.63168e+10)
(1.33791e+11 5.19137e+10 -7.59969e+09 2.49227e+11 -2.84524e+10 2.0344e+11)
(3.56528e+10 9.98716e+09 -1.24248e+08 6.32318e+10 -1.86047e+09 6.48162e+10)
(2.03189e+10 8.4742e+09 7.94427e+08 3.66041e+10 -4.46359e+08 3.95311e+10)
(5.03079e+10 1.65676e+10 -1.25119e+09 8.52841e+10 -3.2844e+09 8.52843e+10)
(2.99718e+10 1.22785e+10 -1.50347e+08 5.2966e+10 -1.36525e+09 5.4439e+10)
(6.60468e+10 2.01949e+10 -3.89447e+08 1.12789e+11 -5.95747e+09 1.10656e+11)
(3.21779e+10 1.34948e+10 9.68185e+08 6.16616e+10 -1.5005e+09 6.2103e+10)
(7.59232e+10 1.97911e+10 -3.83396e+08 1.34581e+11 -8.34114e+09 1.28787e+11)
(3.55133e+10 1.85409e+10 9.5902e+08 7.735e+10 -5.02691e+09 7.2784e+10)
(8.02304e+10 2.25157e+10 -9.63453e+09 1.56802e+11 -9.08732e+09 1.38147e+11)
(9.27299e+10 3.18894e+10 -5.4574e+09 1.94673e+11 3.51245e+09 1.67802e+11)
(1.55463e+10 5.57821e+09 1.29282e+09 2.4422e+10 7.45054e+08 2.89055e+10)
(3.13133e+10 1.07101e+10 -3.05782e+08 4.84984e+10 -5.18654e+08 5.4528e+10)
(2.8273e+10 9.97813e+09 1.82261e+09 4.15726e+10 1.31037e+09 4.42277e+10)
(7.3588e+10 1.71916e+10 -7.0425e+08 1.04543e+11 -2.77049e+09 1.05851e+11)
(6.0667e+10 1.18185e+10 4.01596e+08 8.71741e+10 8.55395e+08 8.30331e+10)
(7.84969e+10 1.65214e+10 7.71648e+08 1.22386e+11 -6.37433e+08 1.16615e+11)
(8.23191e+10 1.28954e+10 9.11205e+07 1.19249e+11 -9.10018e+08 1.07886e+11)
(9.63749e+10 1.94696e+10 4.91764e+08 1.59027e+11 -7.10744e+09 1.49037e+11)
(2.98738e+11 5.96959e+10 3.15243e+10 3.45269e+11 9.4041e+08 3.27835e+11)
(3.10585e+11 7.13093e+10 -3.66765e+10 3.84772e+11 4.17849e+09 3.19162e+11)
(2.43243e+10 6.66154e+09 -2.39185e+08 2.96862e+10 -2.64421e+08 3.9357e+10)
(2.44518e+10 7.50477e+09 2.0491e+09 2.84688e+10 7.93132e+08 3.42851e+10)
(5.43761e+10 1.52329e+10 5.94539e+08 6.75253e+10 -1.76614e+09 7.32106e+10)
(9.74735e+10 1.67903e+10 4.19822e+09 1.20279e+11 3.65767e+09 1.11485e+11)
(1.19276e+11 1.86191e+10 1.09559e+09 1.5844e+11 -9.69418e+09 1.57205e+11)
(1.17711e+11 2.00542e+10 -4.72725e+08 1.62704e+11 3.84466e+09 1.40552e+11)
(1.53316e+11 2.05842e+10 -1.21421e+09 2.33987e+11 -6.31937e+09 1.84267e+11)
(1.32623e+11 2.38587e+10 -6.07847e+09 1.80562e+11 1.31123e+09 1.06286e+11)
(2.70167e+11 1.07328e+11 -5.29397e+09 2.63755e+11 -1.89517e+10 2.64739e+11)
(2.17925e+11 6.54398e+10 3.45762e+10 2.46735e+11 9.35384e+09 2.34542e+11)
)
;

boundaryField
{
    inlet
    {
        type            calculated;
        value           nonuniform 0();
    }
    outlet
    {
        type            calculated;
        value           nonuniform 0();
    }
    bottom
    {
        type            calculated;
        value           nonuniform List<symmTensor> 
40
(
(-16433.3 2160.92 -38263 26010 22693.7 -12293.2)
(-8725.18 8274.81 -33208.2 20551.7 33218.6 -16097)
(-3628.04 8297.99 -27904.8 11911.8 42826.8 -5461.55)
(-7425.3 10888.5 -30344.6 11017.6 46462.7 -5882.16)
(-26632.9 7255.6 -41425.6 50427.9 23362.8 -39243.2)
(-11284.6 11919.2 -35754.5 15297.8 41006.1 -6264.31)
(-5983.31 9542.12 -31679.8 17160.6 43480.7 -11322)
(-15036.2 12983.5 -30464 24038.8 59961.7 -7621.19)
(-12920.7 8742.42 -51070 53598.9 22528.3 -5841.81)
(-11385.9 16916.2 -39598.7 24381.8 39628 -16925)
(-11362.6 9045 -31184.3 20020.7 52675.2 -8051.94)
(-22063.3 9983.94 -37635.5 17685.6 65141.8 -5294.96)
(2827.89 -2803.56 -47524 -35327.6 15208.9 -35744.1)
(-11598.6 12670.8 -42697.2 16567.2 50924.1 -3836.83)
(-18472.8 10642.8 -41554.7 23045.1 53733.3 -11033.7)
(-29513.5 33700.4 -41590.6 36920.8 82723.7 -5373.98)
(-10064.5 -297.241 -47678.4 56674.8 34087.1 5552.21)
(-15780.6 6769.45 -44034.3 24903.6 44114.8 -17319.3)
(-20912.3 3993.71 -45341.3 42581 68480.9 -17575.5)
(-29584.8 11974.7 -69768.2 56951.2 115896 1949.55)
(-18816.3 4139.79 -57211.1 7179.71 27888.5 -28184.5)
(-18664.1 8286.7 -51254 25945.5 52697.4 5624.46)
(-14372.9 -6954.14 -46812.9 24246.4 55020 -17274.2)
(-4451.74 -19751.8 -65624.9 16536.4 88152.9 -37343.7)
(-8623.18 11429.6 -59949.7 37800.2 45369.9 8454.35)
(-14253 10847.1 -61721.3 13894.3 52115.8 -14448.4)
(-6225.62 -1001.4 -46396.4 12534.7 63179.4 -7569.19)
(5557.49 -7997.26 -46792.1 5794.64 72618 -4665.31)
(4832.65 -3444.72 -62206.3 -29771.9 29157.4 -21902.7)
(-6775.54 8735.15 -61888.9 15855.4 62398.7 30.8739)
(-7301.05 10264.1 -53685.4 1540.89 61511.6 -3694.78)
(7930.23 9205.17 -51948.4 7168.92 61518.9 -4917.31)
(-13586.6 5340.58 -58073.3 44774.6 54820.7 12342.2)
(-10944.9 3021.37 -63247.9 13698.8 58240.2 -15894.4)
(-11732.1 11026.1 -56038.5 9149.24 79174.8 -5016.59)
(4981.15 35106.5 -62327.3 -2756.5 75072.4 14227.5)
(-13948.7 640.427 -72644.4 -485.294 37846.5 -18481.1)
(-11411.6 9013.76 -69119.3 22999.9 64142.2 1207.64)
(-12059.2 2160.07 -60556.8 28780.4 66842.2 -2812.84)
(-8833.28 12303.5 -64487.4 -1369.5 101143 -23719.8)
)
;
    }
    top
    {
        type            symmetryPlane;
    }
    side1
    {
        type            symmetryPlane;
    }
    side2
    {
        type            symmetryPlane;
    }
    procBoundary10to2
    {
        type            processor;
        value           nonuniform List<symmTensor> 
50
(
(-2.63026e+11 -1.42838e+11 -1.20592e+11 4.06652e+11 -1.22143e+10 -1.79847e+11)
(-1.41053e+11 -1.80678e+11 -7.70991e+10 4.52835e+11 -2.82869e+10 -9.5953e+10)
(3.57766e+11 3.2168e+11 7.22188e+10 -6.60325e+11 -2.0701e+11 -7.69486e+10)
(-1.91973e+11 5.37106e+10 -2.16799e+11 1.53642e+12 5.08404e+11 1.35539e+11)
(-9.61936e+11 -1.09701e+12 -9.31748e+11 -4.9538e+11 -1.51377e+11 -8.99717e+10)
(-4.06599e+11 3.82396e+11 -4.68194e+11 8.03548e+11 3.99755e+11 -1.04746e+11)
(2.66921e+11 2.62812e+11 -1.43887e+11 1.81881e+11 8.08385e+10 -4.98103e+10)
(-1.20071e+11 -6.59112e+10 -1.25613e+11 1.53917e+10 2.49096e+11 5.33538e+10)
(-2.61109e+11 -2.77356e+11 -3.59873e+11 9.58554e+10 5.79597e+10 6.95599e+09)
(-7.30418e+09 1.05354e+11 -1.72437e+11 7.98287e+10 1.57871e+11 1.21171e+10)
(-9.21926e+10 1.71508e+10 -7.26716e+09 2.27024e+11 6.49748e+10 -7.83734e+08)
(-1.68924e+10 -5.84868e+10 6.90206e+10 -3.29157e+11 -2.97707e+10 -6.93368e+10)
(-6.9676e+10 -5.93552e+10 4.02463e+10 5.9753e+11 2.67231e+11 -5.7259e+10)
(-5.07478e+10 2.31754e+10 -1.10725e+10 2.01883e+10 -7.28426e+10 -1.22943e+11)
(-5.07292e+10 6.91939e+10 6.15989e+10 4.95109e+11 2.82755e+11 -6.03865e+10)
(-2.47045e+09 -9.52289e+09 -2.51703e+08 -3.42785e+10 -2.14996e+10 -1.90814e+10)
(-2.0086e+11 -1.57739e+09 6.38347e+10 6.75161e+11 1.68805e+11 -3.63686e+10)
(-1.67315e+10 -8.87513e+09 -5.04845e+09 7.44885e+09 -1.56669e+10 -2.10351e+10)
(-6.89764e+10 9.16581e+10 8.65856e+10 2.08081e+11 1.13339e+11 -2.86602e+10)
(-2.33038e+10 2.99421e+09 4.50334e+09 3.59956e+07 -1.01398e+10 -1.62483e+10)
(-8.05585e+10 5.05008e+10 4.25294e+10 1.66505e+08 1.36747e+10 4.67167e+10)
(-7.10769e+10 4.56956e+10 3.01804e+10 1.1148e+11 1.04269e+11 9.54861e+10)
(-1.48014e+10 4.83523e+09 8.23286e+09 -8.97626e+08 1.68536e+09 7.84578e+09)
(-5.23623e+10 3.72767e+10 4.14628e+10 9.81966e+10 6.11708e+10 7.40545e+10)
(-3.27126e+09 1.31733e+09 3.24721e+09 -4.40592e+09 -2.16632e+09 8.71571e+08)
(-3.92033e+10 1.8906e+10 1.44192e+10 7.95741e+10 3.5546e+10 4.11522e+10)
(-8.81766e+09 8.66518e+08 1.71614e+09 2.09232e+09 -3.64324e+09 8.28861e+08)
(-2.82026e+10 2.27358e+10 2.53077e+10 3.99135e+10 2.30067e+10 2.6286e+10)
(-4.77785e+09 7.95108e+09 3.90613e+09 6.90679e+08 -2.97961e+09 -7.21692e+08)
(-1.03339e+11 1.05678e+11 2.13188e+10 9.15244e+10 1.33478e+10 7.54242e+09)
(-2.27073e+10 2.95737e+10 4.98923e+09 1.16352e+10 8.67191e+09 2.57355e+10)
(-8.02689e+10 4.21273e+10 3.34854e+10 5.18569e+09 -7.30177e+10 8.17088e+10)
(-3.83718e+10 1.57517e+10 1.1146e+10 -3.97751e+09 9.17661e+09 3.70387e+10)
(-2.71339e+10 2.16851e+10 3.73923e+09 -1.1386e+10 -3.01269e+10 2.82047e+10)
(-1.41641e+10 1.23898e+10 1.14492e+09 3.29657e+09 1.57967e+09 1.22238e+10)
(-2.19207e+10 1.00098e+10 4.46838e+09 -7.9279e+09 -2.56832e+10 1.69784e+10)
(-1.72311e+10 1.00243e+10 3.23829e+09 1.45778e+09 -5.4422e+08 9.25074e+09)
(-1.75008e+10 1.36444e+10 3.73816e+08 1.1296e+09 -1.72828e+10 1.12101e+10)
(-1.69799e+10 1.58537e+10 -1.80616e+09 4.33841e+09 -1.37155e+09 6.28164e+09)
(-3.35643e+10 1.62862e+10 -3.29214e+09 1.36021e+10 -2.38987e+10 1.0186e+10)
(-7.4568e+10 5.98568e+10 -3.69352e+09 1.23476e+11 -5.57216e+10 1.80107e+10)
(-2.28525e+10 2.12012e+10 -8.21259e+09 -1.59883e+09 1.55654e+10 9.38667e+08)
(-9.04518e+10 5.65671e+10 2.70325e+09 1.59573e+11 -3.6976e+10 2.29201e+10)
(-2.5121e+10 1.66092e+10 1.25101e+10 -2.30284e+09 7.88689e+09 -2.57464e+09)
(-4.0884e+10 6.517e+10 -4.41791e+09 9.22836e+10 -4.15839e+10 -8.24076e+08)
(-1.00009e+10 8.29864e+09 -3.98224e+09 4.69808e+08 6.73796e+09 -1.41721e+09)
(-6.26274e+10 2.94145e+10 -1.35686e+09 8.64579e+10 -3.20091e+10 5.63592e+09)
(-1.34151e+10 7.66232e+09 3.52771e+09 2.75928e+09 3.40168e+09 -2.92747e+09)
(-3.10489e+10 2.96257e+10 -1.01529e+09 4.64409e+10 -1.87646e+10 -2.24218e+09)
(-1.38546e+10 9.1956e+09 -3.25433e+09 8.66692e+09 2.42804e+09 -1.85508e+09)
)
;
    }
    procBoundary10to9
    {
        type            processor;
        value           nonuniform List<symmTensor> 
20
(
(-6.79202e+10 -2.16321e+10 -9.37039e+10 2.39579e+11 7.28506e+10 -9.88288e+10)
(-2.04116e+10 2.10331e+10 -4.90942e+10 4.21609e+10 7.05924e+10 -3.23736e+10)
(-4.44378e+09 2.23007e+10 -4.18113e+10 3.07217e+10 6.35356e+10 -2.30388e+10)
(-1.00727e+10 2.45836e+10 -3.7885e+10 3.38109e+10 7.78391e+10 -1.63112e+10)
(-4.05979e+10 1.74841e+10 1.66717e+09 3.79375e+10 3.8416e+10 -9.35946e+09)
(-1.46341e+10 1.34374e+10 5.27016e+09 2.98761e+10 1.34201e+10 -1.03204e+10)
(-1.44488e+10 2.64297e+09 4.99383e+09 2.61721e+10 8.68551e+09 -8.20229e+09)
(-1.94389e+10 -3.38721e+09 6.30548e+09 1.82495e+10 5.47304e+09 -7.3105e+09)
(-2.75471e+10 1.25876e+10 5.89115e+09 9.37548e+09 1.50737e+10 1.01838e+10)
(-1.16026e+10 6.84139e+09 4.59565e+09 7.08816e+09 7.65567e+09 2.54352e+09)
(-8.48745e+09 7.01351e+09 4.40657e+09 7.40368e+09 2.59992e+09 1.98999e+09)
(-6.22302e+09 7.66934e+09 5.27706e+09 1.07453e+10 -4.18167e+08 -1.71469e+09)
(-2.28477e+10 1.36677e+10 3.569e+09 1.43432e+09 1.74428e+09 1.41869e+10)
(-1.47073e+10 7.55077e+09 2.75531e+09 6.13811e+09 2.49216e+09 1.06947e+10)
(-5.49183e+09 3.36885e+09 1.63045e+09 7.05508e+08 1.01418e+09 2.96018e+09)
(-4.66988e+09 6.05129e+09 1.75755e+09 -7.88115e+08 6.10813e+08 6.41963e+09)
(-6.16383e+10 2.74503e+10 2.7214e+09 5.9583e+10 -1.17318e+10 2.61023e+10)
(-1.08655e+10 4.45774e+09 8.95662e+08 3.08396e+09 -1.95125e+08 5.71736e+09)
(-1.02466e+10 5.80904e+09 1.08712e+08 2.83073e+09 -1.18369e+08 9.65942e+09)
(-3.25742e+09 3.4165e+09 9.12046e+08 -1.67435e+09 8.42878e+08 4.2378e+09)
)
;
    }
    procBoundary10to11
    {
        type            processor;
        value           nonuniform List<symmTensor> 
20
(
(-9.6975e+10 1.40047e+11 -3.93488e+11 3.30263e+11 3.7157e+11 3.48758e+10)
(-3.17747e+10 4.5252e+10 -1.94705e+11 1.99379e+10 1.71816e+11 5.57782e+09)
(2.34986e+08 3.08169e+10 -2.25642e+11 3.29062e+10 3.07083e+11 -4.14024e+10)
(1.99622e+10 -8.04752e+10 -1.52563e+11 1.00975e+11 2.96495e+11 -1.06948e+11)
(-8.56286e+09 2.76845e+08 1.08606e+10 5.61765e+09 5.24882e+09 -5.3395e+09)
(7.36119e+10 5.96193e+09 1.07657e+11 5.86767e+10 2.97973e+11 -3.65718e+11)
(-4.19729e+10 -1.0823e+11 8.52524e+10 1.11136e+11 -8.5483e+10 -7.76002e+10)
(-4.5897e+11 2.74636e+11 -2.27247e+11 -5.21329e+10 1.05087e+11 1.8883e+11)
(-2.28916e+11 9.5633e+10 3.893e+10 7.90929e+11 -2.26502e+11 -2.46327e+10)
(3.90204e+11 6.7543e+11 1.46146e+11 -2.98273e+11 -9.15777e+10 -7.15475e+10)
(7.66335e+11 5.01924e+11 -3.46619e+11 -2.39442e+12 9.19611e+11 6.39932e+10)
(1.76828e+11 2.61415e+11 -2.35552e+11 1.5141e+11 4.92365e+10 2.11603e+10)
(-7.30134e+10 1.65098e+10 -1.41488e+10 4.0171e+10 -2.57126e+10 8.89306e+09)
(-1.37279e+11 7.56783e+10 -8.80267e+10 5.22447e+10 -2.28837e+11 3.09997e+11)
(-1.80342e+11 3.18491e+10 2.92232e+10 4.29102e+10 4.88859e+10 5.69131e+10)
(1.42279e+09 1.32213e+11 3.8301e+09 3.6741e+10 3.80957e+10 -5.29205e+10)
(-3.73291e+10 2.47116e+10 9.55319e+08 1.95215e+10 -4.31182e+09 1.39016e+10)
(-1.04295e+11 5.47563e+10 -2.39163e+10 5.33618e+10 -3.04144e+10 3.57243e+10)
(-1.26856e+11 6.05422e+08 -1.3442e+09 3.72546e+10 5.41666e+09 7.45769e+09)
(5.51195e+09 6.56136e+10 -2.58196e+10 3.47636e+10 7.01247e+09 7.49516e+09)
)
;
    }
    procBoundary10to18
    {
        type            processor;
        value           nonuniform List<symmTensor> 
50
(
(-3.25468e+10 8.2984e+10 -3.27893e+10 3.06016e+10 9.8709e+10 -1.505e+10)
(-6.53246e+10 8.49919e+10 -4.97077e+10 2.54187e+10 1.13843e+11 -9.17137e+09)
(5.2633e+10 1.68385e+11 -2.50118e+10 -3.26321e+10 1.60953e+11 -1.31929e+10)
(1.20781e+11 2.36593e+11 5.10806e+10 -9.58191e+10 1.91051e+11 1.93031e+10)
(-1.06093e+11 3.0417e+11 -8.58972e+10 -5.62388e+10 4.19957e+11 8.85733e+10)
(-5.53308e+10 -1.25308e+11 -1.91572e+11 -1.32397e+11 3.1461e+11 4.98751e+10)
(2.08143e+10 1.04874e+11 -3.20788e+10 -1.402e+10 2.76093e+11 4.75524e+10)
(-9.54076e+10 2.00503e+11 -4.3106e+10 1.28676e+11 3.32722e+11 5.80178e+10)
(3.76308e+10 1.28478e+11 4.40362e+10 -1.23195e+11 1.9019e+11 4.4076e+10)
(1.43462e+10 1.95672e+11 -1.35933e+11 7.42263e+10 2.08991e+11 6.47085e+10)
(5.72977e+09 5.40059e+09 2.59974e+09 2.53672e+09 1.41851e+09 -1.51069e+09)
(2.49635e+10 4.10518e+10 1.31845e+10 -1.6369e+09 2.70972e+08 -7.18886e+09)
(-2.69468e+09 2.04243e+10 5.44238e+09 -1.10172e+10 -3.27023e+09 -1.63873e+09)
(2.6862e+10 5.28261e+10 3.07802e+10 3.89298e+10 -4.96126e+10 -5.14866e+10)
(-2.44027e+10 1.74522e+11 6.62598e+10 1.25377e+11 -2.55241e+10 -9.68853e+10)
(3.32764e+11 1.80521e+11 6.15103e+10 -1.70269e+11 3.96141e+10 -1.5935e+10)
(2.65381e+11 2.85533e+11 6.17603e+10 -3.20795e+11 1.01475e+11 -1.23269e+10)
(2.08428e+10 7.75072e+10 4.98854e+10 -3.19017e+10 1.2599e+11 4.02389e+10)
(-2.01641e+11 -3.18338e+10 4.6626e+10 2.5411e+11 8.39106e+10 5.14747e+10)
(-1.29189e+11 1.43378e+11 1.37287e+11 -1.29414e+11 6.62194e+08 4.62456e+10)
(1.48976e+09 1.37943e+10 1.04148e+10 -8.75019e+09 8.24205e+09 -3.27694e+09)
(-4.03131e+09 1.11443e+10 1.22932e+09 6.56231e+09 3.46643e+09 1.04536e+09)
(-5.45516e+09 -1.05883e+09 9.65096e+08 1.09939e+10 2.33949e+09 -2.18286e+09)
(-1.0398e+10 7.6157e+09 -1.44404e+09 1.1589e+10 -4.64323e+09 -6.23613e+08)
(8.91646e+10 1.29409e+11 3.0588e+10 3.71279e+10 -1.46191e+09 -1.46877e+09)
(4.17995e+10 1.27073e+11 6.15464e+10 -1.22745e+11 5.57585e+10 -1.56703e+11)
(7.36895e+11 3.79576e+11 6.15646e+10 -3.52342e+11 -1.28808e+10 2.71919e+10)
(6.57939e+11 1.04188e+12 2.28319e+11 -5.39552e+11 9.70162e+10 1.60843e+11)
(-1.48032e+11 1.62129e+11 -3.94052e+10 -1.36373e+11 1.51734e+11 4.50669e+10)
(-8.27238e+11 -1.15082e+12 -3.42002e+11 3.41069e+11 -8.07945e+10 -3.65571e+10)
(-5.77342e+09 1.22912e+10 3.57917e+09 2.48549e+09 -1.95871e+09 5.00936e+09)
(-5.69272e+09 1.62646e+10 3.81571e+09 1.20686e+10 -2.09836e+09 -1.69905e+09)
(-2.63969e+10 1.97647e+10 3.25216e+09 1.59319e+10 -4.82558e+08 8.89933e+09)
(1.33711e+10 1.79501e+09 2.04721e+10 -1.57289e+09 9.09611e+09 1.81198e+09)
(8.56642e+09 4.2681e+10 -2.07484e+10 -2.63767e+10 1.35215e+10 2.2138e+09)
(1.71092e+10 1.50309e+11 2.74001e+10 -1.62266e+10 7.29035e+09 2.39567e+09)
(7.87569e+10 2.05471e+11 2.09049e+11 -9.9196e+10 -2.17098e+10 1.55765e+10)
(3.8585e+09 -9.29444e+09 -4.14217e+09 3.62375e+10 -4.32246e+10 -2.17013e+10)
(-3.99524e+11 2.52434e+11 -3.70936e+11 7.68999e+10 -1.17138e+11 -1.04688e+11)
(1.78719e+10 1.43702e+11 -1.23461e+11 1.43971e+11 3.7492e+10 -4.59255e+10)
(-1.49351e+09 7.35649e+09 1.20949e+09 -3.45054e+09 1.31317e+09 4.50571e+09)
(-7.98008e+09 1.27203e+10 -9.40916e+08 -2.44625e+09 -2.2035e+09 8.61833e+09)
(-9.35002e+09 2.58291e+10 5.96455e+09 4.152e+09 8.8009e+08 5.58453e+09)
(-1.643e+10 3.37014e+10 -8.65049e+09 -4.89171e+09 -2.39842e+09 9.6652e+09)
(-1.74581e+10 4.44673e+10 6.16857e+09 -7.17501e+08 2.06193e+10 3.92412e+09)
(-2.73145e+10 5.44296e+10 1.6244e+10 2.13428e+09 -1.9115e+10 1.78207e+10)
(-3.1254e+10 6.72426e+10 -6.53334e+09 7.4192e+10 2.98471e+10 -2.9303e+10)
(2.89159e+10 3.58717e+10 -2.20423e+10 4.22195e+10 -3.16977e+10 -7.41802e+10)
(4.10399e+10 1.24339e+11 -2.53607e+10 6.10596e+10 -6.38949e+08 -1.28893e+11)
(4.855e+10 1.00059e+11 1.10868e+09 -8.68086e+09 4.56874e+09 -1.70855e+10)
)
;
    }
}


// ************************************************************************* //
