/*--------------------------------*- C++ -*----------------------------------*\
| =========                 |                                                 |
| \\      /  F ield         | OpenFOAM: The Open Source CFD Toolbox           |
|  \\    /   O peration     | Version:  2.4.0                                 |
|   \\  /    A nd           | Web:      www.OpenFOAM.org                      |
|    \\/     M anipulation  |                                                 |
\*---------------------------------------------------------------------------*/
FoamFile
{
    version     2.0;
    format      ascii;
    class       volVectorField;
    location    "0.01";
    object      Ur;
}
// * * * * * * * * * * * * * * * * * * * * * * * * * * * * * * * * * * * * * //

dimensions      [0 1 -1 0 0 0 0];

internalField   nonuniform List<vector> 
200
(
(-3.27726 1.30812 0.437542)
(-3.56096 1.27059 -0.0069762)
(-3.67497 0.682564 -0.322048)
(-3.94128 1.01225 -0.0237537)
(-3.90505 1.17155 -0.115767)
(-3.74282 0.171926 0.266923)
(-4.30046 0.244508 -1.34561)
(-4.88317 -0.631947 -1.48619)
(-4.74886 -0.236408 -0.39557)
(-3.97886 0.624977 -0.215952)
(-3.87274 0.831711 -0.0791774)
(-3.73528 1.0667 0.385368)
(-3.90114 2.72 -1.05791)
(-3.76707 1.03434 -0.305384)
(-3.52066 0.384882 0.225162)
(-3.70324 0.590154 0.121684)
(-3.88027 0.963078 0.194512)
(-3.88427 1.06746 -0.0492646)
(-3.8649 1.21333 0.10427)
(-3.67726 -1.74437 0.630406)
(-3.98139 1.58301 -0.0809584)
(-3.83021 1.18657 -0.0881708)
(-3.58044 0.938611 0.0537964)
(-3.41437 0.958825 -0.140345)
(-3.17012 0.679576 0.454998)
(-4.17583 0.784496 0.37108)
(-3.82391 0.80612 0.44277)
(-3.42786 0.689395 0.263754)
(-3.17489 0.660149 0.196915)
(-3.5836 0.917668 -0.0204577)
(-3.93127 1.13664 -0.416539)
(-3.85556 1.03588 -0.187726)
(-3.7179 1.07536 -0.0786854)
(-3.72973 0.990608 -0.0837009)
(-3.58889 1.03498 0.25498)
(-4.02857 1.02543 0.20672)
(-4.02441 1.02853 0.39038)
(-3.78868 0.951116 0.17424)
(-3.68941 0.87945 0.0280577)
(-4.29568 0.647125 0.0148206)
(-3.6786 0.957742 -1.08759)
(-3.94814 0.573658 -0.469478)
(-3.90876 0.464095 -0.412792)
(-3.92438 1.11669 -1.15287)
(-4.13208 -1.78997 0.228491)
(-4.60893 3.85951 0.46349)
(-7.08643 -26.229 4.90865)
(-4.53704 -1.46002 -2.20165)
(-3.62469 1.10727 -0.795178)
(-3.9966 1.14452 -0.480983)
(-3.47696 1.70969 0.68104)
(-3.81924 1.02698 -0.525633)
(-3.63749 0.93023 -0.571614)
(-3.61089 0.807158 -0.412214)
(-3.74192 0.837212 -0.711037)
(-3.20443 -0.997189 -0.0666678)
(-4.17041 1.63795 -0.586044)
(-5.29266 1.5774 -0.617344)
(-4.4622 1.18814 -0.450008)
(-4.09656 1.10393 -0.303527)
(-3.92027 0.911584 -0.407121)
(-3.8396 1.0143 -0.45504)
(-3.67581 0.884425 -0.220515)
(-3.79401 0.920093 -0.763657)
(-3.48866 0.735782 0.269607)
(-3.69545 1.50874 0.881431)
(-4.75947 -5.70131 -6.52235)
(-4.94747 -3.12022 -4.3571)
(-4.92887 0.897738 -0.260276)
(-4.3902 0.9832 -0.373621)
(-5.21458 1.35619 0.317676)
(-3.91643 0.945751 -0.326189)
(-3.87899 0.954529 -0.190785)
(-3.85257 0.910967 -0.263311)
(-3.82068 0.960828 -0.0600779)
(-3.22538 1.05221 1.37382)
(-3.80584 0.777325 -2.76954)
(-4.44786 1.20605 -1.66211)
(-4.54113 0.985246 -0.229334)
(-4.19349 1.14848 1.27934)
(-4.48277 5.37639 -0.428213)
(-4.42652 1.49663 -0.607459)
(-4.10204 1.62428 -0.504691)
(-5.41793 -2.32622 3.88044)
(-3.38777 4.89626 0.324883)
(-2.91081 0.866287 0.679856)
(-1.41471 0.618409 -6.46576)
(-2.70138 1.40627 -8.3425)
(-3.32994 1.42185 -1.10592)
(-3.29435 1.2378 -0.141655)
(-5.0183 1.71701 -0.24844)
(-4.15577 1.70225 -1.17945)
(-4.33234 0.874697 -0.266345)
(-4.61871 2.02214 -0.986819)
(-5.15223 1.40931 0.899227)
(-3.38093 1.96848 -0.354031)
(-4.58944 2.39506 -1.22822)
(-4.08312 1.71698 -0.724291)
(-3.56571 0.811314 -0.585999)
(-3.39093 2.4776 -1.93344)
(-5.30406 2.51345 -1.08013)
(-4.68231 2.84391 -0.461186)
(-4.51885 1.652 -0.829159)
(-4.33038 1.20225 -0.499956)
(-4.1777 1.46405 -1.39003)
(-3.47471 1.5784 0.927583)
(-3.61352 1.32382 -0.699928)
(-4.19949 1.27974 -0.84566)
(-4.32798 1.39737 -0.657863)
(-4.12568 1.43843 -0.289288)
(-4.95966 3.80409 -10.5401)
(-6.10073 1.64205 -3.43291)
(-4.47486 1.11412 -0.687968)
(-4.39697 1.0666 -0.468188)
(-4.83548 1.11127 -0.83879)
(-3.69753 1.52966 0.488818)
(-3.76904 1.00758 -0.657926)
(-4.13033 0.888331 -0.928469)
(-4.18318 0.868314 -0.783904)
(-3.78788 1.09564 -0.192175)
(-3.4065 0.923465 -0.213671)
(-3.76275 0.669802 -0.453123)
(-3.7324 1.21722 -0.240738)
(-3.83531 0.931633 -0.371406)
(-2.79877 1.87185 -0.544952)
(-2.84975 0.578162 -0.680143)
(-3.31457 1.02827 -0.497283)
(-3.8053 1.39689 -0.0879781)
(-4.15579 1.39123 -0.590125)
(-2.60252 0.787291 -2.70152)
(-3.40774 0.925793 1.15881)
(-4.01435 1.4318 -2.31206)
(-3.26491 0.835592 -1.53415)
(-3.57946 1.03001 -0.650905)
(-3.39211 1.11524 -0.542302)
(-2.7946 1.98518 -1.16003)
(-2.60607 2.35643 0.277214)
(-1.42033 -1.42934 -5.04944)
(-2.19813 -2.53053 -4.19837)
(-3.32655 1.01299 -0.241734)
(-3.45152 1.18799 0.142833)
(-3.62214 1.82701 -1.19546)
(-4.07467 1.27856 -0.995297)
(-3.54172 1.01539 -0.529392)
(-4.86223 0.0398319 -1.9268)
(-2.65479 1.36477 -0.859294)
(-2.89564 1.00819 -0.376548)
(-3.03917 1.30052 -0.0944967)
(-3.67611 1.68928 -0.244704)
(-3.86171 1.22874 -0.17058)
(-4.80908 4.02659 13.7025)
(-2.58495 3.11572 1.1261)
(-4.07072 1.05633 -0.774802)
(-3.66716 1.10427 -0.514638)
(-3.55711 1.15743 -0.303713)
(-3.4717 0.98081 -0.538885)
(-3.4766 0.988094 -0.194278)
(-3.7692 0.10581 -1.12313)
(-3.49908 0.887585 -0.560571)
(-3.61537 0.92125 -0.228232)
(-3.86598 0.516967 1.3523)
(-3.5302 -1.72604 -1.4548)
(-3.27344 0.73835 -0.64148)
(-3.83724 1.37695 -0.101596)
(-4.1086 1.134 0.842383)
(-4.10369 1.56602 -0.506684)
(-3.25546 2.45504 -0.714052)
(-3.44709 1.82425 -0.418318)
(-3.55706 1.77096 -0.843651)
(-2.46032 -0.672875 -0.240051)
(-0.20765 5.92552 -0.923254)
(1.45832 -7.49568 -9.55505)
(-3.346 -1.94363 -1.61374)
(-2.15003 1.14239 -0.917284)
(-2.67718 3.67431 0.234833)
(-0.405332 -3.82308 -7.17816)
(-4.09771 -10.2227 -7.12387)
(-2.05285 1.69424 0.225651)
(-3.47785 2.79519 0.217607)
(-3.62331 2.19806 -0.0820434)
(4.69889 -4.97609 -9.65475)
(-1.37501 0.327571 -1.82864)
(-1.57401 1.54322 -0.53781)
(-2.78822 2.27646 0.153337)
(0.775348 -4.57682 -8.23139)
(-3.04021 0.627109 -0.489367)
(-3.51942 1.56075 0.373758)
(-6.43991 4.41144 0.676087)
(-4.13353 1.84679 -0.0564487)
(-3.98008 1.06113 -0.0790478)
(-1.91227 -0.101785 -1.49669)
(-0.94364 0.855 -0.602759)
(-2.04039 1.00832 -0.264971)
(-0.464791 -0.34719 -1.27258)
(-3.03619 0.453181 -2.56075)
(-3.81532 0.994526 -0.153523)
(-3.85998 1.2705 0.979221)
(-2.95635 1.00981 -4.95682)
(-3.88592 0.315944 -0.892863)
(-3.66008 0.893175 -0.0597481)
)
;

boundaryField
{
    inlet
    {
        type            calculated;
        value           nonuniform 0();
    }
    outlet
    {
        type            calculated;
        value           nonuniform 0();
    }
    bottom
    {
        type            calculated;
        value           uniform (0 0 0);
    }
    top
    {
        type            symmetryPlane;
    }
    side1
    {
        type            symmetryPlane;
    }
    side2
    {
        type            symmetryPlane;
    }
    procBoundary28to20
    {
        type            processor;
        value           nonuniform List<vector> 
50
(
(-4.62428 0.590087 -0.385358)
(-4.39082 0.724437 -0.872112)
(-4.93057 0.790884 -0.193372)
(-3.8134 0.794795 0.393953)
(-2.47015 -0.239463 2.63394)
(-3.73756 0.826725 -1.04076)
(-4.46314 0.907137 -0.741677)
(-4.1353 1.60776 0.0389613)
(-4.56742 0.965244 0.161756)
(-3.7706 0.924 -0.258246)
(-6.14843 -1.53411 -3.06519)
(-4.10377 -0.230146 -1.17839)
(-3.37998 1.47585 -0.823555)
(-3.50747 2.12804 2.30117)
(-3.77098 1.55035 0.426829)
(-5.00865 -7.04941 4.8049)
(-5.07488 4.57612 -1.44729)
(-4.8651 3.37105 -0.985892)
(-4.60181 2.01888 -0.631796)
(-4.57901 1.36096 -0.719562)
(-2.5813 1.30486 -1.4038)
(-3.53305 1.13615 -1.80169)
(-5.12399 1.04168 2.24715)
(-2.36628 2.4501 -0.454609)
(-6.81682 7.66798 22.1192)
(-2.58728 3.21335 0.836365)
(-3.39062 1.36518 -1.16721)
(-3.4114 0.778534 -1.22589)
(-3.7684 0.926535 -0.145341)
(-3.44979 0.985047 -0.215222)
(-4.1255 0.754405 0.0542316)
(-3.95422 0.581989 -1.12284)
(-6.72568 -2.5041 0.094074)
(-4.20695 1.34379 1.16282)
(-3.80542 0.607729 0.505568)
(-2.82381 0.946938 -0.288861)
(-3.46984 1.1285 0.0416686)
(-4.07929 -0.163421 -0.832)
(-2.89301 0.922269 -0.362055)
(-2.88117 0.935941 -0.0558155)
(-4.10961 -0.158414 -0.481259)
(-3.44977 -1.34065 2.8977)
(-3.88441 -3.62798 -0.712912)
(-3.83328 0.58956 0.52644)
(-4.08886 2.3328 -0.143289)
(-4.15691 -0.741796 4.06309)
(-3.5921 0.549852 -0.457723)
(-2.75885 -1.8819 -2.50468)
(-6.29033 13.3707 -7.78936)
(-3.69483 3.2751 1.22337)
)
;
    }
    procBoundary28to27
    {
        type            processor;
        value           nonuniform List<vector> 
20
(
(-4.26872 0.271197 -0.87241)
(-3.30501 0.09483 0.800518)
(-3.32443 1.52291 0.173511)
(-4.71011 1.05919 0.235557)
(-3.60657 2.09809 -2.0415)
(-4.05551 1.20978 0.340506)
(-4.42558 0.836934 0.0116178)
(-5.87637 1.7024 0.0823762)
(-3.49456 5.12866 1.82812)
(-4.50355 1.87861 -0.983685)
(-4.16298 -0.654466 -1.16172)
(-4.51485 2.02072 9.34287)
(-3.88015 1.48648 2.87224)
(-4.62678 0.699298 14.1715)
(-3.75544 0.557143 8.61694)
(-2.84066 -1.11612 -3.14444)
(-3.18425 1.0105 -0.401928)
(-1.81488 0.696388 -1.12119)
(-2.08269 2.66745 0.528062)
(-1.09148 0.558322 1.54162)
)
;
    }
    procBoundary28to29
    {
        type            processor;
        value           nonuniform List<vector> 
20
(
(-3.52764 1.07542 -0.141786)
(-4.86825 -0.206314 -0.894935)
(-3.79519 0.812055 -0.128731)
(-3.87261 0.645799 0.254527)
(-3.82198 0.744642 -0.273405)
(-3.86405 1.1875 -0.382998)
(-4.20854 0.9783 -0.278402)
(-4.73155 -0.206076 -7.84068)
(-3.52135 1.04141 -0.0936243)
(-3.51947 1.65141 -0.388502)
(-3.95493 1.17026 -0.1801)
(-3.87646 1.09058 -0.0695661)
(-3.19847 0.856771 -0.401714)
(-3.39528 0.939253 -0.187208)
(-3.73247 1.03686 -0.147231)
(-3.63133 0.946776 -0.20825)
(-2.96695 0.948018 -0.353169)
(-3.85755 1.27343 0.00956766)
(-3.88126 1.02666 -0.135004)
(-3.76238 1.4275 0.342728)
)
;
    }
}


// ************************************************************************* //
