/*--------------------------------*- C++ -*----------------------------------*\
| =========                 |                                                 |
| \\      /  F ield         | OpenFOAM: The Open Source CFD Toolbox           |
|  \\    /   O peration     | Version:  2.4.0                                 |
|   \\  /    A nd           | Web:      www.OpenFOAM.org                      |
|    \\/     M anipulation  |                                                 |
\*---------------------------------------------------------------------------*/
FoamFile
{
    version     2.0;
    format      ascii;
    class       volVectorField;
    location    "0.13";
    object      U;
}
// * * * * * * * * * * * * * * * * * * * * * * * * * * * * * * * * * * * * * //

dimensions      [0 1 -1 0 0 0 0];

internalField   nonuniform List<vector> 
200
(
(4.22306e+10 -4.77629e+11 -4.92045e+10)
(4.05966e+09 -3.83128e+11 -7.45833e+09)
(8.57309e+09 -5.82067e+11 -1.9718e+10)
(1.69569e+11 -5.61142e+11 2.88069e+10)
(2.32823e+09 -9.34637e+11 4.47534e+09)
(2.70426e+11 -4.57648e+11 2.5362e+09)
(-2.61184e+09 -1.022e+12 -1.16689e+10)
(1.82672e+11 -5.39533e+11 1.31819e+11)
(5.659e+11 -1.18337e+11 4.89425e+10)
(4.97079e+11 -2.9061e+11 1.05214e+10)
(1.76298e+09 -4.82855e+11 -2.06948e+10)
(5.11104e+10 -4.68123e+11 -2.36859e+10)
(1.60281e+11 -8.23671e+11 -3.91381e+10)
(2.78484e+11 -7.23784e+11 3.46432e+11)
(1.20673e+11 -6.60767e+11 3.84504e+10)
(1.54436e+11 -6.18068e+11 1.79981e+10)
(1.89759e+11 -4.56299e+11 -7.79932e+10)
(1.11164e+11 -7.05435e+11 2.19673e+10)
(1.21979e+11 -8.97768e+11 -1.04855e+11)
(2.59849e+11 -4.2229e+11 4.7333e+10)
(7.80245e+10 -7.07656e+11 5.35263e+10)
(2.00983e+11 -6.92612e+11 -3.07603e+10)
(5.17104e+11 -1.02351e+12 3.90312e+11)
(1.40867e+10 -6.76374e+11 9.79312e+10)
(2.99837e+11 -6.31171e+11 4.35419e+11)
(-5.90253e+10 -8.33718e+11 7.2814e+10)
(1.3709e+11 -5.88736e+11 5.26457e+10)
(1.39511e+11 -5.6034e+11 -5.89826e+10)
(-3.36501e+10 -5.81257e+11 6.99319e+10)
(9.69046e+10 -8.31276e+11 -6.88762e+10)
(-6.26144e+10 -1.49888e+12 -1.02411e+11)
(2.29693e+11 -1.21458e+12 2.12634e+11)
(-5.17888e+09 -4.59582e+11 3.11409e+10)
(1.60598e+11 -7.45054e+11 1.97091e+11)
(2.89316e+10 -5.44926e+11 9.32908e+10)
(-1.69634e+11 -8.2782e+11 4.12387e+11)
(-5.35148e+09 -7.36034e+11 1.80563e+10)
(-8.67885e+10 -5.35891e+11 7.79202e+10)
(3.65954e+09 -7.64719e+11 -7.73546e+09)
(-5.56278e+10 -5.62004e+11 3.13179e+10)
(1.51275e+10 -7.16646e+11 1.02004e+11)
(2.17851e+10 -4.83945e+11 6.35735e+10)
(6.46234e+10 -4.86592e+11 1.15757e+11)
(1.95894e+11 -5.70226e+11 3.90951e+10)
(1.1483e+11 -4.47573e+11 7.83797e+10)
(1.75249e+11 -8.26507e+11 2.2888e+10)
(1.85034e+11 -5.84841e+11 1.86435e+11)
(3.88429e+11 -4.99863e+11 7.00492e+10)
(5.74605e+11 5.58392e+10 1.02757e+11)
(6.75832e+11 -1.62225e+11 5.06282e+10)
(-2.4379e+11 -8.86894e+11 4.15969e+11)
(6.90686e+10 -5.80803e+11 1.63215e+11)
(1.66677e+10 -1.2716e+12 -8.83582e+10)
(8.81903e+10 -5.23352e+11 1.40707e+11)
(2.60364e+11 -5.23256e+11 5.55607e+10)
(2.34853e+11 -4.54671e+11 6.66191e+10)
(2.40849e+11 -6.78534e+11 -4.52282e+09)
(5.88147e+10 -8.24428e+11 8.40454e+10)
(3.12694e+11 -6.45251e+11 3.94123e+10)
(3.68317e+11 -4.58137e+11 5.5796e+08)
(-3.60943e+10 -5.25125e+11 7.71546e+10)
(3.28532e+10 -1.13444e+12 8.54685e+09)
(-1.16564e+11 -4.25627e+11 -2.24076e+11)
(-1.47652e+10 -1.21992e+12 5.26604e+09)
(-2.81586e+10 -6.37472e+11 1.43803e+11)
(2.07684e+11 -5.28863e+11 7.76299e+10)
(2.46505e+11 -5.02392e+11 5.31889e+10)
(1.03901e+11 -4.81033e+11 4.82912e+10)
(6.49652e+10 -8.37988e+11 -1.47908e+10)
(1.00887e+11 -5.4353e+11 2.28032e+10)
(1.27249e+11 -7.76193e+11 -1.10663e+11)
(-1.536e+11 -5.67623e+11 -1.92269e+11)
(-1.16626e+10 -7.36839e+11 3.10293e+10)
(-1.23158e+11 -5.09747e+11 1.01625e+11)
(-2.56325e+11 -1.04372e+12 2.67235e+11)
(-3.20844e+11 -1.07445e+12 3.42709e+11)
(-4.1544e+11 -3.04606e+11 -1.34639e+10)
(9.30017e+10 -6.61366e+11 -7.78391e+10)
(-1.70254e+11 -3.89772e+11 4.6469e+08)
(8.22014e+10 -7.82791e+11 -2.79481e+09)
(-4.03432e+10 -4.19303e+11 1.56098e+11)
(3.10686e+09 -6.62541e+11 5.03961e+10)
(7.20236e+10 -4.58764e+11 1.22433e+11)
(1.49053e+11 -3.87713e+11 6.0532e+10)
(1.27093e+11 -5.66215e+11 1.6916e+11)
(1.46853e+11 -4.43748e+11 1.80862e+11)
(1.39225e+11 -5.00655e+11 2.57187e+11)
(5.02292e+11 -6.64599e+11 1.79298e+11)
(5.23258e+11 4.35921e+11 6.45944e+10)
(6.33178e+11 -2.66285e+11 -4.10475e+10)
(4.26831e+10 -4.87039e+11 9.87905e+10)
(-1.81003e+10 -4.22683e+11 1.34909e+11)
(6.54307e+10 -6.56394e+11 2.48242e+11)
(2.22039e+11 -4.48974e+11 1.4655e+11)
(2.12427e+11 -4.2802e+11 1.13972e+11)
(2.27361e+11 -5.06744e+11 6.99338e+10)
(1.49561e+11 -6.13503e+11 1.12449e+11)
(9.92451e+10 -7.60014e+11 1.09643e+11)
(2.41102e+11 -7.32625e+11 9.02761e+10)
(3.40992e+11 -5.13165e+11 1.19313e+10)
(-2.81927e+10 -5.15089e+11 1.30763e+11)
(1.36268e+11 -4.90094e+11 1.07541e+11)
(1.82639e+10 -1.687e+12 -2.24507e+11)
(9.97057e+10 -6.28639e+11 2.29762e+11)
(1.93439e+11 -4.08204e+11 1.34947e+11)
(2.60912e+11 -4.44336e+11 4.63455e+10)
(2.25435e+11 -4.94915e+11 5.58156e+10)
(1.24044e+11 -6.3514e+11 -7.84868e+10)
(1.44053e+11 -6.61701e+11 4.94761e+09)
(1.51319e+11 -6.08665e+11 8.29265e+10)
(-1.04736e+10 -6.10419e+11 7.68535e+10)
(1.30357e+11 -7.13362e+11 1.62587e+10)
(8.54003e+10 -4.9145e+11 -1.24215e+11)
(-5.3918e+10 -9.8185e+11 -8.50786e+09)
(3.28135e+09 -5.64888e+11 1.12136e+11)
(5.34858e+10 -4.3586e+11 1.05301e+11)
(1.57347e+11 -4.49478e+11 -3.4474e+10)
(4.51873e+09 -2.15905e+11 -2.47809e+11)
(1.02594e+11 -7.52256e+11 -9.16737e+10)
(4.70014e+10 -4.43764e+11 -5.25013e+09)
(6.40502e+10 -5.71158e+11 -8.99408e+10)
(8.18334e+09 -3.48517e+11 7.77452e+10)
(9.33149e+10 -4.85884e+11 -7.04505e+10)
(1.33667e+10 -6.49587e+11 8.6952e+10)
(1.26261e+11 -5.37293e+11 2.07021e+10)
(-5.58698e+10 -8.93441e+11 1.29367e+11)
(3.40806e+11 -4.81815e+11 -9.76363e+10)
(2.6264e+11 -7.18826e+10 1.37623e+11)
(6.50223e+11 -3.29643e+11 2.10068e+11)
(5.77412e+11 -3.58849e+11 5.52756e+10)
(-5.22754e+09 -4.01982e+11 1.18127e+11)
(4.05428e+10 -5.20858e+11 5.7937e+10)
(8.508e+10 -4.63468e+11 1.13807e+11)
(1.76061e+11 -5.14091e+11 5.15645e+10)
(1.34302e+11 -5.24084e+11 5.51689e+10)
(1.58452e+11 -6.08388e+11 4.89643e+10)
(7.75179e+10 -7.18588e+11 7.31433e+10)
(1.80118e+11 -8.08669e+11 -6.01043e+10)
(3.2747e+11 -5.27714e+11 2.97654e+10)
(4.00218e+11 -5.0138e+11 5.30551e+10)
(4.21876e+10 -5.37873e+11 5.09101e+10)
(3.8781e+10 -4.593e+11 7.87982e+10)
(9.27589e+10 -6.57897e+11 9.29634e+10)
(1.71246e+11 -4.56652e+11 8.20849e+10)
(1.99076e+11 -5.23317e+11 5.89645e+10)
(1.60432e+11 -5.21495e+11 4.30849e+10)
(2.05577e+11 -5.95494e+11 2.68268e+10)
(1.4854e+11 -6.11086e+11 1.16106e+10)
(1.82456e+11 -6.71535e+11 -3.33138e+10)
(2.12865e+11 -5.09994e+11 2.22823e+10)
(-1.41911e+09 -5.31087e+11 3.23463e+10)
(6.11866e+10 -5.79754e+11 1.70407e+10)
(7.33075e+10 -7.70756e+11 3.69378e+10)
(1.01572e+11 -5.97611e+11 3.32032e+10)
(1.23229e+11 -4.73677e+11 4.60586e+10)
(1.61598e+11 -5.11171e+11 1.59181e+10)
(1.06064e+11 -6.27578e+11 -4.05091e+09)
(1.38414e+11 -6.3034e+11 -1.11555e+10)
(-7.14728e+09 -5.3982e+11 8.23294e+09)
(8.80965e+10 -6.09755e+11 -2.01611e+09)
(-2.72754e+10 -5.09172e+11 5.75827e+10)
(6.72141e+09 -6.01084e+11 -1.05673e+11)
(5.19242e+10 -4.29073e+11 9.4678e+09)
(6.74225e+10 -5.1893e+11 -5.5891e+10)
(4.31791e+09 -7.12816e+11 5.39067e+09)
(2.95444e+11 -2.17877e+11 7.79492e+10)
(4.82616e+11 -1.9336e+11 -1.23006e+10)
(2.9166e+11 -4.18349e+11 1.35798e+10)
(6.22587e+11 3.15403e+10 1.91997e+11)
(6.12751e+11 -2.97053e+11 7.76062e+10)
(1.7354e+10 -5.65479e+11 -2.23318e+09)
(7.04096e+09 -6.29583e+11 7.91945e+10)
(4.2953e+10 -5.17328e+11 2.79295e+09)
(1.03717e+11 -4.66727e+11 5.34898e+09)
(5.76515e+10 -7.19378e+11 -2.9083e+10)
(1.71647e+10 -8.17151e+11 -7.41273e+09)
(3.09564e+11 -3.88579e+11 2.79806e+10)
(3.37974e+11 -3.28107e+11 -4.17605e+09)
(3.03021e+11 -4.93405e+11 8.79048e+10)
(5.17792e+11 -2.29465e+11 9.09205e+10)
(1.00948e+10 -5.27974e+11 6.94203e+10)
(4.18118e+10 -6.01362e+11 2.83355e+10)
(4.56902e+10 -5.38098e+11 4.43228e+10)
(1.34083e+11 -6.46851e+11 3.11898e+10)
(1.66965e+11 -5.07803e+11 2.45258e+10)
(8.75296e+10 -8.18878e+11 -3.01529e+09)
(8.23238e+10 -6.44059e+11 -1.03297e+10)
(2.34433e+11 -5.42749e+11 -3.00674e+10)
(2.48248e+11 -5.1582e+11 -5.74768e+10)
(2.82323e+11 -6.53155e+11 6.48383e+10)
(2.54354e+10 -6.00511e+11 1.74056e+10)
(2.71789e+10 -5.57187e+11 5.37562e+10)
(8.06881e+10 -6.27958e+11 1.83697e+10)
(1.02819e+11 -6.2235e+11 5.87583e+10)
(1.56464e+11 -6.0771e+11 2.72459e+10)
(1.81599e+11 -6.34079e+11 3.62813e+10)
(1.50507e+11 -6.2399e+11 7.51038e+09)
(1.28091e+11 -6.28215e+11 8.98215e+09)
(2.18406e+11 -6.62823e+11 -5.82636e+10)
(2.85111e+11 -5.59824e+11 -7.66001e+10)
)
;

boundaryField
{
    inlet
    {
        type            calculated;
        value           nonuniform List<vector> 
20
(
(6 0 0)
(6 0 0)
(6 0 0)
(6 0 0)
(6 0 0)
(6 0 0)
(6 0 0)
(6 0 0)
(6 0 0)
(6 0 0)
(6 0 0)
(6 0 0)
(6 0 0)
(6 0 0)
(6 0 0)
(6 0 0)
(6 0 0)
(6 0 0)
(6 0 0)
(6 0 0)
)
;
    }
    outlet
    {
        type            calculated;
        value           nonuniform 0();
    }
    bottom
    {
        type            calculated;
        value           uniform (0 0 0);
    }
    top
    {
        type            symmetryPlane;
    }
    side1
    {
        type            symmetryPlane;
    }
    side2
    {
        type            symmetryPlane;
    }
    procBoundary8to0
    {
        type            processor;
        value           nonuniform List<vector> 
50
(
(1.8049e+10 -3.57046e+11 -1.36257e+10)
(4.32504e+10 -4.8567e+11 -5.09289e+10)
(4.60792e+10 -4.25594e+11 -1.21799e+09)
(4.45692e+10 -6.76253e+11 -2.03072e+09)
(2.47609e+11 -4.04979e+11 -1.23412e+10)
(2.0995e+11 -6.2057e+11 7.51726e+10)
(3.02309e+11 -7.92358e+10 1.35307e+11)
(6.91604e+11 2.41831e+11 1.03635e+11)
(4.95371e+11 -1.85121e+11 4.0563e+10)
(5.55804e+11 -2.95349e+11 4.6431e+09)
(8.22606e+10 -5.78823e+11 -3.7507e+10)
(1.2026e+11 -4.25294e+11 -3.10407e+09)
(5.52368e+10 -5.8511e+11 -3.21334e+10)
(2.02399e+11 -1.88865e+11 7.4161e+10)
(1.40738e+11 -7.9971e+11 -1.16471e+11)
(-2.3211e+11 4.97485e+11 1.06699e+12)
(6.4084e+11 -7.98478e+10 2.76542e+11)
(6.53806e+11 -5.38282e+10 5.22118e+10)
(7.23861e+11 -6.65894e+10 1.00008e+11)
(6.25979e+11 -3.40175e+11 -4.5776e+10)
(4.81507e+10 -6.75791e+11 -9.14895e+10)
(6.37765e+10 -3.8827e+11 9.82662e+10)
(1.61628e+11 -3.64615e+11 -3.41957e+10)
(1.2969e+11 -5.31589e+11 8.55559e+10)
(1.26826e+11 -2.70375e+11 1.71776e+11)
(2.42479e+11 -4.77322e+11 9.97626e+10)
(3.56679e+11 -1.99965e+11 -2.93069e+10)
(6.65574e+11 6.32516e+11 1.8408e+11)
(5.74042e+11 -3.43801e+11 4.63196e+10)
(6.58613e+11 -3.75235e+11 -2.26437e+10)
(-6.74588e+10 -2.72285e+11 4.74395e+10)
(1.84784e+11 -5.26432e+11 -2.41847e+11)
(-2.65058e+10 -5.31495e+11 5.93368e+10)
(2.07899e+11 -2.74692e+11 -6.26009e+09)
(-2.66411e+11 -1.1247e+12 1.15069e+11)
(4.11944e+11 -2.3203e+11 4.3014e+10)
(4.29603e+11 6.03802e+10 3.16433e+10)
(3.33241e+11 2.85133e+11 2.21752e+11)
(7.03274e+11 -3.50043e+11 -7.78803e+10)
(6.81698e+11 -3.11987e+11 -1.84166e+10)
(1.26522e+11 -6.54675e+11 -3.26538e+11)
(1.63739e+10 -3.80454e+11 -1.5891e+10)
(1.48938e+11 -3.20426e+11 -9.41969e+10)
(2.02296e+09 -6.97627e+11 6.15406e+10)
(3.13513e+11 -1.24573e+11 8.80975e+10)
(4.42571e+11 -6.10571e+10 -7.15593e+09)
(3.96557e+11 -2.26876e+11 -1.81444e+09)
(5.02422e+11 -2.1393e+11 -1.96015e+09)
(5.40245e+11 -2.01291e+11 3.92704e+10)
(5.27579e+11 -4.37762e+11 4.63174e+10)
)
;
    }
    procBoundary8to9
    {
        type            processor;
        value           nonuniform List<vector> 
20
(
(6.10392e+11 -3.50704e+11 1.42192e+10)
(3.77568e+11 -6.41568e+11 -1.11704e+11)
(5.25633e+10 -5.93751e+11 4.07342e+10)
(4.5195e+08 -7.48616e+11 3.71281e+09)
(6.36392e+11 -3.50335e+11 -2.20665e+10)
(4.85709e+11 -3.93779e+11 1.27148e+10)
(1.17498e+11 -7.85671e+11 6.59761e+09)
(-1.40672e+11 -4.05943e+11 -5.23234e+09)
(7.48582e+11 -3.28997e+11 5.56836e+10)
(3.65911e+11 -5.63707e+11 1.27752e+11)
(2.03042e+11 -5.24459e+11 2.5017e+09)
(4.19662e+10 -7.34553e+11 1.12529e+08)
(5.39654e+11 -4.15314e+11 2.59064e+10)
(4.89981e+11 -4.07413e+11 4.10004e+10)
(2.44927e+11 -6.30661e+11 7.48395e+10)
(1.26061e+11 -5.37759e+11 2.53619e+10)
(5.62176e+11 -4.07849e+11 3.1767e+10)
(5.8289e+11 -4.09493e+11 3.66259e+10)
(3.9969e+11 -4.39021e+11 -5.36142e+10)
(2.45718e+11 -7.9298e+11 -3.93514e+10)
)
;
    }
    procBoundary8to16
    {
        type            processor;
        value           nonuniform List<vector> 
50
(
(1.00161e+11 -9.46773e+11 -1.17542e+10)
(-1.81249e+11 -8.46278e+11 1.00137e+10)
(-1.83456e+10 -8.27926e+11 6.46438e+10)
(-5.15421e+10 -6.27155e+11 7.71968e+10)
(-1.97223e+11 -6.85543e+11 1.55726e+11)
(7.23824e+10 -7.52051e+11 3.4027e+10)
(-2.17721e+11 -6.0007e+11 7.68211e+10)
(-8.37056e+10 -7.46426e+11 1.54612e+10)
(-1.34358e+11 -5.9921e+11 3.34377e+10)
(-1.19292e+11 -7.47818e+11 1.26796e+10)
(-1.46861e+11 -8.16842e+11 -2.63741e+11)
(4.1921e+10 -6.29164e+11 -2.11247e+10)
(-7.32054e+10 -5.6892e+11 1.60931e+11)
(-7.42835e+10 -6.25299e+11 1.63768e+11)
(3.87958e+10 -5.85217e+11 2.66869e+11)
(-4.40616e+11 -1.94452e+11 -1.18988e+11)
(-1.33982e+11 -9.38366e+11 -5.34373e+10)
(-1.72917e+11 -4.75196e+11 -2.21543e+10)
(-2.66261e+10 -8.05607e+11 2.08718e+10)
(-1.20452e+11 -4.86863e+11 3.95444e+10)
(3.25696e+10 -7.1364e+11 2.03448e+10)
(2.94788e+10 -8.85486e+11 6.81849e+10)
(6.15528e+10 -7.19592e+11 1.55462e+11)
(1.56128e+11 -4.35805e+11 -8.61547e+10)
(-1.426e+11 -4.87971e+11 7.32005e+09)
(-4.0266e+10 -6.43182e+11 2.75574e+10)
(-1.20903e+11 -3.38977e+11 -1.08938e+11)
(-6.94783e+10 -9.90791e+11 2.17836e+11)
(-1.82812e+11 -4.52394e+11 4.19165e+10)
(-3.08515e+10 -7.04287e+11 -1.2918e+10)
(-1.33374e+10 -6.47997e+11 4.05091e+10)
(7.41769e+10 -7.03777e+11 2.54711e+10)
(1.45644e+11 -8.207e+11 7.18444e+10)
(9.32186e+10 -7.00733e+11 2.5148e+10)
(9.4427e+10 -5.30139e+11 -3.21214e+10)
(9.04243e+10 -4.69575e+11 -4.92349e+10)
(-3.7303e+10 -5.3126e+11 -9.70657e+10)
(-7.623e+10 -5.15671e+11 1.07358e+10)
(-6.8189e+10 -5.76547e+11 2.21612e+10)
(1.6247e+10 -5.69358e+11 -5.70139e+10)
(1.02467e+10 -5.9839e+11 2.7771e+10)
(4.76401e+10 -6.19388e+11 -1.35881e+10)
(8.57556e+10 -6.76464e+11 2.71605e+10)
(1.50976e+11 -6.45229e+11 6.84082e+10)
(1.38945e+11 -7.07869e+11 7.53988e+10)
(2.31315e+11 -6.63905e+11 5.31205e+10)
(1.92196e+11 -5.30798e+11 3.28605e+09)
(2.15191e+11 -6.46862e+11 5.12056e+09)
(1.1023e+11 -9.63739e+11 -5.20739e+10)
(1.6412e+11 -6.04447e+11 -3.92168e+10)
)
;
    }
}


// ************************************************************************* //
