/*--------------------------------*- C++ -*----------------------------------*\
| =========                 |                                                 |
| \\      /  F ield         | OpenFOAM: The Open Source CFD Toolbox           |
|  \\    /   O peration     | Version:  2.4.0                                 |
|   \\  /    A nd           | Web:      www.OpenFOAM.org                      |
|    \\/     M anipulation  |                                                 |
\*---------------------------------------------------------------------------*/
FoamFile
{
    version     2.0;
    format      ascii;
    class       volSymmTensorField;
    location    "0.07";
    object      B;
}
// * * * * * * * * * * * * * * * * * * * * * * * * * * * * * * * * * * * * * //

dimensions      [0 2 -2 0 0 0 0];

internalField   nonuniform List<symmTensor> 
200
(
(3.26008e+08 2.22373e+06 -1.43577e+08 2.86275e+08 -4.82446e+07 3.4076e+08)
(3.61875e+08 1.92785e+07 -1.38466e+08 3.74225e+08 -3.29904e+07 4.17343e+08)
(4.76948e+08 2.64024e+07 -2.43248e+08 5.38368e+08 -1.29452e+08 5.48141e+08)
(4.76364e+08 5.46574e+07 -2.21716e+08 3.99854e+08 7.6657e+07 5.85253e+08)
(9.60292e+08 4.53493e+07 -2.25808e+08 1.03116e+09 -2.12705e+08 9.96836e+08)
(7.48034e+08 6.19457e+07 -3.63977e+08 6.81537e+08 -1.82175e+07 7.36944e+08)
(8.9501e+08 7.09557e+07 -2.6926e+08 9.66076e+08 9.78131e+07 8.84851e+08)
(1.21034e+09 1.20686e+08 -3.91231e+08 1.36145e+09 -3.81022e+07 1.11904e+09)
(7.2962e+08 3.55422e+07 -1.05594e+08 7.56828e+08 -5.66598e+06 6.91545e+08)
(1.2915e+09 7.50211e+07 -3.9719e+08 1.27351e+09 -1.02168e+08 9.69566e+08)
(3.02746e+08 2.51399e+07 -7.89557e+07 3.42431e+08 -2.90142e+07 3.30344e+08)
(5.40507e+08 9.96969e+07 -3.56778e+08 7.40432e+08 -1.8924e+08 5.68271e+08)
(5.54992e+07 -1.22304e+07 -2.98262e+07 1.33344e+08 -5.28305e+07 9.56145e+07)
(1.84143e+09 6.14557e+07 -5.17293e+08 2.07628e+09 -1.10672e+08 1.91974e+09)
(1.32322e+09 1.7445e+08 -5.25828e+08 1.30568e+09 3.51824e+07 1.34468e+09)
(1.92025e+09 1.02944e+08 8.56672e+08 1.84317e+09 2.78971e+08 1.68466e+09)
(1.31087e+09 3.15182e+08 -3.13112e+08 8.58907e+08 -3.0306e+07 1.34736e+09)
(4.06221e+09 2.89096e+07 -4.53334e+08 4.02478e+09 3.37134e+08 4.06598e+09)
(1.05922e+09 -5.61643e+07 -3.8431e+08 9.98188e+08 -3.32281e+08 7.50192e+08)
(1.00242e+09 -7.24262e+07 -7.08398e+07 7.32471e+08 -4.9125e+07 4.60007e+08)
(6.0577e+08 2.65054e+07 -9.54657e+07 6.44821e+08 -2.61166e+07 5.82213e+08)
(5.84473e+08 7.62655e+07 -1.69443e+08 5.50287e+08 -3.99821e+07 4.21342e+08)
(6.17997e+07 6.29224e+07 -3.53438e+07 1.46857e+08 2.8733e+07 2.84264e+07)
(3.73448e+08 6.21383e+07 -3.74131e+08 6.34382e+08 -8.75426e+07 7.04791e+08)
(3.33284e+08 9.44322e+06 2.43573e+08 7.08423e+08 5.13784e+08 5.08655e+08)
(1.77852e+09 -3.7189e+08 -6.19405e+08 1.32269e+08 1.22803e+08 1.67881e+09)
(1.0346e+09 -5.02382e+08 4.55e+08 1.81007e+09 1.54786e+09 1.40183e+09)
(2.29203e+09 4.5056e+08 -3.80796e+08 2.53277e+09 -3.15742e+08 3.1196e+09)
(9.95317e+09 -2.48319e+07 -1.74622e+09 9.34384e+09 1.98613e+08 9.59939e+09)
(1.90074e+09 554374 -2.75919e+08 1.64186e+09 3.93686e+07 1.53355e+09)
(5.9995e+08 1.06676e+06 -1.32984e+08 5.32023e+08 -4.68649e+07 4.63821e+08)
(9.5845e+07 1.33767e+07 -1.14149e+07 9.31918e+07 1.08012e+07 9.27765e+07)
(5.50354e+08 -1.29189e+08 -2.10858e+08 2.1424e+08 9.89468e+07 2.47165e+08)
(-2.92539e+08 2.54753e+08 1.29581e+08 3.60555e+07 -2.25567e+07 -1.68655e+07)
(3.60252e+09 -1.22849e+09 -1.50175e+08 2.79675e+09 3.72824e+08 3.23754e+09)
(4.15107e+09 1.13093e+09 2.96503e+09 7.70884e+09 -9.37916e+08 6.66861e+09)
(7.08283e+09 3.51756e+08 -6.93942e+08 8.31472e+09 5.27866e+08 8.85272e+09)
(2.31763e+10 -2.54618e+08 -2.09144e+09 2.24909e+10 -4.25018e+08 2.24135e+10)
(2.31511e+09 -2.146e+07 -1.374e+08 2.07163e+09 -5.5709e+06 2.00532e+09)
(2.2997e+09 -7.69812e+07 -1.765e+08 1.79002e+09 -4.28146e+07 1.61209e+09)
(1.38273e+08 1.72379e+07 3.49606e+06 1.0768e+08 -4.28566e+07 2.11239e+08)
(1.71622e+08 -9.57582e+06 202230 1.34926e+08 -9.85004e+07 2.48334e+08)
(2.75222e+08 1.4058e+08 7.65957e+07 2.66847e+08 -6.11065e+06 3.9745e+08)
(4.11078e+08 3.32954e+07 1.82788e+06 4.24203e+08 -1.06542e+08 4.52055e+08)
(8.88422e+08 -6.15353e+06 -7.07502e+07 1.11178e+09 1.02771e+08 1.12802e+09)
(3.32537e+07 2.0964e+07 -1.70158e+07 7.37089e+07 -2.77034e+07 1.067e+08)
(2.58574e+08 -9.46465e+07 -2.07378e+08 -347361 -9.92207e+07 3.38271e+08)
(2.04421e+08 7.38284e+07 -4.00111e+07 2.51583e+08 2.0708e+07 2.55444e+08)
(1.5885e+09 -5.83288e+07 -1.9982e+08 4.78633e+08 -1.65567e+07 1.52269e+09)
(5.40074e+08 -4.20344e+07 -1.86913e+07 5.3778e+08 -5.04927e+07 5.63755e+08)
(1.85238e+08 -3.72008e+07 -3.97961e+07 1.76642e+08 -9.26055e+07 1.47629e+08)
(3.87161e+08 8.79062e+07 9.17447e+07 2.778e+08 -1.27068e+08 4.18978e+08)
(4.75919e+08 4.98289e+07 -1.09708e+08 6.14824e+08 -1.36673e+08 4.74753e+08)
(9.13195e+08 3.74908e+08 4.07885e+08 1.12539e+09 1.15011e+08 1.17855e+09)
(3.44468e+08 6.62287e+07 2.10237e+08 5.84986e+08 -6.80355e+07 6.85252e+08)
(2.7544e+09 -5.68746e+08 -8.52786e+08 2.68527e+09 3.78073e+07 4.08027e+09)
(1.12343e+09 1.80995e+08 3.18593e+08 9.82373e+08 -8.51406e+07 4.46785e+08)
(5.00639e+09 -1.20211e+09 -6.23595e+08 2.15992e+09 8.57654e+07 4.36368e+09)
(4.06292e+09 -9.41846e+07 -5.04316e+08 5.30402e+09 7.96926e+06 4.75902e+09)
(3.16459e+09 1.20114e+09 -8.81021e+07 4.65325e+09 -3.02761e+08 4.26628e+09)
(7.75331e+08 -436217 -8.79038e+07 6.72482e+08 -4.98342e+07 8.72339e+08)
(1.39117e+09 6.07636e+07 8.13006e+07 1.46969e+09 -8.35119e+07 7.77215e+08)
(1.14832e+09 1.97805e+08 2.01086e+08 1.19958e+09 -1.65313e+08 9.74085e+08)
(2.39497e+08 -3.01231e+07 3.15936e+07 4.10089e+08 1.63063e+07 3.33643e+08)
(2.43336e+09 -8.58389e+08 -7.27699e+08 2.08366e+09 -2.71249e+08 4.29777e+09)
(-1.02736e+08 1.24385e+08 6.74467e+07 2.72545e+08 -4.52447e+07 -1.85416e+08)
(6.97481e+09 -1.73363e+09 -3.34912e+08 3.60496e+09 2.96791e+08 5.09435e+09)
(1.62107e+09 8.75616e+08 3.47994e+08 1.8403e+09 -5.2482e+08 6.6658e+08)
(8.82922e+09 4.06809e+08 -1.47257e+08 9.95798e+09 -2.75392e+07 9.50396e+09)
(5.49758e+09 -5.32311e+08 -5.47885e+08 5.62324e+09 -1.48789e+08 5.63143e+09)
(9.20201e+08 8.62744e+07 7.62009e+07 1.05486e+09 -1.06246e+07 5.7782e+08)
(7.92665e+08 1.45102e+08 -1.272e+07 7.05757e+08 -1.41269e+08 4.46392e+08)
(7.46174e+09 -1.89488e+07 -1.33025e+08 7.53965e+09 6.57832e+07 7.94402e+09)
(4.12481e+08 -4.80066e+08 -1.54164e+08 5.0117e+08 5.37143e+07 9.94639e+08)
(6.22761e+07 5.56373e+07 7.44275e+07 5.48003e+08 -8.04319e+07 8.74958e+07)
(3.72687e+09 -1.22433e+09 -4.22381e+08 4.01845e+09 5.39642e+08 3.25587e+09)
(1.89816e+09 2.73748e+08 -2.63695e+08 2.79279e+09 -2.05601e+08 1.17472e+09)
(4.48778e+09 2.02192e+08 -9.05908e+07 5.24847e+09 -3.63461e+07 4.86469e+09)
(2.00657e+09 -2.39363e+08 -2.26738e+08 1.33269e+09 -2.52995e+08 1.82732e+09)
(8.22995e+08 2.54361e+08 3.98625e+08 1.10453e+09 -1.15548e+08 1.31205e+09)
(4.86608e+08 -7.58458e+07 1.70394e+07 3.08902e+08 -2.45043e+08 6.2882e+08)
(1.52231e+08 7.88856e+07 -6.23516e+07 9.6843e+07 -1.17517e+08 2.79262e+08)
(7.67634e+08 -2.14267e+07 -1.47836e+08 5.87318e+08 -2.92414e+08 8.40756e+08)
(9.10938e+08 4.97173e+08 1.27413e+08 1.15885e+09 6.46768e+07 9.5122e+08)
(6.83448e+08 4.91805e+07 1.79115e+07 8.4609e+08 -1.13883e+08 9.01066e+08)
(2.04659e+09 -1.44184e+08 -1.53718e+08 2.34169e+09 2.25987e+08 2.31127e+09)
(4.97941e+07 -241203 -3.01152e+07 4.72223e+07 -2.18257e+07 7.90534e+07)
(8.47589e+08 6.60916e+07 2.14695e+08 1.98295e+09 6.90144e+07 1.37709e+09)
(6.55987e+07 -4.86357e+06 5.87256e+06 -1.07479e+07 -1.6493e+06 2.6348e+07)
(2.55698e+09 -4.52372e+08 -4.11262e+08 2.28535e+09 -2.62456e+07 2.66361e+09)
(5.45569e+08 -5.97845e+07 -2.51779e+07 6.32658e+08 1.57683e+07 6.36217e+08)
(3.30845e+09 2.67146e+08 -8.39754e+07 2.86997e+09 -9.26009e+08 3.26893e+09)
(1.16098e+09 2.93935e+08 1.92402e+08 9.054e+08 -2.93265e+08 1.12829e+09)
(9.46427e+08 4.46943e+07 -3.79771e+07 1.3617e+09 -3.70848e+07 1.31634e+09)
(2.01485e+09 1.93678e+08 7.5106e+08 2.35552e+09 4.77942e+08 1.95261e+09)
(2.09589e+08 5.89338e+06 9.81642e+07 2.52036e+08 -4.32602e+07 1.59426e+08)
(1.87286e+09 2.52908e+07 -3.11388e+08 2.33418e+09 -8.65065e+06 2.45927e+09)
(1.82281e+09 -8.79624e+07 3.75758e+07 1.62066e+09 -4.00626e+07 1.49205e+09)
(5.84481e+09 -9.12573e+08 -5.52203e+08 5.48667e+09 2.11639e+08 5.8636e+09)
(3.26278e+08 -9.18467e+06 -6.85513e+07 6.01142e+08 -7.01359e+07 6.45225e+08)
(1.47882e+10 -1.34396e+09 -3.37223e+09 1.22215e+10 -1.61846e+09 6.6502e+09)
(3.81358e+09 -2.29003e+08 -9.7257e+08 2.25105e+09 -7.41906e+08 3.7405e+09)
(1.62111e+10 6.19915e+07 5.41598e+08 1.70875e+10 3.60483e+08 1.68106e+10)
(1.01656e+10 6.45454e+08 1.33105e+09 1.08113e+10 -4.63349e+07 1.0376e+10)
(4.07434e+07 -1.15427e+07 1.89112e+07 2.07886e+08 9.61761e+06 7.44374e+07)
(6.24845e+09 -5.65128e+08 -9.76301e+08 6.47438e+09 -2.76353e+08 7.01769e+09)
(2.40011e+08 2.81804e+07 -3.28701e+07 3.79669e+08 -4.33495e+07 2.66172e+08)
(4.52785e+08 7.79041e+06 -2.28567e+08 3.75514e+08 1.54581e+08 5.74306e+08)
(1.51978e+09 -8.84616e+07 -1.03682e+08 1.64745e+09 -1.75384e+08 1.52481e+09)
(2.1251e+09 -1.2585e+08 4.46685e+07 2.95092e+09 2.98037e+06 2.63562e+09)
(1.04226e+10 -1.46487e+09 -1.38953e+09 1.03015e+10 -1.10032e+09 9.95724e+09)
(3.58692e+10 5.71201e+08 2.68303e+09 3.99048e+10 4.14524e+08 3.78566e+10)
(1.01528e+10 6.07017e+08 5.72722e+08 1.02968e+10 5.41538e+08 1.0567e+10)
(2.72763e+10 -1.39069e+08 -4.10641e+08 2.69187e+10 3.71175e+07 2.70385e+10)
(2.12684e+09 -2.83752e+08 -2.19419e+08 1.9315e+09 -1.9381e+08 2.22345e+09)
(1.08666e+08 -4.37216e+06 -3.45266e+07 1.46496e+08 -1.45363e+07 1.05021e+08)
(4.19032e+08 6.46494e+06 -6.8384e+07 5.24906e+08 8.73469e+07 5.54611e+08)
(3.7877e+08 -1.06995e+08 -1.28695e+08 4.41159e+08 -1.07066e+08 4.80185e+08)
(2.42804e+08 -3.28389e+07 8.09101e+07 8.95154e+08 -5.05903e+07 8.58057e+08)
(5.57772e+08 -8.82042e+08 -3.9388e+08 1.68579e+09 1.75466e+08 1.61919e+09)
(1.03873e+09 3.64659e+07 -5.40613e+07 1.21317e+09 -6.84282e+07 1.20114e+09)
(1.79158e+08 1.61289e+08 -1.08001e+08 2.00726e+08 -1.70057e+08 2.38768e+08)
(4.82749e+08 1.55804e+08 -1.62538e+08 6.66106e+08 -8.40622e+07 4.38062e+08)
(9.54602e+07 -5.80703e+07 3.76045e+07 1.13982e+08 -8.50796e+07 2.03068e+08)
(7.93809e+08 2.73583e+08 3.08361e+07 1.13658e+09 -2.73803e+07 5.83773e+08)
(4.79664e+08 9.7421e+07 -1.68509e+08 6.77507e+08 -1.62595e+08 7.01308e+08)
(1.2026e+09 -3.20111e+08 -2.46139e+08 1.14789e+09 1.41709e+08 1.12106e+09)
(4.10267e+08 -3.03175e+07 -6.82089e+07 3.34954e+08 2.68465e+06 3.75276e+08)
(5.2759e+08 -5.63035e+07 4.5042e+07 7.66726e+08 -1.53318e+08 2.36917e+08)
(7.75443e+08 -7.26203e+07 3.93522e+07 5.38564e+08 -5.16866e+07 5.57177e+08)
(6.77424e+09 3.59105e+08 2.84702e+07 6.60461e+09 -1.58106e+09 6.73477e+09)
(1.46065e+08 6.20171e+07 -2.15986e+07 1.90361e+08 -1.5344e+07 1.47138e+08)
(2.42175e+08 1.00888e+07 3.66676e+07 7.71318e+08 6.54333e+06 7.41272e+08)
(1.88288e+08 1.11554e+08 4.6427e+07 4.36733e+08 -2.17182e+07 1.52193e+08)
(9.60051e+08 -1.22114e+06 -2.0409e+08 1.21362e+09 -3.28614e+08 1.30579e+09)
(1.16691e+09 -3.17068e+08 -3.97828e+07 1.02778e+09 6.01599e+07 4.75211e+08)
(6.5297e+08 1.03401e+07 1.05689e+08 7.88928e+08 8.94267e+06 7.04294e+08)
(7.6248e+08 8.82988e+07 -4.70307e+08 2.02801e+09 -2.89159e+08 1.00065e+09)
(3.03255e+08 -1.17031e+08 -4.23211e+07 2.0391e+08 -1.31007e+07 1.76911e+08)
(2.94857e+09 -6.58996e+08 -5.5068e+07 3.01468e+09 1.29363e+08 3.07377e+09)
(8.12137e+08 -9.48019e+07 -52087.1 5.19984e+08 -1.93441e+08 4.9896e+08)
(3.03351e+10 2.01954e+08 2.25973e+09 3.24919e+10 2.20353e+08 3.31157e+10)
(7.8795e+08 6.51408e+07 -2.00808e+07 1.0239e+09 8.04638e+06 1.05593e+09)
(2.02296e+09 -1.82801e+08 -4.15814e+08 2.13134e+09 -3.06336e+07 2.05785e+09)
(5.73804e+08 8.2529e+07 2.68915e+08 5.5038e+08 -2.89851e+08 -3.22109e+07)
(1.51225e+09 1.50019e+08 1.50907e+08 1.63108e+09 1.32485e+07 1.53935e+09)
(1.69474e+09 -9.79716e+07 -2.5312e+08 1.97596e+09 -1.24402e+08 1.79828e+09)
(2.74485e+08 -1.28764e+08 -3.20207e+07 3.60409e+08 -7.01755e+07 3.46354e+08)
(1.58397e+09 -6.77896e+08 -1.79352e+08 1.70818e+09 3.70975e+07 1.73232e+09)
(2.97257e+08 -4.27308e+07 -6.76212e+07 3.87889e+08 -4.48228e+07 3.94481e+08)
(1.49006e+10 -1.25826e+08 8.09989e+08 1.73999e+10 1.29686e+09 1.6856e+10)
(2.67428e+09 3.24117e+07 4.49036e+07 2.80252e+09 3.60493e+07 2.8833e+09)
(2.6762e+09 -8.33835e+07 1.23683e+08 2.48956e+09 -9.53591e+07 2.05509e+09)
(2.81407e+08 2.76516e+07 -2.63388e+07 3.16953e+08 -6.79159e+07 2.45985e+08)
(3.60686e+08 3.67878e+07 -1.62739e+07 4.65653e+08 2.83421e+07 3.93327e+08)
(2.24926e+08 -2.78312e+07 -1.93969e+07 1.90584e+08 -6.46363e+07 2.51582e+08)
(1.10129e+08 -4.97388e+07 -7.26791e+07 7.49221e+07 -1.78224e+07 1.23215e+08)
(-5.57113e+07 -2.89522e+07 -7.0513e+07 1.39724e+08 -5.72414e+07 1.81374e+08)
(3.51351e+08 -1.07185e+08 -1.37001e+08 7.55553e+08 -3.71547e+07 5.75253e+08)
(7.80101e+08 -3.44687e+07 5.19618e+07 2.30222e+09 -7.30569e+07 1.53373e+09)
(2.63516e+09 -2.19801e+08 -1.39746e+08 3.61964e+09 -5.08066e+08 2.91818e+09)
(4.49056e+09 1.7232e+08 -4.1038e+08 5.12108e+09 -9.45685e+07 4.36377e+09)
(9.65774e+07 -862726 5.83794e+06 6.65695e+07 -3.8258e+07 -2.01928e+07)
(1.79638e+09 1.46417e+08 -1.21056e+08 2.20246e+09 -5.55532e+07 1.46683e+09)
(7.73454e+07 -1.27128e+07 2.4641e+07 3.01061e+07 -3.52004e+07 -1.55372e+08)
(1.10945e+09 1.45435e+08 -5.40837e+07 1.38887e+09 -8.59714e+07 4.7755e+08)
(-9.16146e+07 2.21659e+08 -2.60952e+08 7.32862e+08 -1.55717e+08 1.99225e+08)
(1.4985e+09 -2.80492e+08 -4.16984e+08 9.86984e+08 -1.99802e+07 1.11532e+09)
(3.7465e+09 -4.66787e+08 -1.77929e+08 3.1104e+09 -1.3457e+08 3.63023e+09)
(3.22358e+08 2.01945e+08 2.06558e+08 1.02799e+09 -7.42696e+07 8.81691e+08)
(4.15195e+08 -1.69351e+07 -4.09357e+07 7.22808e+08 -1.22286e+08 5.6346e+08)
(7.57455e+08 8.96998e+06 1.24701e+08 1.17859e+09 2.01999e+07 9.90152e+08)
(5.91695e+08 9.50987e+07 -6.45947e+07 1.01185e+09 6.20939e+06 4.87208e+08)
(1.84583e+07 -3.17237e+07 -1.56595e+07 1.20018e+08 -4.2749e+07 5.18375e+06)
(7.98401e+08 1.81583e+08 -4.8952e+07 1.46894e+09 -1.01557e+07 2.84959e+08)
(1.57433e+08 1.33039e+08 5.22678e+07 2.26695e+08 -9.24953e+07 1.98935e+08)
(2.57834e+09 -7.02817e+08 -6.42884e+08 2.24036e+09 3.88311e+07 1.53498e+09)
(1.44814e+09 -5.58181e+08 -1.87212e+07 1.18159e+09 -1.89038e+08 1.36753e+09)
(1.49987e+09 2.53151e+08 2.04247e+08 2.56442e+09 2.31505e+07 1.94796e+09)
(1.18542e+09 1.17813e+08 -4.61549e+07 1.73518e+09 4.22015e+07 1.43215e+09)
(2.23413e+10 1.01951e+08 1.07886e+09 2.37489e+10 1.62894e+08 2.45307e+10)
(4.34551e+08 4.44907e+07 -3.46291e+07 5.39941e+08 4.43081e+07 3.08618e+08)
(8.69857e+08 -1.22394e+08 -7.63544e+07 8.57827e+08 -8.89709e+06 7.14019e+08)
(3.29249e+08 6.67654e+07 3.60699e+07 5.08427e+08 -2.69261e+07 2.14287e+08)
(1.04275e+08 -1.68059e+07 -6.04371e+06 1.05017e+08 3.98471e+07 9.53998e+07)
(1.5275e+09 -3.555e+08 -3.36228e+08 1.59053e+09 -1.60762e+08 8.57271e+08)
(1.83614e+08 4.97805e+07 9.86007e+07 2.9388e+08 -1.17522e+08 1.73852e+08)
(1.31489e+09 3.01903e+07 6.25509e+07 2.02545e+09 3.41993e+07 1.57113e+09)
(7.2243e+08 -7.86617e+06 -1.98169e+07 8.20151e+08 -5.90096e+06 7.61265e+08)
(2.78097e+08 -1.02949e+08 -1.31384e+08 7.86042e+08 4.89961e+07 5.74832e+08)
(4.55314e+08 8.2167e+07 5.85091e+07 6.25095e+08 2.03878e+07 6.31869e+08)
(8.16774e+08 -8.18429e+07 1.05593e+08 6.78725e+08 -3.73045e+07 6.59095e+08)
(1.82207e+08 3.80766e+07 2.61878e+07 3.87216e+08 -6.19864e+07 1.39671e+08)
(3.52641e+08 -7.00241e+07 -3.37304e+07 4.6279e+08 8.20292e+07 2.28672e+08)
(5.01366e+08 2.42533e+07 -1.61411e+07 6.34635e+08 -7.24936e+07 5.16345e+08)
(2.34952e+08 1.15029e+08 -1.08072e+07 3.87651e+08 5.37982e+07 2.32728e+08)
(3.56475e+08 -9.55167e+07 -2.76201e+07 6.54674e+08 -5.55543e+06 4.09629e+08)
(3.46956e+08 -9.91894e+07 -1.02156e+08 5.31802e+08 3.29819e+07 4.28254e+08)
(3.2647e+08 5.51118e+07 -5.81336e+07 7.26693e+08 -1.20884e+08 6.008e+08)
(9.37528e+07 -1.15823e+08 5.22972e+07 4.5501e+08 1.65607e+08 4.48003e+08)
)
;

boundaryField
{
    inlet
    {
        type            calculated;
        value           nonuniform 0();
    }
    outlet
    {
        type            calculated;
        value           nonuniform 0();
    }
    bottom
    {
        type            calculated;
        value           nonuniform List<symmTensor> 
40
(
(29.7553 14.2049 -1943.2 -224.052 -475.691 141.697)
(-280.387 280.217 -1750.71 161.951 -412.216 -302.89)
(-96.8297 335.762 -1920.92 397.86 -355.02 -260.679)
(536.221 7.95662 -1749.29 29.5723 4.6725 -1065.24)
(-140.788 132.792 -1920.52 -55.7145 -338.713 89.7388)
(-303.344 327.716 -2128.95 353.835 -670.065 64.2057)
(390.435 422.87 -1756.35 200.88 52.4664 -1373.95)
(38.96 341.569 -796.361 -28.7888 51.6557 -484.531)
(-157.904 109.45 -2072.51 96.7103 -554.94 151.908)
(-89.5564 -52.3149 -1175.94 243.423 -182.95 -988.159)
(-236.561 433.465 -879.541 349.387 228.88 -496.194)
(627.565 -365.421 -1438.42 -323.161 493.344 53.5066)
(-107.754 267.619 -2119.71 -482.367 214.483 110.155)
(-457.983 264.309 -3199.47 552.057 -868.106 2020.74)
(-330.14 143.183 -1830.76 271.124 85.2938 -193.939)
(-751.03 553.245 218.046 -37.4253 -455.317 -128.612)
(-111.004 222.845 -2165.46 237.241 -968.055 -89.112)
(-146.104 679.306 -3255.89 -214.396 78.602 -4209.8)
(-558.723 22.6307 -11.0155 340.301 1057.43 -548.118)
(1024.44 -1885.96 -1310.52 -212.572 1250.94 2727.7)
(63.9672 248.98 -2351.65 -203.305 48.1668 66.5503)
(424.768 202.365 787.347 273.24 468.111 -507.007)
(901.89 -624.176 -2151.12 -1861.16 891.66 3673.23)
(-2001.23 1178.7 3620.13 1706.82 -2970.21 1720.55)
(-37.9853 352.946 -2274.89 315.507 622.935 -736.558)
(307.171 1384.49 -2254.23 -1678.18 498.345 2763.89)
(-235.627 -483.632 355.701 510.895 -97.1633 -527.925)
(-3996.62 1349.17 -4745.88 728.346 3662.11 12306.4)
(-24.4206 492.438 -2515.32 592.153 246.162 -350.574)
(322.033 147.603 -3186.16 130.924 2400.19 -1194.31)
(-1408.53 1647.51 -3014.31 -528.248 362.936 7047.98)
(1825.15 -904.659 -8665.73 -610.073 -1527.79 -1891.77)
(91.9152 408.865 -2144.74 404.896 254.963 -1733.81)
(278.602 -197.272 -2373.48 64.2453 623.397 -676.146)
(1135.48 -64.869 -5337.81 -456.271 121.53 -2297.54)
(2055.73 -228.364 -2349.3 -535.254 108.353 -2584.8)
(481.765 283.056 -2540.11 413.913 358.062 -404.153)
(1246.28 -308.243 -770.037 97.4111 308.286 -2682.9)
(1349.02 3.62872 -2147.57 -345.549 676.132 -1610.2)
(2236.45 -425.996 -1416.97 -584 -33.2833 -2364.43)
)
;
    }
    top
    {
        type            symmetryPlane;
    }
    side1
    {
        type            symmetryPlane;
    }
    side2
    {
        type            symmetryPlane;
    }
    procBoundary27to19
    {
        type            processor;
        value           nonuniform List<symmTensor> 
50
(
(-9.54449e+06 -4.40774e+07 -1.60517e+08 -2.77759e+07 -3.04904e+07 6.35204e+07)
(-4.14309e+07 -1.67534e+07 -1.42332e+08 -3.4114e+07 -3.45583e+07 7.55034e+07)
(-5.54044e+07 5.65743e+06 -2.03977e+08 -5.06752e+06 -2.78073e+07 6.40222e+07)
(-7.00683e+07 2.03171e+07 -2.21245e+08 -7.44228e+06 -5.68744e+07 9.30518e+07)
(-5.56919e+07 3.45945e+07 -2.45363e+08 1.08159e+07 -1.50196e+07 4.44469e+07)
(-4.64759e+07 5.75455e+07 -2.53537e+08 3.30918e+07 -2.68891e+07 3.31228e+07)
(-2.52532e+07 6.32897e+07 -3.57302e+08 2.49292e+07 -2.94302e+07 -1.47961e+07)
(-3.11371e+07 6.28217e+07 -2.32585e+08 6.15098e+07 -2.97461e+07 -4.24679e+06)
(3.45373e+07 9.51605e+06 -5.85136e+08 1.47345e+08 -8.47787e+07 -1.99384e+08)
(-2.2646e+06 4.92706e+07 -1.71338e+08 7.81158e+07 -4.55377e+07 -5.08284e+07)
(-2.91602e+07 -2.16405e+07 1.56741e+07 -6.99281e+07 -2.85552e+07 9.10187e+07)
(-1.20439e+07 8.57482e+06 -1.45523e+07 -1.23996e+07 -1.31456e+07 3.23334e+07)
(-5.49824e+07 -6.232e+06 4.34168e+06 -6.35742e+07 -6.6182e+07 1.06492e+08)
(-3.37061e+07 1.58729e+07 -1.2696e+07 1.7584e+07 5.41124e+06 2.23735e+07)
(-4.50988e+07 2.40314e+07 -3.19078e+07 -9.63845e+06 -4.36187e+07 5.49805e+07)
(-3.77687e+07 -3.68671e+07 -5.91165e+07 -9.50298e+06 -2.0255e+07 4.14387e+07)
(-2.96548e+06 7.80768e+06 -9.73294e+06 -8.91936e+06 -1.08263e+07 1.6623e+07)
(2.60059e+06 -8.56515e+07 -1.16331e+08 -2.92708e+07 -2.97848e+07 1.26426e+07)
(-5.07877e+06 -5.54826e+06 -3.79816e+06 5.52392e+06 -2.52242e+07 1.87189e+07)
(-1.70791e+07 -3.17042e+07 -5.43834e+07 -6.00927e+07 -1.2981e+07 3.55909e+07)
(-5.46199e+07 -1.53314e+07 -6.49215e+07 -2.44597e+07 -5.36884e+07 5.50188e+07)
(-1.1339e+07 -1.9022e+07 -4.44466e+07 -1.38651e+08 -7.24699e+07 7.28274e+07)
(2.35475e+07 4.49026e+07 -1.13796e+08 -4.66723e+06 -6.15166e+07 4.76589e+07)
(1.51471e+07 2.66232e+07 -3.76245e+07 -1.9024e+08 -1.01411e+08 5.17197e+07)
(-5.73633e+07 2.59809e+07 -2.83188e+07 1.30856e+08 1.85478e+07 1.02643e+07)
(-3.01898e+07 1.64456e+07 -3.48766e+07 -1.69545e+07 -2.53889e+07 2.62922e+07)
(1.17105e+08 -1.4209e+08 -1.44093e+08 -5.07131e+07 -2.27404e+07 3.66724e+07)
(5.90278e+06 -1.40582e+07 -6.49348e+06 -2.15411e+07 -5.77175e+06 2.03477e+06)
(-1.43326e+08 -1.52834e+08 -4.63807e+07 1.78374e+08 1.10644e+08 9.48069e+07)
(3.16369e+08 -2.48688e+08 1.24093e+08 -3.71734e+08 1.12937e+07 -7.73401e+07)
(-5.31102e+08 -8.59441e+07 -3.5003e+07 1.26711e+07 -1.85415e+08 2.06756e+08)
(9.367e+06 2.36604e+08 -3.70897e+08 1.8371e+08 -2.59639e+08 3.91531e+07)
(1.92721e+07 5.95078e+06 -6.37875e+06 -2.44692e+07 -4.31884e+06 -9.00893e+06)
(1.15242e+08 1.2814e+08 -2.19062e+08 2.14971e+08 -2.00977e+08 -1.69725e+07)
(7.11121e+07 -337423 -3.20445e+07 -1.93936e+08 2.05181e+07 -5.59978e+07)
(9.8733e+06 2.97368e+07 -9.82121e+07 2.12592e+08 -1.44446e+07 -3.98559e+07)
(-2.11378e+06 3.06854e+07 -1.15302e+08 -5.70846e+07 -5.72309e+07 1.94435e+07)
(1.20803e+08 -9.54414e+07 -9.76156e+07 -7.86709e+07 -3.7082e+07 1.46773e+07)
(3.09898e+07 -8.70369e+06 -3.59927e+07 -2.92505e+07 -1.46483e+07 -1.26604e+06)
(2.40456e+08 8.58287e+07 2.45075e+07 -5.86335e+07 -2.43456e+07 2.80812e+07)
(-2.09299e+09 5.90561e+09 3.4482e+08 6.24297e+09 7.47938e+07 -1.66541e+09)
(-3.61419e+08 5.48298e+07 -2.59314e+08 4.77358e+07 -1.07137e+08 -9.29606e+07)
(8.17464e+08 5.69023e+08 -3.05804e+08 7.91283e+08 -8.65572e+07 -3.71993e+08)
(3.12391e+06 -2.60519e+07 -8.75549e+06 -2.35703e+07 -3.5067e+06 -4.57479e+07)
(7.08887e+07 1.82148e+08 -1.05454e+08 3.40958e+08 -7.38933e+07 -1.54027e+08)
(3.19768e+07 -9.76686e+07 -1.28055e+07 -5.13731e+07 4.41675e+07 -1.51616e+08)
(3.57989e+07 2.22198e+07 -1.10864e+07 6.18877e+07 -2.88466e+07 -5.47021e+07)
(-2.76984e+08 4.60006e+07 -1.62472e+08 2.56002e+08 -9.42365e+07 -6.11571e+07)
(3.08881e+07 1.81233e+07 -5.7513e+07 -4.02678e+07 -4.31799e+07 -8.68696e+06)
(6.45116e+07 -1.91931e+07 -4.7911e+07 -1.06981e+08 -5.44784e+07 1.22936e+07)
)
;
    }
    procBoundary27to26
    {
        type            processor;
        value           nonuniform List<symmTensor> 
20
(
(9.28069e+07 -1.30951e+08 -8.68888e+07 -5.06665e+07 -3.73503e+07 2.96191e+07)
(1.22321e+07 -2.78095e+07 -2.79556e+08 1.13634e+07 -7.69337e+07 -1.38796e+07)
(-7.59277e+07 1.10355e+07 -1.72672e+08 5.54571e+07 -3.91902e+07 -2.27209e+07)
(-8.83458e+06 3.96598e+06 -1.0287e+08 2.3045e+07 4.92859e+06 -1.88785e+07)
(1.00683e+07 -1.00181e+07 -1.0511e+06 -4.1914e+07 -2.63712e+07 2.6164e+07)
(-1.63444e+07 -1.008e+07 -2.40723e+07 -9.76242e+06 -3.07361e+07 4.76224e+07)
(-1.44689e+07 -1.27302e+07 -9.0948e+07 1.57263e+08 -8.08927e+07 -1.69951e+08)
(606198 -7.57675e+07 -9.96516e+07 8.29238e+07 -5.42802e+07 -8.28025e+06)
(-1.42007e+07 -3.54895e+07 5.82448e+06 -3.97261e+07 -7.30375e+07 5.51209e+07)
(6.82409e+06 -2.38932e+08 -1.66709e+08 -1.24461e+08 -4.25962e+08 -2.16076e+07)
(-1.43015e+08 7.34681e+07 2.03304e+08 2.64771e+07 -1.05323e+08 1.42361e+08)
(3.31265e+07 -2.58684e+08 -1.46671e+09 1.41379e+09 4.05399e+08 -1.8997e+09)
(-3.39598e+08 -2.73565e+08 7.04588e+07 1.73238e+07 -2.66896e+08 6.23241e+07)
(-2.6397e+07 -3.49979e+07 -3.66971e+06 4.94377e+07 -1.94399e+07 6.8538e+06)
(4.16312e+09 -1.41211e+09 -7.90867e+09 7.22626e+08 -1.94581e+09 -3.21766e+09)
(-1.33355e+08 -9.6199e+07 -2.50563e+08 2.37335e+08 -7.59557e+08 -1.15092e+08)
(-2.54753e+09 3.74173e+08 3.7994e+08 5.88496e+09 -5.24887e+07 -5.18583e+08)
(-2.78739e+08 -1.80348e+08 -1.96161e+08 -6.82449e+06 -1.22479e+09 -1.47787e+08)
(-2.72975e+08 -4.66499e+07 -2.03264e+07 -4.15666e+07 -9.36677e+07 2.86067e+08)
(-1.07622e+09 -2.85729e+07 5.07483e+08 5.69082e+08 5.15424e+08 5.98415e+08)
)
;
    }
    procBoundary27to28
    {
        type            processor;
        value           nonuniform List<symmTensor> 
20
(
(1.25617e+08 5.56149e+07 -2.05921e+07 -2.36715e+07 2.50653e+07 -1.03194e+08)
(1.82724e+08 9.57995e+07 -3.79689e+08 -7.73073e+06 -4.7637e+07 -4.53896e+07)
(7.67758e+08 -3.58186e+08 5.20795e+08 -1.70698e+08 -3.44966e+08 -6.53811e+08)
(1.46472e+08 -6.79045e+06 5.67008e+07 1.20282e+07 4.45642e+07 -5.51036e+07)
(-3.96792e+08 1.3363e+08 -3.50097e+07 2.29063e+08 -1.0625e+08 1.27496e+07)
(3.24664e+08 -2.51845e+08 3.74671e+07 -4.48962e+07 -3.16673e+08 -1.06468e+08)
(-8.18458e+07 -1.13745e+08 3.64557e+08 1.15476e+08 1.83948e+08 2.99823e+08)
(-3.16989e+08 -3.27684e+08 -1.67979e+08 1.15421e+08 1.40078e+08 -6.301e+06)
(1.27919e+08 -7.56865e+08 7.80299e+08 -1.19319e+08 -1.37073e+08 1.73664e+07)
(-2.6115e+08 1.44008e+08 1.44173e+07 2.16649e+08 -5.17726e+07 1.02564e+08)
(-2.14272e+08 -1.8537e+08 -1.66421e+08 -1.6896e+08 -2.23631e+08 2.07078e+08)
(-8.17796e+09 1.34182e+09 8.26627e+09 6.83699e+09 -1.71188e+09 -8.19393e+08)
(1.89226e+09 -1.42807e+09 6.0927e+07 -1.12987e+09 8.71653e+07 3.69173e+08)
(2.72153e+07 -1.16372e+08 -4.94027e+07 -1.3752e+07 -1.15311e+07 -5.08308e+06)
(-5.14427e+08 -2.94154e+08 -1.90173e+07 8.03883e+08 9.95943e+07 7.39398e+06)
(-7.78188e+08 -6.5162e+08 1.1673e+08 6.08642e+08 2.4331e+08 2.66058e+08)
(-2.62931e+08 2.46175e+08 1.53632e+07 6.16187e+07 -1.19263e+07 3.74162e+07)
(-2.26913e+08 -3.41956e+08 -1.28967e+08 3.33566e+08 2.14627e+08 2.30154e+07)
(-5.36717e+07 -3.25505e+07 1.501e+07 -3.56118e+07 1.69292e+07 2.6827e+07)
(-4.81458e+08 5.35751e+07 2.08202e+07 5.27872e+08 -1.61671e+08 -1.5035e+07)
)
;
    }
}


// ************************************************************************* //
