/*--------------------------------*- C++ -*----------------------------------*\
| =========                 |                                                 |
| \\      /  F ield         | OpenFOAM: The Open Source CFD Toolbox           |
|  \\    /   O peration     | Version:  2.4.0                                 |
|   \\  /    A nd           | Web:      www.OpenFOAM.org                      |
|    \\/     M anipulation  |                                                 |
\*---------------------------------------------------------------------------*/
FoamFile
{
    version     2.0;
    format      ascii;
    class       volScalarField;
    location    "0.02";
    object      alpha;
}
// * * * * * * * * * * * * * * * * * * * * * * * * * * * * * * * * * * * * * //

dimensions      [0 0 0 0 0 0 0];

internalField   nonuniform List<scalar> 
200
(
2.48603e-47
2.51824e-45
2.39729e-43
2.12291e-41
1.72591e-39
1.26627e-37
8.19358e-36
4.53091e-34
2.04996e-32
7.16574e-31
5.48327e-50
5.4068e-48
5.00343e-46
4.30061e-44
3.38828e-42
2.40514e-40
1.50326e-38
8.01736e-37
3.49748e-35
1.2005e-33
1.14388e-52
1.10074e-50
9.92804e-49
8.30594e-47
6.36036e-45
4.3819e-43
2.65474e-41
1.37151e-39
5.8062e-38
1.95644e-36
2.31825e-55
2.17631e-53
1.91279e-51
1.55757e-49
1.15953e-47
7.75747e-46
4.56034e-44
2.28666e-42
9.4286e-41
3.118e-39
2.40712e-49
2.37228e-47
2.19377e-45
1.88386e-43
1.48231e-41
1.05028e-39
6.54725e-38
3.47881e-36
1.50848e-34
5.05653e-33
5.49203e-52
5.27941e-50
4.75589e-48
3.97292e-46
3.03661e-44
2.08689e-42
1.26002e-40
6.47614e-39
2.71634e-37
8.96795e-36
1.18899e-54
1.11685e-52
9.81972e-51
7.99632e-49
5.95001e-47
3.97579e-45
2.33145e-43
1.16338e-41
4.74792e-40
1.54259e-38
2.50047e-57
2.29408e-55
1.96794e-53
1.56178e-51
1.13132e-49
7.35185e-48
4.19016e-46
2.03311e-44
8.09969e-43
2.58803e-41
1.21478e-51
1.16653e-49
1.04957e-47
8.75485e-46
6.67927e-44
4.57934e-42
2.75606e-40
1.41036e-38
5.87597e-37
1.89356e-35
2.8664e-54
2.68956e-52
2.36169e-50
1.92013e-48
1.42594e-46
9.50348e-45
5.55298e-43
2.75592e-41
1.11383e-39
3.54461e-38
6.43445e-57
5.90653e-55
5.06845e-53
4.02236e-51
2.91227e-49
1.89015e-47
1.07456e-45
5.18789e-44
2.04496e-42
6.41839e-41
1.40281e-59
1.25909e-57
1.05533e-55
8.17182e-54
5.76698e-52
3.64504e-50
2.01701e-48
9.48482e-47
3.65693e-45
1.13088e-43
4.24567e-54
3.97825e-52
3.48777e-50
2.83045e-48
2.09729e-46
1.39388e-44
8.11508e-43
4.00801e-41
1.60813e-39
4.99354e-38
1.03557e-56
9.49607e-55
8.13836e-53
6.44863e-51
4.65972e-49
3.01639e-47
1.70856e-45
8.20301e-44
3.20098e-42
9.83895e-41
2.40807e-59
2.1626e-57
1.81327e-55
1.40416e-53
9.90507e-52
6.253e-50
3.45147e-48
1.61489e-46
6.15908e-45
1.87079e-43
5.437e-62
4.77895e-60
3.91787e-58
2.96343e-56
2.03989e-54
1.25561e-52
6.7549e-51
3.08294e-49
1.15217e-47
3.45389e-46
1.15728e-56
1.05939e-54
9.06167e-53
7.16428e-51
5.16327e-49
3.33165e-47
1.87946e-45
8.97549e-44
3.47504e-42
1.04185e-40
2.91636e-59
2.61624e-57
2.19077e-55
1.69377e-53
1.19236e-51
7.50697e-50
4.12798e-48
1.92031e-46
7.24763e-45
2.15547e-43
7.01871e-62
6.17249e-60
5.06201e-58
3.82898e-56
2.63451e-54
1.61964e-52
8.69121e-51
3.94644e-49
1.45857e-47
4.29424e-46
1.63961e-64
1.41256e-62
1.13373e-60
8.38468e-59
5.63536e-57
3.3817e-55
1.7708e-53
7.85399e-52
2.84907e-50
8.29083e-49
)
;

boundaryField
{
    inlet
    {
        type            zeroGradient;
    }
    outlet
    {
        type            zeroGradient;
    }
    bottom
    {
        type            fixedValue;
        value           uniform 0;
    }
    top
    {
        type            symmetryPlane;
    }
    side1
    {
        type            symmetryPlane;
    }
    side2
    {
        type            symmetryPlane;
    }
    procBoundary26to18
    {
        type            processor;
        value           nonuniform List<scalar> 
50
(
1.11146e-44
1.15792e-42
1.13511e-40
1.03641e-38
8.69812e-37
6.59451e-35
4.41215e-33
2.52293e-31
1.18057e-29
4.2753e-28
1.04796e-46
1.05924e-44
1.00574e-42
8.87739e-41
7.18747e-39
5.24468e-37
3.36859e-35
1.84401e-33
8.24113e-32
2.84853e-30
5.15643e-49
5.06509e-47
4.66616e-45
3.98907e-43
3.1219e-41
2.19722e-39
1.35792e-37
7.13438e-36
3.05373e-34
1.0104e-32
1.75924e-51
1.68201e-49
1.50591e-47
1.24904e-45
9.46632e-44
6.43881e-42
3.83715e-40
1.9394e-38
7.97067e-37
2.53128e-35
4.68548e-54
4.3663e-52
3.80453e-50
3.06615e-48
2.25396e-46
1.48416e-44
8.54447e-43
4.1629e-41
1.64638e-39
5.03003e-38
)
;
    }
    procBoundary26to25
    {
        type            processor;
        value           nonuniform List<scalar> 
20
(
1.8746e-49
4.32236e-52
9.51852e-55
2.01838e-57
1.84245e-51
4.41281e-54
1.00864e-56
2.21747e-59
9.44217e-54
2.34652e-56
5.56121e-59
1.26639e-61
3.35156e-56
8.63262e-59
2.11907e-61
4.99334e-64
9.27859e-59
2.47438e-61
6.2849e-64
1.53107e-66
)
;
    }
    procBoundary26to27
    {
        type            processor;
        value           nonuniform List<scalar> 
20
(
1.81684e-29
3.02093e-32
4.87724e-35
7.68819e-38
1.23414e-31
2.17742e-34
3.71756e-37
6.17894e-40
4.45978e-34
8.32179e-37
1.49815e-39
2.61875e-42
1.13751e-36
2.23805e-39
4.23699e-42
7.77007e-45
2.30011e-39
4.75905e-42
9.45194e-45
1.81462e-47
)
;
    }
}


// ************************************************************************* //
