/*--------------------------------*- C++ -*----------------------------------*\
| =========                 |                                                 |
| \\      /  F ield         | OpenFOAM: The Open Source CFD Toolbox           |
|  \\    /   O peration     | Version:  2.4.0                                 |
|   \\  /    A nd           | Web:      www.OpenFOAM.org                      |
|    \\/     M anipulation  |                                                 |
\*---------------------------------------------------------------------------*/
FoamFile
{
    version     2.0;
    format      ascii;
    class       volVectorField;
    location    "0.02";
    object      Ub;
}
// * * * * * * * * * * * * * * * * * * * * * * * * * * * * * * * * * * * * * //

dimensions      [0 1 -1 0 0 0 0];

internalField   nonuniform List<vector> 
200
(
(0.450334 4.40154 -8.8911)
(-1.3943 -4.36371 1.81908)
(-1.35472 10.9882 -20.1923)
(1.10205 -0.769605 -1.05888)
(-1.82587 18.1131 -35.9769)
(7.66536 2.37681 -2.30037)
(-2.95945 39.4324 -82.2792)
(16.5876 4.99114 -3.37966)
(-10.4321 79.7534 -172.983)
(46.5703 12.2069 -7.04181)
(-2.84607 -6.4454 5.09847)
(-4.47946 10.2255 -23.2298)
(-2.51483 -5.60243 3.03003)
(-5.38855 18.551 -39.8728)
(4.67046 -0.196859 0.553394)
(-4.22817 39.7651 -86.1505)
(18.2406 3.15701 2.54978)
(-1.46123 90.4835 -181.314)
(51.6023 29.9743 -18.8781)
(58.1487 -0.00257001 106.98)
(-12.3633 11.9555 -29.6543)
(-7.27727 -10.3401 9.64002)
(-11.4604 15.9806 -38.6525)
(-1.97321 -7.6326 8.53415)
(-9.12891 32.9925 -67.745)
(12.1081 1.39683 6.46423)
(-2.54432 86.8412 -158.415)
(43.947 17.6907 9.08413)
(36.2017 -2.04903 33.9661)
(30.5598 0.480861 14.1985)
(-15.2845 -11.2453 16.7931)
(-22.3566 22.2986 -37.2208)
(-11.5502 -9.73096 14.5953)
(-16.9199 32.8475 -59.1384)
(-1.77106 -11.0802 10.1992)
(2.6134 65.6499 -106.787)
(45.4989 10.3507 26.299)
(37.159 0.21694 31.9434)
(32.9879 2.24161 11.5586)
(29.3624 0.987135 14.4856)
(10.5962 1.81055 5.69678)
(9.27092 7.02446 -0.954376)
(13.7344 5.65356 7.94818)
(11.0242 10.448 2.75377)
(10.5016 9.24025 -3.12647)
(7.86933 11.6888 -10.0738)
(10.0293 10.9708 -6.69099)
(-13.447 23.1015 -54.7618)
(14.7831 2.34871 -0.724013)
(-7.71803 -15.2025 19.0174)
(7.99082 1.83067 -9.83484)
(12.0243 0.874622 8.76943)
(12.8599 8.1512 0.467812)
(13.4503 4.36979 2.15278)
(12.4153 8.43288 -11.4765)
(15.2049 5.79376 -8.56787)
(-7.78579 26.2686 -66.6847)
(23.0591 10.4587 -6.15599)
(3.21243 -10.9913 38.188)
(3.48925 -2.86201 18.8159)
(6.84973 -2.99046 11.7172)
(6.26121 6.01366 -4.92702)
(9.7505 -0.801656 9.89312)
(8.83816 4.90794 -6.92481)
(13.6864 0.340107 4.24875)
(-8.13211 31.9235 -68.3933)
(16.7043 0.874162 7.60695)
(4.10478 -17.6141 30.9307)
(6.17627 -6.26385 14.1724)
(12.1698 -0.636108 14.4598)
(-7.82333 12.8039 -15.5707)
(5.32134 -3.16461 16.5601)
(2.16051 6.92268 -5.79325)
(8.83007 -1.99713 16.4192)
(-3.83034 37.4732 -59.6916)
(23.8811 4.75816 30.3656)
(8.89412 -8.83067 33.4337)
(11.2759 -5.54934 15.498)
(11.5773 -1.17357 18.1512)
(13.8912 0.431052 2.28514)
(8.39676 -1.17713 -11.8533)
(8.59384 2.91002 -0.0066497)
(10.1195 3.99976 7.23908)
(7.65746 3.53498 -2.45659)
(8.67676 -1.37748 4.23859)
(1.51382 4.5559 -9.60558)
(0.981557 0.737368 -8.50513)
(-3.39717 1.16938 -10.25)
(-4.54173 -5.2229 -1.44757)
(-5.58374 -2.74617 1.72725)
(7.86799 2.0204 -7.13395)
(9.44085 -1.25163 -18.6586)
(9.05953 1.77806 -1.83801)
(11.7632 5.52305 8.51905)
(4.26007 2.97504 -9.46654)
(3.40325 -0.395751 -9.41971)
(-0.739112 0.680281 -12.0485)
(-4.28571 -5.84663 -1.34327)
(-6.32297 -1.69578 2.84025)
(-0.677079 -6.38394 9.58686)
(8.72327 -2.11745 -9.90092)
(8.70546 -1.2586 1.29779)
(8.68363 2.40417 -2.94478)
(3.55694 1.49808 -8.07913)
(4.56145 -0.738397 -4.66364)
(-2.31234 -2.2531 -12.9193)
(-5.65002 -6.71459 -7.61402)
(-4.64071 -5.03859 -1.72046)
(1.5509 -1.83169 7.76498)
(0.691856 3.64157 6.314)
(5.78307 -1.02057 -4.05283)
(6.05733 5.64861 -15.4365)
(8.68928 0.268296 6.77413)
(2.40364 2.92584 -5.60034)
(4.56867 1.81506 4.90672)
(-5.80793 -3.08773 -0.303932)
(-1.52604 -4.13017 4.26987)
(0.249265 -1.66655 7.65537)
(1.01189 -0.843229 3.21315)
(4.46146 -0.691175 12.9557)
(8.99868 2.09695 -1.30739)
(8.48627 1.18405 3.49562)
(7.46767 3.56619 -3.62287)
(8.32475 -4.9852 7.20151)
(2.5047 1.05771 -3.53672)
(3.69385 -15.3502 -6.75914)
(-3.66439 6.28682 -1.64781)
(-3.7299 1.44671 -3.51998)
(-2.95217 0.889731 -3.41843)
(-0.892469 -3.86877 -0.251388)
(9.38402 -1.32954 -1.82334)
(7.60114 2.2589 -2.85415)
(7.27811 -0.599148 3.24485)
(5.67686 1.8652 -0.650201)
(2.39424 -4.79143 4.73682)
(-1.7488 2.86781 -3.04061)
(-5.05725 0.399695 -6.20231)
(-4.46086 1.29294 -7.9444)
(-2.77533 -3.11289 -2.00338)
(-2.25286 -2.39801 1.73776)
(8.59075 -1.36949 -2.01225)
(8.7725 -1.66079 -1.52191)
(8.53828 -0.132713 5.3029)
(7.43078 0.611764 1.68961)
(2.92502 1.05472 3.48408)
(-2.06491 1.74286 -0.308704)
(-3.87825 1.83534 -11.9912)
(-2.91358 -1.54694 -8.05438)
(-2.86538 -0.284446 -3.07059)
(-0.774555 -3.39036 0.911103)
(12.7587 -1.1123 -31.3353)
(9.75484 -1.39322 -3.31289)
(9.22827 -1.72414 4.96985)
(7.59722 0.915192 -0.136636)
(0.394742 0.238176 10.6346)
(2.32805 -3.9747 -11.2609)
(-7.78466 -0.280934 -11.9539)
(-4.54857 0.69484 -7.10925)
(-0.828132 -0.078024 2.12227)
(-1.36183 -0.926578 2.58449)
(8.0116 -4.38011 2.92123)
(7.17523 -1.53619 -0.45328)
(9.4602 -10.471 15.9536)
(7.42657 -6.21721 -1.8075)
(9.60816 -26.7116 21.2046)
(5.23506 -6.11204 -0.717023)
(11.5543 -35.9709 -5.43867)
(-1.23781 5.1864 -1.78813)
(-2.27489 7.54861 -0.419146)
(-1.79228 8.04326 -2.88659)
(6.28013 -1.87356 0.334767)
(7.19898 -4.28574 6.33745)
(5.55966 -3.25388 2.79938)
(7.62252 -8.96969 24.2572)
(6.45274 -8.09775 -2.91965)
(3.73783 -21.8685 10.8807)
(-0.713741 -0.138835 -2.12874)
(-4.21165 4.78207 -0.793126)
(-3.92751 5.53024 -4.04161)
(-1.74958 -1.74958 -2.22314)
(6.21211 -1.16248 -4.33221)
(4.06734 -1.12465 4.54464)
(6.14877 -2.75658 11.9424)
(3.66125 -3.09129 3.53857)
(8.99716 -5.0013 48.9612)
(7.41436 -9.57034 -6.22484)
(2.6396 -7.08777 -1.54394)
(4.38217 -0.170707 -6.74694)
(3.41489 -2.88991 -4.6388)
(3.03906 0.623443 -6.03292)
(5.60038 0.530934 -1.60369)
(4.69003 -1.19791 9.83342)
(2.59313 0.841468 1.23228)
(8.08619 -1.4188 29.636)
(2.66255 2.1709 -3.63212)
(19.8333 -2.38869 130.878)
(17.0275 -13.0613 -8.31401)
(7.87537 -2.50028 -8.42581)
(7.30465 1.27994 -6.71725)
(6.89065 -2.72414 -4.41486)
)
;

boundaryField
{
    inlet
    {
        type            fixedValue;
        value           nonuniform 0();
    }
    outlet
    {
        type            zeroGradient;
    }
    bottom
    {
        type            fixedValue;
        value           uniform (0 0 0);
    }
    top
    {
        type            symmetryPlane;
    }
    side1
    {
        type            symmetryPlane;
    }
    side2
    {
        type            symmetryPlane;
    }
    procBoundary26to18
    {
        type            processor;
        value           nonuniform List<vector> 
50
(
(0.32074 -1.22508 2.4878)
(0.509299 5.43467 -6.32549)
(0.674211 -0.311327 -0.0977201)
(2.02846 9.77852 -10.9931)
(2.62556 2.18883 -1.69753)
(0.34412 19.3363 -34.3428)
(9.83453 3.02239 -4.41045)
(-2.40302 23.7354 -40.2452)
(13.5609 6.85213 -5.61925)
(-11.2227 53.02 -119.473)
(13.5585 -7.53846 5.57038)
(9.96827 10.6549 3.24627)
(8.20349 11.9034 -1.58472)
(8.20797 8.01765 0.2527)
(6.66993 8.41798 -6.61268)
(5.88584 13.6741 -4.62934)
(5.73904 17.4057 -13.2061)
(-1.70155 10.5545 -0.0715746)
(-11.3317 5.99379 -1.10918)
(-1.60071 1.93014 -1.18115)
(7.56491 3.69984 -2.90793)
(7.36712 5.59871 1.51483)
(6.60914 4.30691 1.0774)
(7.17672 0.779378 2.90771)
(2.33437 3.94186 -5.97007)
(3.79878 -4.06447 -14.3679)
(0.192366 8.69209 -7.05544)
(0.218685 1.9566 -8.6463)
(-2.37051 4.0046 -5.29178)
(-2.92213 -3.55184 -1.24614)
(7.83614 -1.64482 -3.90623)
(8.32547 3.57969 -0.16307)
(9.93946 -1.26735 5.30264)
(7.04715 2.46983 -3.99834)
(8.36545 -17.7063 5.022)
(1.59078 2.90628 -1.90703)
(6.55136 -14.5795 -15.0995)
(-1.35828 7.84136 -2.07767)
(1.8609 -0.592698 -1.42743)
(3.24292 2.68447 -2.61698)
(6.89485 -0.464076 -1.28925)
(8.99854 -7.61653 10.5165)
(7.46931 -2.1676 -2.0269)
(11.9586 -24.3818 22.6177)
(8.15392 -3.62647 -0.788446)
(18.0736 -41.6755 18.4964)
(8.70778 -1.78392 4.77839)
(21.4481 -31.4259 -22.4837)
(3.32595 6.03779 -2.44489)
(4.8002 12.9871 0.0870654)
)
;
    }
    procBoundary26to25
    {
        type            processor;
        value           nonuniform List<vector> 
20
(
(0.74075 -5.72812 3.61341)
(-5.27739 6.3723 -21.0027)
(-8.48934 -10.1139 12.683)
(-21.719 17.9966 -27.4144)
(9.73657 -1.38473 -4.17013)
(9.26588 0.307343 2.61663)
(1.74829 3.4259 -8.4945)
(-3.75157 -3.18854 17.8389)
(10.3342 -0.252444 -8.24219)
(9.35669 -1.71952 -11.0235)
(8.02574 -0.314405 -6.23725)
(5.60265 -0.151167 -8.9799)
(11.3496 -5.45679 -8.48085)
(9.64435 -1.11983 -2.6596)
(9.5029 -2.36927 -6.3402)
(14.8736 0.439377 -2.98117)
(8.17707 -2.30937 -1.32415)
(8.15748 -0.257298 -3.99847)
(8.20723 -1.63598 -3.04785)
(9.43869 -0.0265507 1.07383)
)
;
    }
    procBoundary26to27
    {
        type            processor;
        value           nonuniform List<vector> 
20
(
(21.3433 -13.0614 26.5328)
(21.209 3.02999 25.5142)
(26.4942 -0.415533 12.8028)
(27.3508 0.688986 -3.14008)
(-3.53314 -7.06073 11.464)
(8.33373 -7.30959 15.544)
(11.03 9.2609 7.68259)
(14.8663 -3.62558 16.7002)
(-1.13521 -5.19603 3.29278)
(-0.89677 -3.82498 8.35363)
(5.15474 -5.62082 16.9138)
(1.44432 -1.63466 11.2144)
(0.998866 -0.304952 4.62236)
(-0.0276171 -3.47795 2.76302)
(0.368787 -3.22338 -1.1488)
(1.96376 2.78241 2.63407)
(0.719123 -0.188577 -1.52231)
(-0.0979889 1.53273 0.34062)
(2.64765 -2.984 -2.27639)
(4.85693 -0.046523 -3.90634)
)
;
    }
}


// ************************************************************************* //
