/*--------------------------------*- C++ -*----------------------------------*\
| =========                 |                                                 |
| \\      /  F ield         | OpenFOAM: The Open Source CFD Toolbox           |
|  \\    /   O peration     | Version:  2.4.0                                 |
|   \\  /    A nd           | Web:      www.OpenFOAM.org                      |
|    \\/     M anipulation  |                                                 |
\*---------------------------------------------------------------------------*/
FoamFile
{
    version     2.0;
    format      ascii;
    class       volVectorField;
    location    "0.01";
    object      A_Source;
}
// * * * * * * * * * * * * * * * * * * * * * * * * * * * * * * * * * * * * * //

dimensions      [1 -2 -2 0 0 0 0];

internalField   nonuniform List<vector> 
40
(
(-5.09021e-48 -6.41058e-48 9.92939e-48)
(-2.69071e-50 -3.387e-50 5.24872e-50)
(-1.44144e-52 -1.81352e-52 2.81178e-52)
(-7.76693e-55 -9.7668e-55 1.51508e-54)
(-4.18803e-57 -5.26374e-57 8.16952e-57)
(-4.4678e-50 -5.64033e-50 8.71526e-50)
(-2.37987e-52 -3.00339e-52 4.64238e-52)
(-1.27923e-54 -1.61379e-54 2.49537e-54)
(-6.91811e-57 -8.72405e-57 1.3495e-56)
(-3.75309e-59 -4.73098e-59 7.32109e-59)
(-3.27871e-52 -4.14641e-52 6.39572e-52)
(-1.7868e-54 -2.25902e-54 3.48549e-54)
(-9.80092e-57 -1.23874e-56 1.91185e-56)
(-5.39931e-59 -6.82209e-59 1.05323e-58)
(-2.98102e-61 -3.76538e-61 5.81503e-61)
(-2.10204e-54 -2.66186e-54 4.10042e-54)
(-1.17275e-56 -1.4847e-56 2.28766e-56)
(-6.57888e-59 -8.32669e-59 1.28333e-58)
(-3.7031e-61 -4.68568e-61 7.22358e-61)
(-2.08728e-63 -2.64042e-63 4.07162e-63)
(-2.16606e-50 -2.72701e-50 4.19643e-50)
(-1.15751e-52 -1.45657e-52 2.24214e-52)
(-6.25533e-55 -7.86734e-55 1.21151e-54)
(-3.40442e-57 -4.27933e-57 6.59256e-57)
(-1.85897e-59 -2.33538e-59 3.59932e-59)
(-1.98724e-52 -2.50793e-52 3.84927e-52)
(-1.07242e-54 -1.35297e-54 2.07691e-54)
(-5.78562e-57 -7.29657e-57 1.1203e-56)
(-3.12473e-59 -3.93925e-59 6.04974e-59)
(-1.69013e-61 -2.12982e-61 3.27182e-61)
(-1.49879e-54 -1.89485e-54 2.90266e-54)
(-8.2934e-57 -1.0482e-56 1.60587e-56)
(-4.5694e-59 -5.7736e-59 8.84637e-59)
(-2.51063e-61 -3.17133e-61 4.85988e-61)
(-1.37701e-63 -1.73885e-63 2.66518e-63)
(-9.83665e-57 -1.24529e-56 1.90472e-56)
(-5.57449e-59 -7.05537e-59 1.07922e-58)
(-3.14225e-61 -3.97599e-61 6.08236e-61)
(-1.76396e-63 -2.23142e-63 3.41394e-63)
(-9.87018e-66 -1.24826e-65 1.91002e-65)
)
;

boundaryField
{
    inlet
    {
        type            zeroGradient;
    }
    outlet
    {
        type            zeroGradient;
    }
    bottom
    {
        type            zeroGradient;
    }
    top
    {
        type            symmetryPlane;
    }
    side1
    {
        type            symmetryPlane;
    }
    side2
    {
        type            symmetryPlane;
    }
    procBoundary86to22
    {
        type            processor;
        value           nonuniform List<vector> 
20
(
(-5.28514e-45 -6.65746e-45 1.03096e-44)
(-2.72523e-47 -3.43122e-47 5.31606e-47)
(-1.42321e-49 -1.79093e-49 2.77623e-49)
(-7.49347e-52 -9.42413e-52 1.46174e-51)
(-3.96236e-54 -4.98025e-54 7.72931e-54)
(-4.70396e-47 -5.93914e-47 9.17594e-47)
(-2.45069e-49 -3.09321e-49 4.78052e-49)
(-1.27503e-51 -1.60876e-51 2.48719e-51)
(-6.63287e-54 -8.36571e-54 1.29386e-53)
(-3.45209e-56 -4.35213e-56 6.73393e-56)
(-3.4387e-49 -4.34908e-49 6.70781e-49)
(-1.83952e-51 -2.32587e-51 3.58831e-51)
(-9.7847e-54 -1.23682e-53 1.90868e-53)
(-5.1801e-56 -6.54589e-56 1.01047e-55)
(-2.7317e-58 -3.45088e-58 5.32868e-58)
(-2.19045e-51 -2.774e-51 4.27286e-51)
(-1.20086e-53 -1.5204e-53 2.3425e-53)
(-6.54013e-56 -8.27829e-56 1.27577e-55)
(-3.54018e-58 -4.47991e-58 6.90577e-58)
(-1.90557e-60 -2.41078e-60 3.71716e-60)
)
;
    }
    procBoundary86to70
    {
        type            processor;
        value           nonuniform List<vector> 10((-2.78942e-45 -3.49808e-45 5.44127e-45) (-1.43385e-47 -1.79719e-47 2.79699e-47) (-7.43631e-50 -9.3158e-50 1.45059e-49) (-3.87962e-52 -4.85762e-52 7.56791e-52) (-2.03073e-54 -2.54131e-54 3.96131e-54) (-1.2047e-47 -1.50994e-47 2.33398e-47) (-6.28699e-50 -7.87589e-50 1.21783e-49) (-3.2713e-52 -4.09592e-52 6.33567e-52) (-1.6988e-54 -2.12592e-54 3.28966e-54) (-8.80972e-57 -1.1019e-56 1.70577e-56));
    }
    procBoundary86to85
    {
        type            processor;
        value           nonuniform List<vector> 8((-4.24145e-45 -5.34031e-45 8.27372e-45) (-3.35285e-47 -4.23269e-47 6.54035e-47) (-2.38565e-49 -3.01721e-49 4.65365e-49) (-1.507e-51 -1.90851e-51 2.93968e-51) (-1.66932e-47 -2.1007e-47 3.23458e-47) (-1.31951e-49 -1.66522e-49 2.55638e-49) (-9.62399e-52 -1.21686e-51 1.86416e-51) (-6.23986e-54 -7.90044e-54 1.20843e-53));
    }
    procBoundary86to87
    {
        type            processor;
        value           nonuniform List<vector> 8((-3.27458e-60 -4.11657e-60 6.38767e-60) (-3.16062e-62 -3.98414e-62 6.16537e-62) (-2.55317e-64 -3.22475e-64 4.98042e-64) (-1.8003e-66 -2.27725e-66 3.51181e-66) (-1.53971e-62 -1.93487e-62 2.98085e-62) (-1.53227e-64 -1.93083e-64 2.96598e-64) (-1.26465e-66 -1.5968e-66 2.44755e-66) (-9.10257e-69 -1.1511e-68 1.76139e-68));
    }
    procBoundary86to102
    {
        type            processor;
        value           nonuniform List<vector> 10((-1.4958e-57 -1.89659e-57 2.91782e-57) (-8.70315e-60 -1.10322e-59 1.69771e-59) (-5.11333e-62 -6.47996e-62 9.97448e-62) (-3.00659e-64 -3.80915e-64 5.86491e-64) (-1.7601e-66 -2.22935e-66 3.43339e-66) (-6.79382e-60 -8.61245e-60 1.31549e-59) (-3.98991e-62 -5.05664e-62 7.72458e-62) (-2.37442e-64 -3.00838e-64 4.59627e-64) (-1.42106e-66 -1.79997e-66 2.7504e-66) (-8.50463e-69 -1.07693e-68 1.64577e-68));
    }
}


// ************************************************************************* //
