/*--------------------------------*- C++ -*----------------------------------*\
| =========                 |                                                 |
| \\      /  F ield         | OpenFOAM: The Open Source CFD Toolbox           |
|  \\    /   O peration     | Version:  2.4.0                                 |
|   \\  /    A nd           | Web:      www.OpenFOAM.org                      |
|    \\/     M anipulation  |                                                 |
\*---------------------------------------------------------------------------*/
FoamFile
{
    version     2.0;
    format      ascii;
    class       volVectorField;
    location    "0.01";
    object      Ur;
}
// * * * * * * * * * * * * * * * * * * * * * * * * * * * * * * * * * * * * * //

dimensions      [0 1 -1 0 0 0 0];

internalField   nonuniform List<vector> 
40
(
(2.72908e+10 -1.67474e+10 -1.88036e+10)
(1.59374e+10 -2.29894e+10 -1.71225e+10)
(5.38599e+09 -2.65465e+10 -2.7486e+10)
(4.67989e+09 -2.10624e+10 -2.95402e+10)
(3.49894e+09 -1.56609e+10 -1.66608e+10)
(4.18148e+10 -1.40936e+08 -1.75484e+10)
(3.19262e+10 -2.98084e+09 -7.35791e+09)
(2.85378e+10 -1.42679e+10 7.60395e+09)
(3.29948e+10 -1.70837e+10 -5.00845e+10)
(1.59577e+10 -1.73233e+10 -4.09432e+10)
(4.50016e+10 9.46425e+09 -1.79487e+10)
(4.20221e+10 3.70911e+09 -2.0718e+10)
(3.65534e+10 -2.35803e+10 -2.40141e+10)
(2.91474e+10 -2.48949e+10 -1.8049e+10)
(3.26251e+10 -1.50693e+10 -2.23856e+10)
(2.34167e+10 -5.75908e+09 -1.51191e+10)
(2.06602e+10 -1.31587e+10 -1.44908e+10)
(3.44713e+10 -2.27719e+10 -3.23534e+10)
(1.23016e+10 -1.00869e+10 -1.98328e+10)
(7.31047e+09 -7.38848e+09 -1.28556e+10)
(2.76248e+10 4.68616e+09 3.10252e+09)
(4.29117e+10 3.19473e+09 1.46459e+10)
(6.82988e+10 -1.70645e+10 -1.98772e+10)
(1.56905e+10 -7.53024e+09 -1.23521e+10)
(1.78285e+10 -6.89206e+09 -5.55489e+09)
(3.24394e+10 -1.60977e+10 1.34455e+10)
(3.00468e+10 -2.51438e+10 2.3214e+10)
(3.35755e+10 -3.06733e+10 1.15631e+10)
(3.64676e+10 -2.08383e+09 -1.68415e+10)
(4.15349e+10 7.1348e+09 -1.92552e+10)
(2.69592e+10 -1.05992e+10 -1.22024e+09)
(2.63364e+10 -1.36141e+10 7.81213e+09)
(3.46676e+10 -3.85665e+10 -1.06996e+10)
(2.38261e+10 -1.89665e+10 -9.52877e+09)
(2.0728e+10 -1.41227e+10 -4.92787e+09)
(2.83813e+10 -6.89388e+09 -3.12488e+09)
(4.42424e+10 -3.5275e+10 -4.38733e+09)
(1.72311e+10 -2.6962e+10 -1.22593e+10)
(1.17825e+10 -9.96467e+09 -5.48084e+09)
(6.97841e+09 -1.09458e+10 -1.53694e+09)
)
;

boundaryField
{
    inlet
    {
        type            calculated;
        value           nonuniform 0();
    }
    outlet
    {
        type            calculated;
        value           nonuniform 0();
    }
    bottom
    {
        type            calculated;
        value           nonuniform 0();
    }
    top
    {
        type            symmetryPlane;
    }
    side1
    {
        type            symmetryPlane;
    }
    side2
    {
        type            symmetryPlane;
    }
    procBoundary86to22
    {
        type            processor;
        value           nonuniform List<vector> 
20
(
(-1.01105e+10 -2.14264e+10 -2.39985e+10)
(-1.07192e+10 -1.9736e+10 -1.74244e+10)
(-1.57304e+10 -2.74759e+10 -2.17152e+10)
(-1.51075e+10 -2.82196e+10 -2.39438e+10)
(-1.28358e+10 -2.76849e+10 -2.13975e+10)
(-1.24511e+09 -2.02925e+10 -3.58148e+10)
(-5.30423e+09 -1.52293e+10 -2.26946e+10)
(-6.81815e+09 -1.8951e+10 -3.19621e+10)
(-7.1146e+09 -2.08799e+10 -3.7885e+10)
(-3.2256e+09 -2.23914e+10 -3.23246e+10)
(5.12686e+09 -7.5351e+09 -4.90415e+10)
(-6.80646e+09 -9.96897e+09 -3.59608e+10)
(-4.00413e+09 -1.52739e+10 -2.86766e+10)
(-1.7916e+09 -1.71671e+10 -2.26226e+10)
(-2.15651e+09 -1.1478e+10 -2.22518e+10)
(2.62592e+09 -1.31226e+10 -3.14322e+10)
(-1.70492e+09 -8.88998e+09 -3.2459e+10)
(-4.93502e+09 -1.28763e+10 -3.02683e+10)
(-8.36156e+08 -2.22923e+10 -4.34289e+10)
(-1.75358e+09 -9.64082e+09 -2.31836e+10)
)
;
    }
    procBoundary86to70
    {
        type            processor;
        value           nonuniform List<vector> 10((1.52884e+09 -2.25445e+10 -1.89936e+10) (8.858e+09 -3.00798e+10 -1.68272e+10) (-3.98505e+09 -3.21102e+10 -5.21441e+10) (-3.36065e+09 -1.61072e+10 -2.23126e+10) (-2.79164e+09 -1.11868e+10 -1.34821e+10) (1.96238e+10 2.49275e+09 -9.46787e+09) (1.43001e+10 -1.89012e+09 -1.37863e+10) (9.62868e+09 -1.01637e+10 -1.58192e+10) (6.75044e+09 -1.30901e+10 -7.36912e+09) (6.24748e+09 -1.07452e+10 -3.98221e+09));
    }
    procBoundary86to85
    {
        type            processor;
        value           nonuniform List<vector> 8((3.54946e+10 -2.43057e+10 -3.46137e+10) (9.71098e+10 -2.18653e+10 -2.96143e+10) (4.4436e+10 -8.98462e+09 -1.99398e+10) (1.85377e+10 -6.4807e+09 -1.76068e+10) (2.89747e+10 -4.52818e+09 -6.25847e+09) (2.63357e+10 -1.32223e+10 -2.98116e+08) (3.41606e+10 -1.62028e+10 -9.32169e+09) (3.68493e+10 -8.01254e+09 -5.82996e+09));
    }
    procBoundary86to87
    {
        type            processor;
        value           nonuniform List<vector> 8((2.60849e+09 -1.02657e+10 -1.19386e+10) (1.23733e+10 -8.58092e+09 -1.7415e+10) (9.47725e+09 -3.88197e+09 -1.62219e+10) (3.13279e+09 -1.72229e+09 -6.1434e+09) (1.2273e+10 -8.7505e+09 -3.39684e+09) (2.54891e+10 -2.78436e+09 -7.76623e+09) (2.42936e+10 -4.12621e+09 -8.85099e+09) (4.75081e+09 -1.26496e+10 -1.18733e+09));
    }
    procBoundary86to102
    {
        type            processor;
        value           nonuniform List<vector> 10((1.34952e+10 -1.54417e+10 -1.58514e+10) (1.04757e+10 -1.66317e+10 -1.44563e+10) (7.53979e+09 -1.89249e+10 -1.51338e+10) (5.31098e+09 -9.83125e+09 -1.68205e+10) (3.84556e+09 -8.33997e+09 -1.36113e+10) (3.44764e+10 -4.35668e+09 -3.54764e+09) (3.48761e+10 -3.2102e+10 -6.28426e+09) (1.25461e+10 -1.54662e+10 -7.25439e+09) (1.04118e+10 -6.89552e+09 -3.52311e+09) (9.39444e+09 -9.2619e+09 -2.38141e+09));
    }
}


// ************************************************************************* //
