/*--------------------------------*- C++ -*----------------------------------*\
| =========                 |                                                 |
| \\      /  F ield         | OpenFOAM: The Open Source CFD Toolbox           |
|  \\    /   O peration     | Version:  2.4.0                                 |
|   \\  /    A nd           | Web:      www.OpenFOAM.org                      |
|    \\/     M anipulation  |                                                 |
\*---------------------------------------------------------------------------*/
FoamFile
{
    version     2.0;
    format      ascii;
    class       volVectorField;
    location    "0.12";
    object      U;
}
// * * * * * * * * * * * * * * * * * * * * * * * * * * * * * * * * * * * * * //

dimensions      [0 1 -1 0 0 0 0];

internalField   nonuniform List<vector> 
200
(
(4.02951e+09 3.35595e+10 6.65138e+08)
(-6.74945e+08 4.26011e+10 -1.66731e+09)
(1.80341e+09 3.96674e+10 4.54908e+08)
(6.02532e+09 2.8711e+10 -2.52498e+09)
(7.37255e+09 3.07201e+10 -2.98006e+09)
(9.8014e+09 3.37537e+10 -2.5813e+09)
(1.30704e+10 3.90434e+10 -2.99579e+09)
(2.14856e+10 3.63622e+10 -3.10073e+09)
(2.41507e+10 3.58292e+10 -3.27786e+09)
(2.70754e+10 3.87812e+10 -4.43462e+09)
(6.38818e+09 3.1455e+10 -1.8207e+09)
(1.16533e+10 3.94071e+10 1.93139e+09)
(1.70352e+10 3.19568e+10 -7.59873e+08)
(1.8795e+10 2.74008e+10 -2.25537e+09)
(2.04683e+10 2.91257e+10 -2.4826e+09)
(2.19297e+10 3.19195e+10 -2.37516e+09)
(2.46214e+10 3.4871e+10 -2.85026e+09)
(2.74811e+10 3.44832e+10 -1.78366e+09)
(3.17556e+10 3.45663e+10 -2.57095e+09)
(3.64209e+10 2.95479e+10 2.21856e+07)
(1.37472e+10 2.85704e+10 1.17684e+09)
(1.99535e+10 2.81225e+10 3.26228e+08)
(2.36075e+10 2.58266e+10 -9.34468e+08)
(2.64548e+10 2.67051e+10 -1.65468e+09)
(2.80731e+10 2.74791e+10 -1.44072e+09)
(3.00678e+10 3.27968e+10 -2.62576e+09)
(3.2367e+10 3.15006e+10 -5.29455e+08)
(3.55235e+10 3.54869e+10 -8.95137e+08)
(3.95471e+10 1.33251e+10 3.85523e+09)
(5.37417e+10 2.60747e+10 6.06848e+09)
(2.05617e+10 1.81551e+10 -3.6288e+08)
(2.32454e+10 1.91817e+10 -6.33872e+08)
(2.76924e+10 2.19473e+10 -1.19855e+09)
(3.1182e+10 2.15044e+10 -3.0675e+08)
(3.45199e+10 2.71273e+10 -2.05837e+09)
(3.88196e+10 2.68354e+10 6.19387e+08)
(4.286e+10 3.3125e+10 2.98753e+08)
(4.53625e+10 1.00972e+10 5.6932e+09)
(5.96315e+10 2.21148e+10 8.87628e+09)
(5.33663e+10 -2.85586e+10 2.69036e+09)
(-1.80387e+09 3.01225e+10 3.21562e+09)
(-2.80974e+08 2.93715e+10 2.76519e+09)
(-4.17794e+09 3.57772e+10 1.38316e+09)
(-2.05043e+09 5.01292e+10 2.68934e+09)
(-8.24219e+09 5.47451e+10 -1.06215e+09)
(1.02019e+09 5.36761e+10 -2.28784e+09)
(8.87875e+09 4.62169e+10 -3.45725e+09)
(1.43694e+10 4.19606e+10 -3.52345e+09)
(2.09768e+10 4.67277e+10 -7.67335e+09)
(2.83545e+10 4.45927e+10 -1.0068e+10)
(7.62382e+09 2.65435e+10 2.4126e+09)
(7.72116e+09 2.7437e+10 1.38623e+09)
(8.29986e+09 3.43169e+10 1.83082e+09)
(1.08156e+10 3.94464e+10 -6.2165e+08)
(1.51122e+10 4.11569e+10 -2.05293e+09)
(2.02132e+10 3.71553e+10 -4.1473e+09)
(2.22184e+10 3.53247e+10 -4.97589e+09)
(2.57895e+10 3.61036e+10 -7.2023e+09)
(2.83698e+10 3.75464e+10 -6.6814e+09)
(3.30022e+10 4.1898e+10 -8.85583e+09)
(1.52058e+10 2.33941e+10 1.10073e+09)
(1.71635e+10 2.48732e+10 1.03787e+09)
(1.91592e+10 2.7463e+10 -1.71175e+09)
(2.1153e+10 3.00553e+10 -3.81239e+09)
(2.48995e+10 3.10861e+10 -5.47129e+09)
(2.7194e+10 3.00181e+10 -5.45168e+09)
(3.03868e+10 3.29227e+10 -7.3271e+09)
(3.32518e+10 3.08331e+10 -6.23609e+09)
(4.00613e+10 3.47005e+10 -7.6224e+09)
(4.50701e+10 3.43278e+10 -5.19217e+09)
(1.99941e+10 1.89872e+10 -1.32398e+09)
(2.28823e+10 2.06373e+10 -2.84118e+09)
(2.48349e+10 2.24646e+10 -3.65922e+09)
(2.83605e+10 2.56365e+10 -5.10914e+09)
(3.11366e+10 2.52628e+10 -4.11854e+09)
(3.38543e+10 2.96778e+10 -5.25506e+09)
(3.63852e+10 2.77739e+10 -3.1406e+09)
(4.18156e+10 3.06e+10 -4.57016e+09)
(4.80569e+10 2.02233e+10 -6.36377e+08)
(6.06219e+10 3.51342e+10 -4.16968e+09)
(-1.97504e+09 3.02915e+10 6.02824e+09)
(-6.38766e+09 3.13448e+10 2.71547e+09)
(-8.12093e+09 4.21096e+10 6.70084e+09)
(-1.28098e+10 5.54441e+10 4.81086e+09)
(-1.14433e+10 7.35835e+10 4.22232e+09)
(-1.56802e+10 7.76766e+10 3.44069e+09)
(-8.45153e+08 7.6478e+10 -1.04202e+09)
(-2.1906e+10 9.49895e+10 5.23612e+09)
(6.05729e+09 7.51322e+10 -8.80934e+09)
(6.41505e+09 5.91771e+10 -9.53128e+09)
(9.33453e+09 3.22346e+10 3.15826e+09)
(8.02141e+09 4.11633e+10 5.55891e+09)
(6.46315e+09 4.61171e+10 5.73791e+09)
(9.08978e+09 5.62004e+10 7.26969e+09)
(5.46389e+09 6.78093e+10 9.51986e+09)
(1.79196e+10 6.98753e+10 4.53684e+09)
(1.61523e+10 6.5413e+10 2.05583e+09)
(2.32612e+10 7.95888e+10 -5.99306e+09)
(3.45077e+10 6.03536e+10 -6.73925e+09)
(2.94292e+10 5.8237e+10 -1.17477e+10)
(1.87623e+10 2.82164e+10 2.53893e+09)
(1.71321e+10 3.80524e+10 5.49936e+09)
(2.31877e+10 4.30637e+10 3.56269e+09)
(2.18082e+10 4.81744e+10 2.94142e+09)
(2.99086e+10 5.17292e+10 -1.12121e+09)
(3.66191e+10 4.80943e+10 -4.82331e+09)
(3.87869e+10 6.31574e+10 -6.99385e+09)
(4.96863e+10 6.94793e+10 -6.14431e+09)
(2.75889e+10 5.55983e+10 -1.07154e+10)
(4.12672e+10 6.45242e+10 -1.35929e+10)
(1.81946e+10 2.31441e+10 -1.47189e+09)
(2.00145e+10 3.03818e+10 -1.95534e+09)
(2.3532e+10 3.32077e+10 -3.41362e+09)
(2.65879e+10 3.70846e+10 -3.78509e+09)
(3.27306e+10 3.87517e+10 -5.48606e+09)
(3.44158e+10 4.05358e+10 -8.7605e+09)
(4.84321e+10 5.70508e+10 -6.52175e+09)
(3.31381e+10 6.85363e+10 -1.64532e+10)
(6.05556e+10 5.04903e+10 -1.28448e+10)
(6.92622e+10 1.4919e+10 -2.00701e+10)
(-4.08979e+09 3.58682e+10 1.77922e+09)
(-1.28321e+09 4.01732e+10 2.29427e+09)
(-3.92297e+09 2.82484e+10 7.94491e+08)
(-5.27847e+09 2.39553e+10 2.09764e+09)
(-4.90888e+09 2.67012e+10 1.89247e+08)
(-1.87955e+09 2.76314e+10 -4.92333e+09)
(7.84014e+08 3.00624e+10 -9.89775e+08)
(-6.8308e+09 2.89395e+10 -1.05427e+10)
(-4.85435e+09 4.24274e+10 -1.1353e+10)
(-1.05139e+10 3.03078e+10 -1.85422e+10)
(8.45396e+09 3.32987e+10 4.04935e+09)
(8.6326e+09 4.26443e+10 5.56152e+08)
(3.85918e+09 3.62412e+10 2.86071e+09)
(6.49115e+09 3.26003e+10 3.47051e+09)
(6.72174e+09 3.06566e+10 1.93493e+09)
(9.94132e+09 2.6865e+10 -1.14398e+09)
(8.25648e+09 2.68526e+10 -6.73758e+09)
(1.86168e+10 4.50196e+10 -8.46053e+09)
(1.33699e+10 2.96852e+10 -1.66026e+10)
(1.46348e+10 4.64299e+10 -8.11635e+09)
(2.46805e+10 3.03168e+10 1.24073e+09)
(1.99322e+10 4.39179e+10 1.07985e+10)
(2.49805e+10 4.08453e+10 4.13349e+09)
(2.41155e+10 3.60742e+10 2.65711e+09)
(2.55543e+10 3.68222e+10 -1.67039e+09)
(1.74564e+10 2.58471e+10 -1.1964e+10)
(3.04087e+10 3.81062e+10 -8.05757e+09)
(3.50914e+10 2.16648e+10 -1.24686e+10)
(3.98328e+10 4.04036e+10 -2.55952e+09)
(4.16747e+10 4.40887e+10 -6.66303e+09)
(1.67861e+10 2.98945e+10 3.85137e+09)
(1.92236e+10 4.01682e+10 3.86832e+09)
(2.76506e+10 3.73365e+10 4.00079e+08)
(3.42001e+10 3.85926e+10 -5.51473e+08)
(2.15014e+10 4.27732e+10 -1.86744e+10)
(3.76938e+10 2.9963e+10 -5.93768e+09)
(3.86379e+10 -8.49228e+09 -2.50703e+10)
(4.29303e+10 2.41548e+10 4.11584e+09)
(4.56561e+10 7.41341e+09 -1.28017e+10)
(5.33061e+10 4.84182e+10 3.61387e+09)
(6.38043e+08 2.69485e+10 2.04532e+09)
(-6.30541e+08 2.56594e+10 7.02248e+08)
(-1.48888e+09 2.95519e+10 -6.52662e+08)
(-3.40845e+09 4.18639e+10 -2.49079e+09)
(3.7917e+08 3.76424e+10 -1.08997e+10)
(5.468e+09 4.73635e+09 -1.38094e+09)
(-5.66167e+09 3.7082e+09 -5.39714e+09)
(-1.70354e+09 1.86365e+10 -6.62916e+09)
(-1.1295e+10 4.35272e+09 -1.17047e+10)
(-1.25573e+10 2.21589e+10 -4.22375e+09)
(1.02988e+10 3.02913e+10 1.04944e+09)
(1.28662e+10 2.35473e+10 7.75859e+08)
(1.42214e+10 3.02885e+10 7.35975e+07)
(1.21615e+10 3.87814e+10 -3.91963e+09)
(2.08535e+10 2.06831e+10 -8.90683e+09)
(-1.85904e+06 5.92864e+09 -1.31006e+10)
(1.26867e+10 1.6442e+10 -8.0845e+09)
(5.95605e+09 4.57365e+09 -1.33454e+10)
(4.26732e+09 2.38968e+10 -3.38977e+09)
(-8.64815e+09 1.65097e+10 -7.1951e+09)
(2.022e+10 2.84181e+10 1.35696e+09)
(1.96141e+10 2.4748e+10 2.07436e+08)
(1.92757e+10 2.79277e+10 1.91651e+09)
(2.93176e+10 4.019e+10 -8.83372e+09)
(-2.79909e+09 3.02339e+10 -3.07655e+10)
(2.30614e+10 2.12196e+10 -7.54316e+09)
(2.04271e+10 -2.56694e+10 -2.33526e+10)
(1.9274e+10 2.43879e+10 2.39693e+08)
(7.15495e+09 3.03985e+10 -3.70838e+08)
(1.0105e+10 2.68457e+10 -2.45449e+09)
(2.90601e+10 3.26525e+10 -6.31541e+08)
(2.89178e+10 2.81606e+10 2.71317e+09)
(3.08475e+10 3.94974e+10 -2.78074e+09)
(1.0212e+10 3.923e+10 -2.44312e+10)
(2.60563e+10 2.67848e+10 -5.7366e+09)
(2.62175e+10 -4.96984e+10 -3.40836e+10)
(2.71988e+10 -2.09362e+09 2.27879e+09)
(1.80685e+10 1.06288e+10 -3.09481e+09)
(2.70841e+10 3.55278e+10 -1.98696e+09)
(2.02112e+10 3.34834e+10 1.40482e+09)
)
;

boundaryField
{
    inlet
    {
        type            calculated;
        value           nonuniform 0();
    }
    outlet
    {
        type            calculated;
        value           nonuniform 0();
    }
    bottom
    {
        type            calculated;
        value           uniform (0 0 0);
    }
    top
    {
        type            symmetryPlane;
    }
    side1
    {
        type            symmetryPlane;
    }
    side2
    {
        type            symmetryPlane;
    }
    procBoundary19to11
    {
        type            processor;
        value           nonuniform List<vector> 
50
(
(-1.67179e+10 4.34497e+10 4.196e+09)
(-1.23549e+10 4.27657e+10 -9.60265e+08)
(-1.26641e+10 4.09168e+10 -3.40117e+09)
(-6.55618e+09 3.22908e+10 -1.55727e+09)
(-7.17701e+09 3.05196e+10 -4.31207e+09)
(-9.21433e+08 3.05144e+10 -4.90664e+09)
(-8.96587e+09 5.6463e+10 -1.2335e+10)
(9.46111e+09 4.87383e+10 -9.63969e+09)
(1.22781e+10 3.31226e+10 -6.15162e+09)
(1.20365e+10 3.44149e+10 -8.3469e+09)
(-2.39675e+10 3.57268e+10 6.49007e+09)
(-2.23465e+10 3.30792e+10 5.63692e+08)
(-2.35511e+10 4.05094e+10 -2.65503e+09)
(-2.47531e+10 4.98327e+10 -4.93453e+09)
(-2.41721e+10 4.35968e+10 -4.55579e+09)
(-4.66234e+10 7.07733e+10 -9.0667e+09)
(-3.27046e+10 7.43217e+10 -1.50789e+10)
(-2.88553e+10 7.05002e+10 -9.72326e+09)
(-1.27529e+10 6.83355e+10 -1.38905e+10)
(-6.6556e+09 4.68312e+10 -9.41097e+09)
(-1.4604e+10 2.11103e+10 9.18518e+08)
(-1.50743e+10 2.72745e+10 3.74039e+09)
(-1.94179e+10 2.99885e+10 -8.41613e+08)
(-2.59477e+10 5.06346e+10 -2.62405e+09)
(-3.17434e+10 7.20971e+10 -5.5353e+09)
(-3.29347e+10 6.66393e+10 -8.86551e+09)
(-4.64704e+10 6.9627e+10 -8.64104e+09)
(-3.48895e+10 6.3663e+10 -1.24869e+10)
(-7.36783e+10 1.03156e+11 -1.10017e+10)
(-3.79316e+10 7.95177e+10 -2.50202e+10)
(-1.37368e+10 3.62048e+10 -3.94207e+08)
(-1.60853e+10 4.38099e+10 -2.60049e+09)
(-1.03536e+10 2.31628e+10 -2.60199e+07)
(-1.14835e+10 2.2142e+10 9.92874e+06)
(-1.22146e+10 2.24634e+10 2.68829e+08)
(-1.77343e+10 2.83646e+10 -6.79528e+09)
(-9.52353e+09 1.15448e+10 -3.35225e+10)
(-1.29129e+10 1.62348e+10 -6.45352e+08)
(-2.24434e+10 3.21267e+10 -1.86236e+10)
(-2.50174e+10 4.04969e+10 -1.85369e+10)
(-5.14151e+09 2.01328e+10 1.28034e+08)
(-7.97081e+09 2.21404e+10 1.16161e+08)
(-1.03155e+10 2.50163e+10 -1.99061e+09)
(-1.13157e+10 3.73239e+10 -2.39254e+09)
(-2.41213e+10 5.42171e+10 -8.11e+09)
(-3.75075e+09 1.04309e+09 -1.86073e+10)
(-6.39361e+09 2.58078e+09 4.19053e+09)
(-1.49282e+10 8.81434e+09 -3.61957e+09)
(-1.39833e+10 1.4042e+10 -6.07179e+09)
(-2.30789e+10 -1.18794e+09 -1.52408e+10)
)
;
    }
    procBoundary19to18
    {
        type            processor;
        value           nonuniform List<vector> 
20
(
(3.30332e+08 2.66706e+10 5.02953e+08)
(1.05388e+10 2.04119e+10 6.00889e+08)
(1.09313e+10 1.99912e+10 2.2951e+08)
(1.75341e+10 1.62865e+10 -2.27156e+07)
(-2.76135e+09 2.95067e+10 5.64801e+09)
(7.12039e+09 2.38456e+10 1.05357e+09)
(1.33009e+10 2.09226e+10 1.7191e+09)
(1.7666e+10 1.70612e+10 -1.03217e+09)
(-2.61598e+09 2.5923e+10 5.82896e+09)
(8.92404e+09 2.93282e+10 5.08672e+09)
(1.47865e+10 2.46302e+10 2.20563e+09)
(1.7365e+10 2.09348e+10 -1.81536e+08)
(-5.27272e+09 3.04835e+10 3.69337e+09)
(9.50965e+09 3.74791e+10 4.04276e+09)
(1.74309e+10 3.2713e+10 6.94876e+09)
(2.02341e+10 2.95071e+10 -1.60189e+08)
(3.041e+09 2.49894e+10 1.88953e+09)
(1.15703e+10 2.94118e+10 2.74873e+09)
(1.76145e+10 3.30393e+10 -8.30708e+08)
(3.05236e+10 3.06905e+10 -5.76113e+08)
)
;
    }
    procBoundary19to20
    {
        type            processor;
        value           nonuniform List<vector> 
20
(
(2.98559e+10 2.93136e+10 -2.66305e+09)
(4.84165e+10 3.13634e+10 4.49572e+08)
(5.56887e+10 -4.88111e+09 1.65474e+09)
(6.83588e+10 2.47263e+10 3.29405e+09)
(2.25522e+10 5.54707e+10 -1.64672e+10)
(3.78881e+10 4.45867e+10 -7.23885e+09)
(5.48713e+10 4.34955e+10 -9.43887e+09)
(6.90798e+10 2.57761e+10 -6.36471e+09)
(6.67884e+09 6.19891e+10 -2.07485e+10)
(4.62716e+10 5.36012e+10 -1.17592e+10)
(4.0353e+10 4.61654e+10 -1.704e+10)
(6.91163e+10 4.7404e+10 -9.68935e+09)
(-9.25682e+09 4.68455e+10 -1.28288e+10)
(5.06552e+09 4.1835e+10 -1.51607e+10)
(3.28463e+10 6.8182e+10 -3.21849e+09)
(5.42104e+10 5.26169e+10 6.23297e+08)
(-2.22004e+10 8.1152e+09 -1.02583e+10)
(-7.51045e+09 1.82639e+10 -6.51206e+09)
(-3.46459e+09 2.62242e+10 -3.30842e+09)
(2.69863e+10 4.53584e+10 -5.96356e+09)
)
;
    }
    procBoundary19to27
    {
        type            processor;
        value           nonuniform List<vector> 
50
(
(2.21703e+10 1.25532e+10 -1.05382e+08)
(2.52002e+10 1.59314e+10 -1.00583e+09)
(2.80402e+10 1.39323e+10 8.74091e+08)
(3.08218e+10 1.88469e+10 -1.31724e+09)
(3.60482e+10 1.61148e+10 2.02694e+09)
(4.18066e+10 2.1115e+10 1.79768e+09)
(4.73337e+10 6.74299e+09 6.20848e+09)
(6.27764e+10 1.66633e+10 8.66071e+09)
(5.38542e+10 -2.7141e+10 3.285e+09)
(6.81242e+10 1.8461e+10 4.0997e+09)
(2.39388e+10 1.49433e+10 -2.53655e+09)
(2.60234e+10 1.56065e+10 -2.22343e+09)
(2.97274e+10 1.94041e+10 -3.63106e+09)
(3.29332e+10 1.92246e+10 -1.63618e+09)
(3.64761e+10 2.5148e+10 -2.85001e+09)
(3.94652e+10 2.89686e+10 8.65848e+06)
(4.28404e+10 2.93836e+10 -5.37663e+09)
(4.61541e+10 1.66331e+10 6.3054e+08)
(6.38126e+10 2.37098e+10 3.94293e+09)
(6.21772e+10 -1.97081e+09 1.49999e+09)
(2.50555e+10 1.8898e+10 -3.24632e+09)
(2.80385e+10 2.25067e+10 -4.27219e+09)
(3.11959e+10 2.51161e+10 -3.58818e+09)
(3.52639e+10 2.84868e+10 -4.50427e+09)
(3.83316e+10 3.00181e+10 -3.64022e+09)
(5.51396e+10 2.58218e+10 -5.51873e+09)
(2.89154e+10 6.62415e+10 3.05072e+09)
(5.12403e+10 3.56492e+10 -6.87628e+09)
(5.95489e+10 1.66972e+10 -1.23596e+10)
(5.40945e+10 4.44439e+10 -6.5733e+09)
(2.74063e+10 2.69626e+10 6.58448e+08)
(2.62823e+10 2.75124e+10 -1.7998e+09)
(2.67944e+10 2.84981e+10 -1.57912e+09)
(3.15877e+10 3.55508e+10 -2.24568e+09)
(3.62307e+10 4.79725e+10 -5.83585e+09)
(3.79728e+10 1.39628e+10 -1.20647e+10)
(4.23797e+10 1.05373e+10 3.91036e+09)
(4.60356e+10 -5.53907e+09 -1.01004e+10)
(4.73674e+10 1.92e+10 3.28842e+09)
(5.2824e+10 6.45417e+09 -9.68149e+09)
(4.84026e+10 2.77862e+10 1.89113e+09)
(5.15304e+10 3.17424e+10 5.48985e+08)
(5.50874e+10 3.84041e+10 1.72791e+09)
(5.91253e+10 4.01358e+10 -6.08676e+09)
(5.16203e+10 1.59805e+10 -1.75037e+10)
(5.40138e+10 4.96376e+08 -1.38709e+09)
(3.54999e+10 7.15836e+08 -4.04151e+09)
(3.31957e+10 2.09571e+10 -1.90422e+09)
(3.14809e+10 3.20727e+10 1.05542e+09)
(4.12548e+10 4.55322e+10 -3.07566e+09)
)
;
    }
}


// ************************************************************************* //
