/*--------------------------------*- C++ -*----------------------------------*\
| =========                 |                                                 |
| \\      /  F ield         | OpenFOAM: The Open Source CFD Toolbox           |
|  \\    /   O peration     | Version:  2.4.0                                 |
|   \\  /    A nd           | Web:      www.OpenFOAM.org                      |
|    \\/     M anipulation  |                                                 |
\*---------------------------------------------------------------------------*/
FoamFile
{
    version     2.0;
    format      ascii;
    class       surfaceScalarField;
    location    "0.01";
    object      phib;
}
// * * * * * * * * * * * * * * * * * * * * * * * * * * * * * * * * * * * * * //

dimensions      [0 3 -1 0 0 0 0];

internalField   nonuniform List<scalar> 
101
(
7043.54
136.612
-169.936
7541.34
-55.1447
-442.56
8351.78
-65.5046
-744.843
8760.72
102.267
-511.114
-119.175
-137.307
8543.98
1487.4
278.903
6854.22
1640.08
-5.37625
5754.08
1165.33
-130.578
5166.72
699.987
-10.2848
342.339
76.7498
6641.02
895.014
71.9152
7059.25
1043.87
178.049
7058.1
888.282
278.274
6388.61
1219.84
149.677
1034.06
79.9652
11973.1
393.94
9568.15
960.976
7764.1
717.866
6690.74
281.775
223.201
9461.39
1401.95
392.624
7217.13
1620.11
181.698
5292.27
763.836
416.301
3843.63
489.222
448.356
285.179
366.419
5883.81
1020.18
192.977
4700.32
2343.51
454.838
3076.48
1872.16
385.005
2536.4
838.393
193.424
6585.01
1128.75
375.931
6710.3
1794.25
5998.16
2298.98
4963.96
1596.84
1131.01
9908.97
9032.19
7246.22
5870.13
6392.66
1068.28
5024.78
1162.74
4541.82
677.155
4717.25
4849.81
1271.85
4235.56
)
;

boundaryField
{
    inlet
    {
        type            fixedValue;
        value           nonuniform 0();
    }
    outlet
    {
        type            calculated;
        value           nonuniform 0();
    }
    bottom
    {
        type            fixedValue;
        value           uniform 0;
    }
    top
    {
        type            symmetryPlane;
        value           nonuniform 0();
    }
    side1
    {
        type            symmetryPlane;
        value           uniform 0;
    }
    side2
    {
        type            symmetryPlane;
        value           nonuniform 0();
    }
    procBoundary10to9
    {
        type            processor;
        value           nonuniform List<scalar> 
11
(
-7009.64
-10172.8
-6120.33
-13267.7
-11424.5
-5415.74
-6997.4
-11062.9
-7810.85
-5250.41
-7657.24
)
;
    }
    procBoundary10to11
    {
        type            processor;
        value           nonuniform List<scalar> 8(9017.46 4628.53 5616.92 5659.7 3054.76 2563.78 3839.05 5082.8);
    }
    procBoundary10to26
    {
        type            processor;
        value           nonuniform List<scalar> 10(1796.11 2487.96 1974.5 2011.44 1841.92 1882.76 2685.93 3798.28 2488.07 1746.61);
    }
    procBoundary10to74
    {
        type            processor;
        value           nonuniform List<scalar> 
27
(
180.64
141.113
602.038
563.588
425.417
267.277
793.891
946.048
1004.51
766.622
394.95
743.296
386.907
222.131
125.206
147.705
137.326
167.906
390.194
1893.85
337.948
3505.26
1414.97
377.39
7266.09
1682.09
356.532
)
;
    }
    procBoundary10to75
    {
        type            processor;
        value           uniform 4778.26;
    }
}


// ************************************************************************* //
