/*--------------------------------*- C++ -*----------------------------------*\
| =========                 |                                                 |
| \\      /  F ield         | OpenFOAM: The Open Source CFD Toolbox           |
|  \\    /   O peration     | Version:  2.4.0                                 |
|   \\  /    A nd           | Web:      www.OpenFOAM.org                      |
|    \\/     M anipulation  |                                                 |
\*---------------------------------------------------------------------------*/
FoamFile
{
    version     2.0;
    format      ascii;
    class       volVectorField;
    location    "0.01";
    object      Ua;
}
// * * * * * * * * * * * * * * * * * * * * * * * * * * * * * * * * * * * * * //

dimensions      [0 1 -1 0 0 0 0];

internalField   nonuniform List<vector> 
200
(
(0.60873 0.0458716 0.00728783)
(0.573887 0.0303845 0.0149877)
(0.534654 0.0423158 0.00748589)
(0.463704 0.009408 0.0225254)
(0.405915 0.00714344 0.00703307)
(0.454111 0.013959 -0.00642302)
(0.42907 0.0368818 0.0176074)
(0.443989 0.0752958 0.0352886)
(0.493926 0.0504763 0.152978)
(0.553292 0.0489132 -0.0219282)
(0.609012 0.04571 0.00730148)
(0.573847 0.0304785 0.0149407)
(0.534557 0.0421336 0.00758608)
(0.463766 0.00954154 0.0223972)
(0.406319 0.00717884 0.00705496)
(0.453719 0.0140501 -0.00622174)
(0.4292 0.0369421 0.0175858)
(0.444048 0.0750416 0.0355195)
(0.493742 0.0506459 0.151853)
(0.554175 0.0487516 -0.0229652)
(0.609287 0.0455477 0.0073147)
(0.573807 0.0305682 0.0148941)
(0.534462 0.0419502 0.00768442)
(0.46383 0.00967251 0.0222706)
(0.40672 0.00721412 0.00707669)
(0.453336 0.0141388 -0.00602345)
(0.429329 0.0369977 0.0175654)
(0.444106 0.074783 0.0357455)
(0.493561 0.0508069 0.150735)
(0.55504 0.0485897 -0.0239676)
(0.609556 0.0453864 0.0073275)
(0.573768 0.0306548 0.014848)
(0.534367 0.0417671 0.00778094)
(0.463895 0.00980128 0.0221457)
(0.407117 0.00724957 0.00709828)
(0.452961 0.0142256 -0.00582806)
(0.429456 0.03705 0.0175462)
(0.444165 0.0745228 0.0359667)
(0.493385 0.0509614 0.149625)
(0.555888 0.0484292 -0.024936)
(0.609011 0.0456747 0.00730146)
(0.573847 0.0304546 0.0149408)
(0.534557 0.0421012 0.00758589)
(0.463766 0.00953377 0.0223974)
(0.406318 0.00717318 0.00705493)
(0.45372 0.0140389 -0.00622208)
(0.4292 0.0369133 0.0175859)
(0.444048 0.0749838 0.035519)
(0.493743 0.0506059 0.151852)
(0.554175 0.0487138 -0.0229621)
(0.609286 0.0455204 0.00731467)
(0.573807 0.0305495 0.0148942)
(0.534462 0.0419252 0.00768421)
(0.46383 0.00966629 0.0222709)
(0.406719 0.00720968 0.00707665)
(0.453337 0.01413 -0.00602384)
(0.429329 0.0369752 0.0175655)
(0.444106 0.0747383 0.035745)
(0.493562 0.0507756 0.150736)
(0.555039 0.0485605 -0.0239651)
(0.609555 0.0453644 0.00732747)
(0.573768 0.0306394 0.0148481)
(0.534367 0.0417471 0.00778071)
(0.463894 0.00979608 0.022146)
(0.407116 0.0072459 0.00709822)
(0.452962 0.0142183 -0.00582853)
(0.429456 0.0370316 0.0175462)
(0.444164 0.0744869 0.0359661)
(0.493385 0.0509359 0.149627)
(0.555885 0.0484057 -0.0249341)
(0.609818 0.0452086 0.00733986)
(0.57373 0.0307259 0.0148024)
(0.534274 0.0415686 0.00787544)
(0.46396 0.00992357 0.0220226)
(0.40751 0.00728219 0.00711966)
(0.452595 0.0143047 -0.00563605)
(0.429581 0.0370843 0.0175281)
(0.444222 0.0742329 0.0361825)
(0.493213 0.0510889 0.148525)
(0.556715 0.0482516 -0.0258699)
(0.609286 0.0454817 0.00731466)
(0.573807 0.0305234 0.0148942)
(0.534462 0.0418897 0.00768417)
(0.46383 0.00965792 0.0222709)
(0.406719 0.00720357 0.00707666)
(0.453337 0.0141179 -0.00602384)
(0.429329 0.0369438 0.0175656)
(0.444106 0.0746751 0.0357448)
(0.493564 0.050732 0.150733)
(0.555041 0.048519 -0.0239628)
(0.609555 0.0453346 0.00732746)
(0.573768 0.0306192 0.0148481)
(0.534367 0.0417197 0.00778066)
(0.463894 0.00978949 0.022146)
(0.407116 0.00724113 0.00709823)
(0.452962 0.0142089 -0.00582858)
(0.429456 0.0370073 0.0175463)
(0.444164 0.0744382 0.0359659)
(0.493386 0.0509021 0.149626)
(0.555886 0.0483739 -0.024933)
(0.609818 0.0451847 0.00733985)
(0.57373 0.0307095 0.0148024)
(0.534274 0.0415467 0.00787537)
(0.46396 0.00991815 0.0220227)
(0.407509 0.00727828 0.00711964)
(0.452595 0.014297 -0.00563617)
(0.429581 0.0370645 0.0175281)
(0.444222 0.0741938 0.0361823)
(0.493213 0.0510616 0.148526)
(0.556715 0.0482261 -0.0258697)
(0.610075 0.0450343 0.00735184)
(0.573694 0.0307959 0.0147572)
(0.534181 0.0413728 0.00796834)
(0.464028 0.0100444 0.0219009)
(0.4079 0.0073154 0.00714093)
(0.452236 0.014383 -0.0054465)
(0.429705 0.0371176 0.0175112)
(0.44428 0.0739459 0.036394)
(0.493044 0.0512133 0.147433)
(0.557527 0.0480783 -0.0267739)
(0.609555 0.0452928 0.00732745)
(0.573768 0.0305909 0.0148481)
(0.534367 0.0416813 0.00778066)
(0.463894 0.00978037 0.0221459)
(0.407116 0.00723454 0.00709826)
(0.452962 0.0141959 -0.00582844)
(0.429456 0.0369732 0.0175466)
(0.444165 0.0743698 0.0359658)
(0.493389 0.0508547 0.149621)
(0.55589 0.0483289 -0.0249303)
(0.609818 0.0451527 0.00733984)
(0.57373 0.0306877 0.0148024)
(0.534273 0.0415173 0.00787536)
(0.46396 0.00991102 0.0220227)
(0.407509 0.00727316 0.00711966)
(0.452595 0.0142869 -0.00563611)
(0.429581 0.0370383 0.0175283)
(0.444222 0.0741414 0.0361822)
(0.493214 0.0510252 0.148524)
(0.556716 0.0481918 -0.0258686)
(0.610075 0.0450087 0.00735183)
(0.573694 0.0307784 0.0147572)
(0.534181 0.0413494 0.00796832)
(0.464028 0.0100386 0.021901)
(0.4079 0.00731122 0.00714093)
(0.452236 0.0143747 -0.00544653)
(0.429705 0.0370964 0.0175112)
(0.44428 0.073904 0.036394)
(0.493045 0.051184 0.147433)
(0.557527 0.048051 -0.026774)
(0.610327 0.0448636 0.00736344)
(0.573658 0.0308647 0.0147124)
(0.534089 0.04118 0.00805957)
(0.464096 0.0101637 0.0217808)
(0.408287 0.00734916 0.00716206)
(0.451884 0.0144603 -0.00525961)
(0.429828 0.0371499 0.0174953)
(0.444338 0.073662 0.0366011)
(0.49288 0.0513345 0.146348)
(0.558322 0.0479093 -0.0276474)
(0.609818 0.0451076 0.00732269)
(0.57373 0.0306573 0.0147682)
(0.534273 0.0414758 0.00785695)
(0.46396 0.00990125 0.0219715)
(0.40751 0.00726612 0.00710317)
(0.452594 0.0142731 -0.00562295)
(0.429582 0.0370017 0.017488)
(0.444223 0.0740677 0.0360978)
(0.493217 0.0509742 0.148174)
(0.556722 0.0481432 -0.0258038)
(0.610075 0.0449743 0.00733343)
(0.573693 0.030755 0.0147206)
(0.53418 0.0413177 0.00794836)
(0.464028 0.010031 0.0218465)
(0.4079 0.00730578 0.00712317)
(0.452235 0.014364 -0.00543304)
(0.429706 0.0370683 0.0174679)
(0.44428 0.0738476 0.036303)
(0.493046 0.051145 0.147064)
(0.55753 0.048014 -0.0267048)
(0.610327 0.0448361 0.00734379)
(0.573658 0.0308461 0.0146734)
(0.534088 0.0411548 0.00803803)
(0.464096 0.0101576 0.0217231)
(0.408287 0.00734473 0.00714304)
(0.451884 0.0144516 -0.00524585)
(0.429828 0.0371273 0.0174489)
(0.444338 0.073617 0.0365036)
(0.49288 0.0513034 0.14596)
(0.558323 0.04788 -0.0275729)
(0.610573 0.0446962 0.00735378)
(0.573623 0.0309324 0.0146268)
(0.533997 0.0409898 0.008126)
(0.464165 0.0102815 0.0216012)
(0.408671 0.00738348 0.00716278)
(0.45154 0.0145368 -0.00506128)
(0.429949 0.0371812 0.0174312)
(0.444395 0.073381 0.0366995)
(0.492719 0.0514527 0.144863)
(0.559102 0.0477443 -0.0284094)
)
;

boundaryField
{
    inlet
    {
        type            calculated;
        value           nonuniform 0();
    }
    outlet
    {
        type            calculated;
        value           nonuniform 0();
    }
    bottom
    {
        type            calculated;
        value           uniform (0 0 0);
    }
    top
    {
        type            symmetryPlane;
    }
    side1
    {
        type            symmetryPlane;
    }
    side2
    {
        type            symmetryPlane;
    }
    procBoundary10to2
    {
        type            processor;
        value           nonuniform List<vector> 
50
(
(0.608442 0.046029 0.00727372)
(0.573929 0.030284 0.0150352)
(0.534751 0.0424935 0.00738382)
(0.463642 0.0092712 0.0226553)
(0.405508 0.00710743 0.00701103)
(0.454512 0.0138645 -0.00662735)
(0.428938 0.0368139 0.0176301)
(0.443931 0.0755399 0.0350528)
(0.494114 0.0502946 0.154114)
(0.55239 0.0490708 -0.0208555)
(0.60873 0.0458231 0.0072878)
(0.573887 0.0303521 0.0149878)
(0.534654 0.0422713 0.00748573)
(0.463703 0.00939767 0.0225256)
(0.405915 0.0071358 0.00703305)
(0.454112 0.013944 -0.0064233)
(0.429069 0.0368426 0.0176075)
(0.443989 0.0752165 0.0352883)
(0.493928 0.0504222 0.152978)
(0.553295 0.048861 -0.0219232)
(0.609011 0.0456213 0.00730145)
(0.573846 0.0304189 0.0149408)
(0.534557 0.0420522 0.00758587)
(0.463766 0.00952246 0.0223974)
(0.406318 0.00716483 0.00705495)
(0.45372 0.0140225 -0.00622201)
(0.4292 0.0368702 0.0175861)
(0.444048 0.0748965 0.0355189)
(0.493745 0.0505462 0.151849)
(0.554183 0.048656 -0.022956)
(0.609285 0.0454237 0.00731466)
(0.573806 0.0304844 0.0148942)
(0.534461 0.0418363 0.00768419)
(0.463829 0.00964549 0.0222707)
(0.406719 0.00719451 0.00707672)
(0.453337 0.0141001 -0.00602358)
(0.429329 0.0368967 0.017566)
(0.444107 0.0745801 0.0357447)
(0.493567 0.0506668 0.150726)
(0.555054 0.0484558 -0.023954)
(0.609554 0.0452299 0.00731156)
(0.573767 0.0305486 0.0148162)
(0.534366 0.0416233 0.00776379)
(0.463894 0.0097669 0.022098)
(0.407117 0.00722483 0.00708304)
(0.452961 0.0141768 -0.00581558)
(0.429456 0.0369223 0.0175094)
(0.444165 0.0742669 0.0358879)
(0.493393 0.0507838 0.149289)
(0.555909 0.04826 -0.0248629)
)
;
    }
    procBoundary10to9
    {
        type            processor;
        value           nonuniform List<vector> 
20
(
(0.687121 0.0338353 0.00172266)
(0.686998 0.0338542 0.00174265)
(0.686876 0.0338693 0.00176263)
(0.686755 0.0338821 0.00178261)
(0.686998 0.0338278 0.00174265)
(0.686876 0.0338488 0.0017626)
(0.686755 0.0338654 0.00178255)
(0.686634 0.0338791 0.00180249)
(0.686876 0.03382 0.00176266)
(0.686755 0.0338431 0.00178256)
(0.686635 0.0338612 0.00180247)
(0.686515 0.033876 0.00182238)
(0.686754 0.033812 0.00178265)
(0.686634 0.0338372 0.0018025)
(0.686515 0.0338567 0.00182237)
(0.686397 0.0338726 0.00184224)
(0.686633 0.0338037 0.00179842)
(0.686515 0.0338311 0.00181786)
(0.686397 0.033852 0.00183733)
(0.686279 0.0338689 0.0018568)
)
;
    }
    procBoundary10to11
    {
        type            processor;
        value           nonuniform List<vector> 
20
(
(0.880322 0.00266096 -0.609819)
(0.878856 0.00295901 -0.601209)
(0.877411 0.00325164 -0.592773)
(0.875986 0.00353905 -0.584506)
(0.878859 0.00295591 -0.601226)
(0.877414 0.00324886 -0.592791)
(0.87599 0.00353646 -0.584526)
(0.874586 0.00381894 -0.576425)
(0.877415 0.00324571 -0.592795)
(0.875991 0.00353377 -0.584531)
(0.874587 0.00381656 -0.576431)
(0.873202 0.00409432 -0.568491)
(0.875991 0.00353023 -0.584531)
(0.874587 0.0038136 -0.576432)
(0.873202 0.00409175 -0.568493)
(0.871836 0.00436495 -0.560709)
(0.874585 0.00380989 -0.575097)
(0.8732 0.00408877 -0.567083)
(0.871835 0.00436247 -0.559226)
(0.870487 0.00463129 -0.551523)
)
;
    }
    procBoundary10to18
    {
        type            processor;
        value           nonuniform List<vector> 
50
(
(0.609719 0.0452606 0.00734254)
(0.573748 0.030733 0.0148062)
(0.534317 0.0416049 0.00786688)
(0.463996 0.00992972 0.0220315)
(0.407488 0.00728189 0.00712607)
(0.452612 0.0142931 -0.00565374)
(0.429575 0.0370817 0.0175192)
(0.444202 0.0742725 0.0361358)
(0.49319 0.0511117 0.148584)
(0.556345 0.0483232 -0.0252287)
(0.609963 0.0450935 0.0073545)
(0.573716 0.0308026 0.014762)
(0.534234 0.0414149 0.00795773)
(0.464071 0.0100511 0.0219121)
(0.407873 0.00731445 0.0071487)
(0.452257 0.0143677 -0.00546849)
(0.429697 0.037112 0.0175)
(0.444255 0.0739901 0.0363365)
(0.493016 0.0512378 0.147507)
(0.557097 0.0481596 -0.0260356)
(0.610202 0.0449296 0.00736604)
(0.573684 0.0308711 0.0147181)
(0.534152 0.0412277 0.00804701)
(0.464147 0.0101712 0.0217941)
(0.408255 0.00734755 0.00717127)
(0.45191 0.0144413 -0.00528572)
(0.429818 0.0371413 0.0174818)
(0.444308 0.0737105 0.0365328)
(0.492845 0.0513609 0.146438)
(0.557833 0.0479999 -0.0268166)
(0.610438 0.044769 0.00737717)
(0.573655 0.0309385 0.0146746)
(0.534072 0.0410434 0.00813463)
(0.464225 0.0102897 0.0216775)
(0.408634 0.00738114 0.00719372)
(0.45157 0.0145139 -0.0051056)
(0.429937 0.0371694 0.0174645)
(0.44436 0.0734341 0.0367246)
(0.492677 0.051481 0.145377)
(0.558554 0.0478442 -0.0275712)
(0.610669 0.0446115 0.00736576)
(0.573626 0.0310047 0.014588)
(0.533992 0.0408617 0.00819593)
(0.464303 0.0104069 0.0214983)
(0.40901 0.00741524 0.00719448)
(0.451236 0.0145856 -0.0049136)
(0.430055 0.0371966 0.0173961)
(0.444412 0.0731603 0.0368013)
(0.492513 0.0515981 0.143896)
(0.559261 0.0476923 -0.0282141)
)
;
    }
}


// ************************************************************************* //
