/*--------------------------------*- C++ -*----------------------------------*\
| =========                 |                                                 |
| \\      /  F ield         | OpenFOAM: The Open Source CFD Toolbox           |
|  \\    /   O peration     | Version:  2.4.0                                 |
|   \\  /    A nd           | Web:      www.OpenFOAM.org                      |
|    \\/     M anipulation  |                                                 |
\*---------------------------------------------------------------------------*/
FoamFile
{
    version     2.0;
    format      ascii;
    class       volVectorField;
    location    "0.01";
    object      Uc;
}
// * * * * * * * * * * * * * * * * * * * * * * * * * * * * * * * * * * * * * //

dimensions      [0 1 -1 0 0 0 0];

internalField   nonuniform List<vector> 
200
(
(5.0419e-13 3.79938e-14 6.03625e-15)
(7.35138e-13 3.8922e-14 1.9199e-14)
(5.66398e-13 4.48282e-14 7.93036e-15)
(4.8662e-13 9.87295e-15 2.36386e-14)
(4.21843e-13 7.42374e-15 7.30904e-15)
(3.66775e-13 1.12744e-14 -5.18772e-15)
(4.41328e-13 3.79355e-14 1.81104e-14)
(3.49239e-13 5.92271e-14 2.77578e-14)
(2.59288e-13 2.64976e-14 8.03063e-14)
(1.51184e-13 1.33653e-14 -5.99177e-15)
(1.07807e-15 8.09158e-17 1.29251e-17)
(1.56047e-15 8.28807e-17 4.06284e-17)
(1.20581e-15 9.50419e-17 1.71121e-17)
(1.03544e-15 2.13032e-17 5.00057e-17)
(8.97577e-16 1.58584e-17 1.55847e-17)
(7.81483e-16 2.41998e-17 -1.07163e-17)
(9.37449e-16 8.06882e-17 3.84105e-17)
(7.43029e-16 1.25568e-16 5.94351e-17)
(5.51482e-16 5.65687e-17 1.69611e-16)
(3.23405e-16 2.84504e-17 -1.3402e-17)
(2.11296e-18 1.57956e-19 2.53669e-20)
(3.0366e-18 1.61768e-19 7.88199e-20)
(2.35323e-18 1.84706e-19 3.38344e-20)
(2.01973e-18 4.21185e-20 9.69765e-20)
(1.75076e-18 3.10538e-20 3.04623e-20)
(1.52638e-18 4.7605e-20 -2.02809e-20)
(1.82547e-18 1.57311e-19 7.46864e-20)
(1.44917e-18 2.44025e-19 1.16642e-19)
(1.07528e-18 1.10689e-19 3.28393e-19)
(6.34146e-19 5.55149e-20 -2.73836e-20)
(3.87213e-21 2.88311e-22 4.6547e-23)
(5.5257e-21 2.95222e-22 1.42994e-22)
(4.29434e-21 3.35653e-22 6.253e-23)
(3.68397e-21 7.78359e-23 1.75868e-22)
(3.1933e-21 5.68634e-23 5.56767e-23)
(2.78773e-21 8.75509e-23 -3.58686e-23)
(3.32401e-21 2.86769e-22 1.35808e-22)
(2.64291e-21 4.43433e-22 2.14012e-22)
(1.96053e-21 2.02502e-22 5.94553e-22)
(1.16268e-21 1.01293e-22 -5.21554e-23)
(2.10162e-15 1.57618e-16 2.51965e-17)
(3.04204e-15 1.61444e-16 7.9203e-17)
(2.35065e-15 1.85135e-16 3.3358e-17)
(2.01851e-15 4.14952e-17 9.74834e-17)
(1.74976e-15 3.08905e-17 3.03812e-17)
(1.52344e-15 4.71381e-17 -2.08917e-17)
(1.8275e-15 1.57174e-16 7.48792e-17)
(1.44848e-15 2.44597e-16 1.15863e-16)
(1.07508e-15 1.1019e-16 3.30645e-16)
(6.30459e-16 5.54194e-17 -2.61229e-17)
(4.94139e-18 3.69177e-19 5.9323e-20)
(7.1015e-18 3.78084e-19 1.84332e-19)
(5.50332e-18 4.31701e-19 7.91237e-20)
(4.72338e-18 9.84361e-20 2.26794e-19)
(4.09437e-18 7.25787e-20 7.12396e-20)
(3.56962e-18 1.11261e-19 -4.74323e-20)
(4.26909e-18 3.67669e-19 1.74665e-19)
(3.38906e-18 5.70342e-19 2.72777e-19)
(2.51468e-18 2.587e-19 7.67995e-19)
(1.48302e-18 1.2975e-19 -6.4033e-20)
(1.05618e-20 7.86028e-22 1.26963e-22)
(1.50724e-20 8.04871e-22 3.90046e-22)
(1.17135e-20 9.15109e-22 1.70556e-22)
(1.00487e-20 2.12198e-22 4.79715e-22)
(8.71026e-21 1.55026e-22 1.51867e-22)
(7.60398e-21 2.38687e-22 -9.7845e-23)
(9.06683e-21 7.81826e-22 3.70442e-22)
(7.20899e-21 1.20896e-21 5.83747e-22)
(5.34768e-21 5.52081e-22 1.62177e-21)
(3.17135e-21 2.76157e-22 -1.4225e-22)
(2.09611e-23 1.55394e-24 2.52291e-25)
(2.97069e-23 1.59094e-24 7.66446e-25)
(2.31512e-23 1.80126e-24 3.4126e-25)
(1.98516e-23 4.24603e-25 9.42289e-25)
(1.72071e-23 3.07491e-25 3.00628e-25)
(1.50412e-23 4.75393e-25 -1.87304e-25)
(1.78819e-23 1.54368e-24 7.29632e-25)
(1.42396e-23 2.37954e-24 1.15983e-24)
(1.05606e-23 1.0939e-24 3.18019e-24)
(6.29718e-24 5.45789e-25 -2.92623e-25)
(4.82369e-18 3.60077e-19 5.79099e-20)
(6.93228e-18 3.6876e-19 1.7994e-19)
(5.37217e-18 4.21057e-19 7.72378e-20)
(4.61082e-18 9.60072e-20 2.2139e-19)
(3.99681e-18 7.07892e-20 6.95421e-20)
(3.48455e-18 1.08517e-19 -4.63019e-20)
(4.16736e-18 3.58602e-19 1.70504e-19)
(3.3083e-18 5.5628e-19 2.66275e-19)
(2.45478e-18 2.52319e-19 7.49681e-19)
(1.44771e-18 1.26552e-19 -6.25021e-20)
(1.237e-20 9.20001e-22 1.487e-22)
(1.76529e-20 9.42051e-22 4.56826e-22)
(1.3719e-20 1.07108e-21 1.99755e-22)
(1.17691e-20 2.48361e-22 5.61848e-22)
(1.02015e-20 1.81449e-22 1.77868e-22)
(8.90584e-21 2.79367e-22 -1.14598e-22)
(1.06192e-20 9.15079e-22 4.33868e-22)
(8.44323e-21 1.41501e-21 6.83685e-22)
(6.26327e-21 6.46174e-22 1.89942e-21)
(3.71433e-21 3.23226e-22 -1.66598e-22)
(2.86375e-23 2.12191e-24 3.44685e-25)
(4.05865e-23 2.17243e-24 1.04714e-24)
(3.16298e-23 2.45963e-24 4.66234e-25)
(2.71218e-23 5.79786e-25 1.28738e-24)
(2.35088e-23 4.19877e-25 4.10725e-25)
(2.05497e-23 6.49143e-25 -2.55905e-25)
(2.44307e-23 2.1079e-24 9.96844e-25)
(1.94545e-23 3.24928e-24 1.58459e-24)
(1.44281e-23 1.49372e-24 4.34487e-24)
(8.60332e-24 7.45274e-25 -3.99784e-25)
(6.11953e-26 4.51729e-27 7.37446e-28)
(8.61422e-26 4.62412e-27 2.21584e-27)
(6.73164e-26 5.21373e-27 1.00416e-27)
(5.76969e-26 1.24892e-27 2.72315e-27)
(5.00098e-26 8.96891e-28 8.755e-28)
(4.37706e-26 1.39209e-27 -5.27151e-28)
(5.18856e-26 4.48183e-27 2.11442e-27)
(4.13795e-26 6.88719e-27 3.38968e-27)
(3.06819e-26 3.18698e-27 9.17466e-27)
(1.83943e-26 1.58623e-27 -8.8334e-28)
(8.05368e-21 5.98427e-22 9.68132e-23)
(1.1493e-20 6.12759e-22 2.97419e-22)
(8.93177e-21 6.9669e-22 1.30051e-22)
(7.66229e-21 1.61545e-22 3.65791e-22)
(6.64174e-21 1.18025e-22 1.15802e-22)
(5.79817e-21 1.81716e-22 -7.46074e-23)
(6.91362e-21 5.95216e-22 2.82475e-22)
(5.49698e-21 9.20401e-22 4.45113e-22)
(4.07775e-21 4.20304e-22 1.23659e-21)
(2.4183e-21 2.10246e-22 -1.08455e-22)
(2.23704e-23 1.65637e-24 2.69252e-25)
(3.17042e-23 1.6958e-24 8.17979e-25)
(2.47077e-23 1.91998e-24 3.64199e-25)
(2.11862e-23 4.52576e-25 1.00564e-24)
(1.8364e-23 3.27757e-25 3.2084e-25)
(1.60524e-23 5.06721e-25 -1.99899e-25)
(1.90841e-23 1.64542e-24 7.78693e-25)
(1.51969e-23 2.53639e-24 1.2378e-24)
(1.12706e-23 1.16599e-24 3.39396e-24)
(6.72057e-24 5.81762e-25 -3.12281e-25)
(5.57639e-26 4.11402e-27 6.71994e-28)
(7.84968e-26 4.21131e-27 2.01918e-27)
(6.13419e-26 4.7483e-27 9.1503e-28)
(5.25761e-26 1.13741e-27 2.48146e-27)
(4.55713e-26 8.16822e-28 7.97796e-28)
(3.98858e-26 1.26781e-27 -4.80367e-28)
(4.72806e-26 4.08173e-27 1.92676e-27)
(3.77069e-26 6.27237e-27 3.08882e-27)
(2.79588e-26 2.90246e-27 8.36037e-27)
(1.67617e-26 1.44462e-27 -8.04943e-28)
(1.27654e-28 9.38355e-30 1.54012e-30)
(1.785e-28 9.6039e-30 4.57791e-30)
(1.39867e-28 1.07842e-29 2.11063e-30)
(1.19829e-28 2.62425e-30 5.62377e-30)
(1.03862e-28 1.86951e-30 1.82192e-30)
(9.10176e-29 2.91257e-30 -1.05938e-30)
(1.07582e-28 9.29825e-30 4.3789e-30)
(8.59254e-29 1.42446e-29 7.07786e-30)
(6.36995e-29 6.63444e-30 1.89139e-29)
(3.83922e-29 3.29441e-30 -1.90113e-30)
(1.09384e-23 8.091e-25 1.31348e-25)
(1.55019e-23 8.28343e-25 3.99028e-25)
(1.20809e-23 9.37848e-25 1.77661e-25)
(1.03591e-23 2.21071e-25 4.90569e-25)
(8.97915e-24 1.60103e-25 1.56512e-25)
(7.84891e-24 2.47524e-25 -9.75134e-26)
(9.33122e-24 8.03737e-25 3.79869e-25)
(7.43058e-24 1.23894e-24 6.03813e-25)
(5.51085e-24 5.69549e-25 1.65559e-24)
(3.2862e-24 2.84178e-25 -1.52314e-25)
(3.27178e-26 2.41193e-27 3.93286e-28)
(4.60549e-26 2.46895e-27 1.18174e-27)
(3.599e-26 2.78375e-27 5.35515e-28)
(3.0847e-26 6.6683e-28 1.45228e-27)
(2.67372e-26 4.78882e-28 4.66912e-28)
(2.34015e-26 7.43285e-28 -2.81139e-28)
(2.774e-26 2.39298e-27 1.12765e-27)
(2.21231e-26 3.67726e-27 1.80772e-27)
(1.64038e-26 1.70161e-27 4.89287e-27)
(9.83447e-27 8.46937e-28 -4.71055e-28)
(8.7378e-29 6.419e-30 1.05138e-30)
(1.2218e-28 6.56974e-30 3.12522e-30)
(9.57366e-29 7.37709e-30 1.44084e-30)
(8.20212e-29 1.79518e-30 3.83919e-30)
(7.10919e-29 1.27888e-30 1.24376e-30)
(6.23003e-29 1.99241e-30 -7.23234e-31)
(7.3638e-29 6.36065e-30 2.98935e-30)
(5.88146e-29 9.7443e-30 4.83178e-30)
(4.36014e-29 4.53842e-30 1.2912e-29)
(2.6279e-29 2.2536e-30 -1.2978e-30)
(2.13349e-31 1.56179e-32 2.56959e-33)
(2.96378e-31 1.59821e-32 7.55732e-33)
(2.32849e-31 1.78736e-32 3.54334e-33)
(1.9941e-31 4.41704e-33 9.28009e-33)
(1.72836e-31 3.12263e-33 3.02929e-33)
(1.51647e-31 4.88212e-33 -1.69981e-33)
(1.78736e-31 1.54567e-32 7.2464e-33)
(1.42965e-31 2.36071e-32 1.18065e-32)
(1.05967e-31 1.10657e-32 3.1155e-32)
(6.42025e-32 5.48255e-33 -3.2623e-33)
)
;

boundaryField
{
    inlet
    {
        type            calculated;
        value           nonuniform 0();
    }
    outlet
    {
        type            calculated;
        value           nonuniform 0();
    }
    bottom
    {
        type            calculated;
        value           uniform (0 0 0);
    }
    top
    {
        type            symmetryPlane;
    }
    side1
    {
        type            symmetryPlane;
    }
    side2
    {
        type            symmetryPlane;
    }
    procBoundary10to2
    {
        type            processor;
        value           nonuniform List<vector> 
50
(
(2.09597e-10 1.58562e-11 2.50567e-12)
(3.07878e-10 1.62455e-11 8.06547e-12)
(2.36504e-10 1.87936e-11 3.26564e-12)
(2.03301e-10 4.0653e-12 9.93404e-12)
(1.76244e-10 3.08907e-12 3.04718e-12)
(1.53022e-10 4.6678e-12 -2.23124e-12)
(1.84699e-10 1.58519e-11 7.59148e-12)
(1.45921e-10 2.48301e-11 1.15219e-11)
(1.08373e-10 1.10309e-11 3.38014e-11)
(6.28241e-11 5.58089e-12 -2.37193e-12)
(7.86598e-13 5.92124e-14 9.41727e-15)
(1.14688e-12 6.06568e-14 2.99522e-14)
(8.83625e-13 6.9862e-14 1.23717e-14)
(7.59166e-13 1.53857e-14 3.68784e-14)
(6.58108e-13 1.15693e-14 1.14027e-14)
(5.72197e-13 1.75699e-14 -8.09358e-15)
(6.88508e-13 5.91196e-14 2.82539e-14)
(5.4484e-13 9.23017e-14 4.33038e-14)
(4.04511e-13 4.12941e-14 1.25284e-13)
(2.35871e-13 2.08296e-14 -9.34594e-15)
(1.64168e-15 1.22979e-16 1.96821e-17)
(2.37617e-15 1.25958e-16 6.18664e-17)
(1.83611e-15 1.44442e-16 2.60562e-17)
(1.57668e-15 3.23738e-17 7.61452e-17)
(1.36676e-15 2.41008e-17 2.37312e-17)
(1.18998e-15 3.6777e-17 -1.63185e-17)
(1.42747e-15 1.22626e-16 5.84895e-17)
(1.13142e-15 1.90834e-16 9.05014e-17)
(8.39763e-16 8.59692e-17 2.58265e-16)
(4.92499e-16 4.32403e-17 -2.04009e-17)
(2.51306e-18 1.87355e-19 3.01701e-20)
(3.61137e-18 1.9186e-19 9.374e-20)
(2.79863e-18 2.1907e-19 4.02372e-20)
(2.40201e-18 4.99505e-20 1.15332e-19)
(2.08214e-18 3.68312e-20 3.62283e-20)
(1.81528e-18 5.64605e-20 -2.412e-20)
(2.17098e-18 1.86576e-19 8.88259e-20)
(1.72345e-18 2.89424e-19 1.38715e-19)
(1.27883e-18 1.31277e-19 3.9053e-19)
(7.54276e-19 6.58477e-20 -3.25517e-20)
(3.15098e-21 2.33808e-22 3.77958e-23)
(4.4962e-21 2.39388e-22 1.16104e-22)
(3.49423e-21 2.72176e-22 5.07676e-23)
(2.99759e-21 6.31117e-23 1.42793e-22)
(2.59835e-21 4.61112e-23 4.52062e-23)
(2.26833e-21 7.09946e-23 -2.91232e-23)
(2.70469e-21 2.32535e-22 1.10273e-22)
(2.15049e-21 3.59574e-22 1.73756e-22)
(1.5953e-21 1.642e-22 4.827e-22)
(9.46229e-22 8.21449e-23 -4.23199e-23)
)
;
    }
    procBoundary10to9
    {
        type            processor;
        value           nonuniform List<vector> 
20
(
(8.80313e-13 4.33485e-14 2.20701e-15)
(1.86844e-15 9.20738e-17 4.73952e-18)
(3.63555e-18 1.79266e-19 9.32938e-21)
(6.61499e-21 3.2636e-22 1.71705e-23)
(3.64245e-15 1.79354e-16 9.23952e-18)
(8.50225e-18 4.18985e-19 2.18178e-20)
(1.80436e-20 8.89769e-22 4.68341e-23)
(3.55597e-23 1.75455e-24 9.33481e-26)
(8.29977e-18 4.0866e-19 2.12989e-20)
(2.11329e-20 1.04143e-21 5.48533e-23)
(4.85826e-23 2.39584e-24 1.27533e-25)
(1.03104e-25 5.08764e-27 2.73692e-28)
(1.37589e-20 6.77413e-22 3.57149e-23)
(3.79507e-23 1.8702e-24 9.96252e-26)
(9.39529e-26 4.63346e-27 2.494e-28)
(2.13626e-28 1.05421e-29 5.73358e-31)
(1.85565e-23 9.13555e-25 4.86029e-26)
(5.51235e-26 2.71646e-27 1.45965e-28)
(1.46224e-28 7.21154e-30 3.91408e-31)
(3.54667e-31 1.75034e-32 9.59592e-34)
)
;
    }
    procBoundary10to11
    {
        type            processor;
        value           nonuniform List<vector> 
20
(
(2.3992e-13 7.25207e-16 -1.66198e-13)
(5.11311e-16 1.72153e-18 -3.49778e-16)
(9.98889e-19 3.70184e-21 -6.74843e-19)
(1.82467e-21 7.37181e-24 -1.21752e-21)
(9.96769e-16 3.35248e-18 -6.81887e-16)
(2.33602e-18 8.64974e-21 -1.57825e-18)
(4.97709e-21 2.0093e-23 -3.32109e-21)
(9.8466e-24 4.29959e-26 -6.48973e-24)
(2.28038e-18 8.43552e-21 -1.54066e-18)
(5.82922e-21 2.35152e-23 -3.88972e-21)
(1.34527e-23 5.87053e-26 -8.86651e-24)
(2.8658e-26 1.34373e-28 -1.86575e-26)
(3.79518e-21 1.52945e-23 -2.53245e-21)
(1.05086e-23 4.58224e-26 -6.92613e-24)
(2.61145e-26 1.2237e-28 -1.70017e-26)
(5.95988e-29 2.98389e-31 -3.83301e-29)
(5.13831e-24 2.23836e-26 -3.37878e-24)
(1.53217e-26 7.17442e-29 -9.95041e-27)
(4.07946e-29 2.04127e-31 -2.61671e-29)
(9.93088e-32 5.28357e-34 -6.292e-32)
)
;
    }
    procBoundary10to18
    {
        type            processor;
        value           nonuniform List<vector> 
50
(
(6.70644e-24 4.97832e-25 8.07624e-26)
(9.52701e-24 5.10318e-25 2.45856e-25)
(7.4245e-24 5.78112e-25 1.09313e-25)
(6.36629e-24 1.36241e-25 3.02285e-25)
(5.51819e-24 9.86111e-26 9.6501e-26)
(4.82265e-24 1.52295e-25 -6.02415e-26)
(5.73483e-24 4.95042e-25 2.33882e-25)
(4.5669e-24 7.63606e-25 3.71517e-25)
(3.38724e-24 3.51037e-25 1.02048e-24)
(2.01679e-24 1.75175e-25 -9.1456e-26)
(3.90644e-26 2.88797e-27 4.71011e-28)
(5.51409e-26 2.9605e-27 1.4188e-27)
(4.30894e-26 3.34038e-27 6.41842e-28)
(3.69316e-26 7.99888e-28 1.74381e-27)
(3.2011e-26 5.74058e-28 5.61049e-28)
(2.80105e-26 8.89861e-28 -3.38691e-28)
(3.32136e-26 2.86859e-27 1.35267e-27)
(2.64895e-26 4.41179e-27 2.16663e-27)
(1.96432e-26 2.04147e-27 5.87714e-27)
(1.17563e-26 1.01631e-27 -5.49426e-28)
(1.22109e-28 8.99099e-30 1.47404e-30)
(1.71283e-28 9.2171e-30 4.39433e-30)
(1.34208e-28 1.03587e-29 2.02185e-30)
(1.14981e-28 2.51965e-30 5.39892e-30)
(9.96587e-29 1.7936e-30 1.75057e-30)
(8.73093e-29 2.79007e-30 -1.02121e-30)
(1.03235e-28 8.92074e-30 4.19885e-30)
(8.24582e-29 1.36798e-29 6.78005e-30)
(6.11362e-29 6.3712e-30 1.81653e-29)
(3.67766e-29 3.16452e-30 -1.76796e-30)
(2.71526e-31 1.99135e-32 3.2814e-33)
(3.78528e-31 2.04148e-32 9.68306e-33)
(2.97381e-31 2.28537e-32 4.52951e-33)
(2.54672e-31 5.6449e-33 1.18922e-32)
(2.20731e-31 3.98706e-33 3.88582e-33)
(1.93607e-31 6.22273e-33 -2.18899e-33)
(2.28285e-31 1.9736e-32 9.27318e-33)
(1.82609e-31 3.01776e-32 1.50919e-32)
(1.35369e-31 1.41451e-32 3.99443e-32)
(8.18423e-32 7.01038e-33 -4.03988e-33)
(4.81898e-34 3.52043e-35 5.81255e-36)
(6.67739e-34 3.60915e-35 1.69814e-35)
(5.25963e-34 4.02473e-35 8.0727e-36)
(4.50252e-34 1.00919e-35 2.08477e-35)
(3.90238e-34 7.07489e-36 6.86427e-36)
(3.42681e-34 1.10767e-35 -3.73152e-36)
(4.02948e-34 3.4852e-35 1.62995e-35)
(3.22792e-34 5.31388e-35 2.673e-35)
(2.39257e-34 2.50657e-35 6.99027e-35)
(1.4537e-34 1.23968e-35 -7.33377e-36)
)
;
    }
}


// ************************************************************************* //
