/*--------------------------------*- C++ -*----------------------------------*\
| =========                 |                                                 |
| \\      /  F ield         | OpenFOAM: The Open Source CFD Toolbox           |
|  \\    /   O peration     | Version:  2.4.0                                 |
|   \\  /    A nd           | Web:      www.OpenFOAM.org                      |
|    \\/     M anipulation  |                                                 |
\*---------------------------------------------------------------------------*/
FoamFile
{
    version     2.0;
    format      ascii;
    class       volVectorField;
    location    "0.16";
    object      A_Source;
}
// * * * * * * * * * * * * * * * * * * * * * * * * * * * * * * * * * * * * * //

dimensions      [1 -2 -2 0 0 0 0];

internalField   nonuniform List<vector> 
200
(
(-1.0722e-56 -1.15032e-57 -5.20891e-57)
(-4.88019e-59 -5.22478e-60 -2.37086e-59)
(-2.21622e-61 -2.36774e-62 -1.07667e-61)
(-1.00431e-63 -1.07072e-64 -4.87908e-64)
(-4.54205e-66 -4.83225e-67 -2.20659e-66)
(-2.05029e-68 -2.17672e-69 -9.96062e-69)
(-9.23859e-71 -9.7877e-72 -4.48824e-71)
(-4.15587e-73 -4.39366e-74 -2.01898e-73)
(-1.86649e-75 -1.96914e-76 -9.06765e-76)
(-8.3699e-78 -8.81174e-79 -4.06622e-78)
(-5.05964e-58 -5.69093e-59 -2.45805e-58)
(-2.35171e-60 -2.64235e-61 -1.14249e-60)
(-1.0901e-62 -1.22355e-63 -5.29588e-63)
(-5.04013e-65 -5.65116e-66 -2.44857e-65)
(-2.32469e-67 -2.60379e-68 -1.12937e-67)
(-1.06978e-69 -1.19696e-70 -5.19716e-70)
(-4.9123e-72 -5.49053e-73 -2.38647e-72)
(-2.25103e-74 -2.51336e-75 -1.09358e-74)
(-1.02951e-76 -1.14828e-77 -5.00149e-77)
(-4.69961e-79 -5.23628e-80 -2.28314e-79)
(-1.23929e-59 -1.41604e-60 -6.02062e-60)
(-5.88152e-62 -6.71568e-63 -2.85732e-62)
(-2.78254e-64 -3.17496e-65 -1.3518e-64)
(-1.31251e-66 -1.49657e-67 -6.37637e-67)
(-6.17364e-69 -7.03445e-70 -2.99924e-69)
(-2.89615e-71 -3.29766e-72 -1.40699e-71)
(-1.35518e-73 -1.54198e-74 -6.58368e-74)
(-6.326e-76 -7.19294e-77 -3.07326e-76)
(-2.94621e-78 -3.34762e-79 -1.43131e-78)
(-1.36911e-80 -1.55456e-81 -6.65134e-81)
(-2.07515e-61 -2.38987e-62 -1.00814e-61)
(-1.00524e-63 -1.15709e-64 -4.88362e-64)
(-4.8523e-66 -5.58234e-67 -2.35732e-66)
(-2.33432e-68 -2.68411e-69 -1.13404e-68)
(-1.11939e-70 -1.28646e-71 -5.43817e-71)
(-5.35163e-73 -6.14712e-74 -2.5999e-73)
(-2.55114e-75 -2.92882e-76 -1.23938e-75)
(-1.2128e-77 -1.39161e-78 -5.89194e-78)
(-5.75045e-80 -6.59482e-81 -2.79365e-80)
(-2.71968e-82 -3.11739e-83 -1.32126e-82)
(-2.00652e-58 -2.1482e-59 -9.74794e-59)
(-9.32918e-61 -9.967e-62 -4.53225e-61)
(-4.3258e-63 -4.61186e-64 -2.10153e-63)
(-2.00068e-65 -2.12852e-66 -9.71961e-66)
(-9.23084e-68 -9.80008e-69 -4.48447e-68)
(-4.24924e-70 -4.50182e-71 -2.06434e-70)
(-1.95182e-72 -2.06351e-73 -9.48223e-73)
(-8.94699e-75 -9.43912e-76 -4.34657e-75)
(-4.09322e-77 -4.30932e-78 -1.98854e-77)
(-1.86912e-79 -1.96368e-80 -9.08047e-80)
(-9.66903e-60 -1.0864e-60 -4.69735e-60)
(-4.5887e-62 -5.15041e-63 -2.22925e-62)
(-2.17085e-64 -2.43404e-65 -1.05463e-64)
(-1.02395e-66 -1.14689e-67 -4.97451e-67)
(-4.81623e-69 -5.38881e-70 -2.33979e-69)
(-2.25931e-71 -2.52525e-72 -1.0976e-71)
(-1.05716e-73 -1.18036e-74 -5.13585e-74)
(-4.93471e-76 -5.50403e-77 -2.39735e-76)
(-2.29819e-78 -2.56064e-79 -1.11649e-78)
(-1.06795e-80 -1.18866e-81 -5.18824e-81)
(-2.41814e-61 -2.7611e-62 -1.17477e-61)
(-1.17126e-63 -1.33644e-64 -5.69014e-64)
(-5.653e-66 -6.44573e-67 -2.74631e-66)
(-2.7192e-68 -3.09835e-69 -1.32103e-68)
(-1.30381e-70 -1.48457e-71 -6.3341e-71)
(-6.2326e-73 -7.09172e-74 -3.02789e-73)
(-2.97077e-75 -3.3779e-76 -1.44324e-75)
(-1.41213e-77 -1.60453e-78 -6.86032e-78)
(-6.69482e-80 -7.60167e-81 -3.25244e-80)
(-3.16597e-82 -3.59231e-83 -1.53807e-82)
(-4.13287e-63 -4.75717e-64 -2.00781e-63)
(-2.04242e-65 -2.34971e-66 -9.92236e-66)
(-1.00536e-67 -1.15601e-68 -4.88416e-68)
(-4.93021e-70 -5.66603e-71 -2.39516e-70)
(-2.40914e-72 -2.76724e-73 -1.17039e-72)
(-1.17324e-74 -1.34692e-75 -5.69974e-75)
(-5.69515e-77 -6.53485e-78 -2.76679e-77)
(-2.75605e-79 -3.16075e-80 -1.33893e-79)
(-1.32982e-81 -1.52429e-82 -6.46045e-82)
(-6.39833e-84 -7.33015e-85 -3.1084e-84)
(-1.93048e-60 -2.06244e-61 -9.37855e-61)
(-9.16575e-63 -9.77177e-64 -4.45285e-63)
(-4.33816e-65 -4.6153e-66 -2.10754e-65)
(-2.04717e-67 -2.17338e-68 -9.94543e-68)
(-9.63338e-70 -1.02059e-70 -4.68003e-70)
(-4.52111e-72 -4.77976e-73 -2.19642e-72)
(-2.11647e-74 -2.23286e-75 -1.02821e-74)
(-9.88396e-77 -1.04057e-77 -4.80177e-77)
(-4.60526e-79 -4.83818e-80 -2.2373e-79)
(-2.14101e-81 -2.24459e-82 -1.04013e-81)
(-9.49643e-62 -1.06588e-62 -4.6135e-62)
(-4.60022e-64 -5.15791e-65 -2.23485e-64)
(-2.22051e-66 -2.48709e-67 -1.07876e-66)
(-1.06822e-68 -1.19521e-69 -5.18959e-69)
(-5.12253e-71 -5.72548e-72 -2.4886e-71)
(-2.44899e-73 -2.73438e-74 -1.18975e-73)
(-1.16744e-75 -1.30212e-76 -5.67159e-76)
(-5.54994e-78 -6.1837e-79 -2.69624e-78)
(-2.63149e-80 -2.92891e-81 -1.27841e-80)
(-1.24457e-82 -1.38378e-83 -6.04628e-83)
(-2.42422e-63 -2.7661e-64 -1.17772e-63)
(-1.19805e-65 -1.36605e-66 -5.82028e-66)
(-5.89736e-68 -6.71964e-69 -2.86502e-68)
(-2.89209e-70 -3.29304e-71 -1.40502e-70)
(-1.41325e-72 -1.60805e-73 -6.86577e-73)
(-6.8826e-75 -7.8258e-76 -3.34366e-75)
(-3.34105e-77 -3.79626e-78 -1.62313e-77)
(-1.61687e-79 -1.83588e-80 -7.855e-80)
(-7.80174e-82 -8.85231e-83 -3.7902e-82)
(-3.75385e-84 -4.25636e-85 -1.82367e-84)
(-4.22775e-65 -4.86382e-66 -2.0539e-65)
(-2.13088e-67 -2.45018e-68 -1.03521e-67)
(-1.06936e-69 -1.22895e-70 -5.19509e-70)
(-5.3444e-72 -6.1388e-73 -2.59638e-72)
(-2.66056e-74 -3.05442e-75 -1.29254e-74)
(-1.31955e-76 -1.5141e-77 -6.41055e-77)
(-6.52126e-79 -7.47882e-80 -3.16812e-79)
(-3.21191e-81 -3.68159e-82 -1.56039e-81)
(-1.57682e-83 -1.80646e-84 -7.66044e-84)
(-7.71694e-86 -8.83613e-87 -3.749e-86)
(-1.26673e-62 -1.35046e-63 -6.15394e-63)
(-6.13921e-65 -6.53131e-66 -2.98252e-65)
(-2.96482e-67 -3.14757e-68 -1.44035e-67)
(-1.42699e-69 -1.51177e-70 -6.93251e-70)
(-6.84629e-72 -7.23786e-73 -3.32602e-72)
(-3.2747e-74 -3.45474e-75 -1.5909e-74)
(-1.56183e-76 -1.64425e-77 -7.58759e-77)
(-7.4285e-79 -7.80411e-80 -3.60887e-79)
(-3.52395e-81 -3.69437e-82 -1.71198e-81)
(-1.66748e-83 -1.74446e-84 -8.10087e-84)
(-6.3585e-64 -7.12928e-65 -3.08905e-64)
(-3.14281e-66 -3.52009e-67 -1.52682e-66)
(-1.54727e-68 -1.73119e-69 -7.51684e-69)
(-7.58896e-71 -8.48216e-72 -3.68682e-71)
(-3.70895e-73 -4.14114e-74 -1.80186e-73)
(-1.80654e-75 -2.01494e-76 -8.77643e-76)
(-8.77085e-78 -9.77237e-79 -4.26101e-78)
(-4.2452e-80 -4.72498e-81 -2.06238e-80)
(-2.0487e-82 -2.27784e-83 -9.95285e-83)
(-9.85886e-85 -1.09501e-85 -4.78957e-85)
(-1.65619e-65 -1.88842e-66 -8.046e-66)
(-8.34799e-68 -9.51191e-69 -4.05557e-68)
(-4.18959e-70 -4.77038e-71 -2.03536e-70)
(-2.09397e-72 -2.38259e-73 -1.01728e-72)
(-1.04248e-74 -1.18534e-75 -5.06454e-75)
(-5.17068e-77 -5.87514e-78 -2.51199e-77)
(-2.55552e-79 -2.90166e-80 -1.24151e-79)
(-1.25874e-81 -1.42823e-82 -6.11514e-82)
(-6.17992e-84 -7.00716e-85 -3.00229e-84)
(-3.02462e-86 -3.42709e-87 -1.4694e-86)
(-2.94613e-67 -3.38759e-68 -1.43127e-67)
(-1.51392e-69 -1.73986e-70 -7.35484e-70)
(-7.74305e-72 -8.89396e-73 -3.76168e-72)
(-3.94255e-74 -4.52619e-75 -1.91535e-74)
(-1.99891e-76 -2.29362e-77 -9.71099e-77)
(-1.00936e-78 -1.15756e-79 -4.90361e-79)
(-5.07708e-81 -5.81951e-82 -2.46652e-81)
(-2.54434e-83 -2.91487e-84 -1.23608e-83)
(-1.27056e-85 -1.45483e-86 -6.17257e-86)
(-6.32316e-88 -7.2364e-89 -3.07188e-88)
(-6.39492e-65 -6.80318e-66 -3.08133e-65)
(-3.16265e-67 -3.35751e-68 -1.52365e-67)
(-1.55794e-69 -1.65047e-70 -7.50434e-70)
(-7.6458e-72 -8.0829e-73 -3.68225e-72)
(-3.73892e-74 -3.94439e-75 -1.80039e-74)
(-1.82221e-76 -1.91832e-77 -8.77296e-77)
(-8.85214e-79 -9.2995e-80 -4.26113e-79)
(-4.28707e-81 -4.49429e-82 -2.06332e-81)
(-2.07012e-83 -2.16564e-84 -9.96163e-84)
(-9.96787e-86 -1.04059e-86 -4.79585e-86)
(-3.27446e-66 -3.6675e-67 -1.57751e-66)
(-1.65088e-68 -1.8471e-69 -7.95204e-69)
(-8.28722e-71 -9.2625e-72 -3.99117e-71)
(-4.14298e-73 -4.62569e-74 -1.99496e-73)
(-2.06308e-75 -2.30104e-76 -9.93265e-76)
(-1.02352e-77 -1.14038e-78 -4.92693e-78)
(-5.05982e-80 -5.6316e-81 -2.43524e-80)
(-2.49286e-82 -2.77165e-83 -1.19959e-82)
(-1.22419e-84 -1.35967e-85 -5.88998e-85)
(-5.99297e-87 -6.64924e-88 -2.88294e-87)
(-8.69967e-68 -9.91254e-69 -4.1905e-68)
(-4.47115e-70 -5.09094e-71 -2.15333e-70)
(-2.28715e-72 -2.60237e-73 -1.10132e-72)
(-1.16473e-74 -1.32433e-75 -5.60757e-75)
(-5.90619e-77 -6.71081e-78 -2.84306e-77)
(-2.98282e-79 -3.3868e-80 -1.4356e-79)
(-1.50059e-81 -1.70264e-82 -7.22102e-82)
(-7.52125e-84 -8.52797e-85 -3.61872e-84)
(-3.75646e-86 -4.25629e-87 -1.80706e-86)
(-1.86976e-88 -2.11706e-89 -8.99307e-89)
(-1.57805e-69 -1.81355e-70 -7.59997e-70)
(-8.26524e-72 -9.49371e-73 -3.97993e-72)
(-4.30719e-74 -4.94478e-75 -2.07369e-74)
(-2.23379e-76 -2.5631e-77 -1.07528e-76)
(-1.15318e-78 -1.32249e-79 -5.55014e-79)
(-5.92722e-81 -6.79391e-82 -2.85224e-81)
(-3.03381e-83 -3.4756e-84 -1.45967e-83)
(-1.54664e-85 -1.77094e-86 -7.44018e-86)
(-7.85468e-88 -8.98905e-89 -3.7779e-88)
(-3.97433e-90 -4.54591e-91 -1.91124e-90)
)
;

boundaryField
{
    inlet
    {
        type            zeroGradient;
    }
    outlet
    {
        type            zeroGradient;
    }
    bottom
    {
        type            zeroGradient;
    }
    top
    {
        type            symmetryPlane;
    }
    side1
    {
        type            symmetryPlane;
    }
    side2
    {
        type            symmetryPlane;
    }
    procBoundary4to3
    {
        type            processor;
        value           nonuniform List<vector> 
20
(
(-3.24798e-54 -3.49134e-55 -1.57792e-54)
(-1.50289e-55 -1.69203e-56 -7.30126e-56)
(-3.60988e-57 -4.1274e-58 -1.75373e-57)
(-5.92953e-59 -6.8321e-60 -2.88065e-59)
(-5.95844e-56 -6.39149e-57 -2.8947e-56)
(-2.81656e-57 -3.16771e-58 -1.36832e-57)
(-6.91033e-59 -7.89549e-60 -3.35714e-59)
(-1.15899e-60 -1.33471e-61 -5.63054e-61)
(-5.62122e-58 -6.01707e-59 -2.73087e-58)
(-2.71356e-59 -3.04866e-60 -1.31829e-59)
(-6.79821e-61 -7.76193e-62 -3.30267e-61)
(-1.16385e-62 -1.3396e-63 -5.65416e-63)
(-3.61808e-60 -3.86471e-61 -1.75772e-60)
(-1.78289e-61 -2.00095e-62 -8.66154e-62)
(-4.55911e-63 -5.20175e-64 -2.21488e-63)
(-7.9641e-65 -9.16191e-66 -3.86907e-65)
(-1.79219e-62 -1.9103e-63 -8.63681e-63)
(-9.01195e-64 -1.01035e-64 -4.34229e-64)
(-2.35142e-65 -2.68098e-66 -1.13282e-65)
(-4.18994e-67 -4.81756e-68 -2.0182e-67)
)
;
    }
    procBoundary4to5
    {
        type            processor;
        value           nonuniform List<vector> 
20
(
(-2.05091e-80 -2.15534e-81 -9.96361e-81)
(-1.16876e-81 -1.30107e-82 -5.67802e-82)
(-3.45589e-83 -3.92167e-84 -1.67892e-83)
(-6.96664e-85 -7.98183e-86 -3.38449e-85)
(-4.64957e-82 -4.8761e-83 -2.25883e-82)
(-2.69562e-83 -2.99763e-84 -1.30957e-83)
(-8.10904e-85 -9.19554e-86 -3.93949e-85)
(-1.6627e-86 -1.904e-87 -8.07763e-87)
(-5.40613e-84 -5.65756e-85 -2.62637e-84)
(-3.18799e-85 -3.54143e-86 -1.54877e-85)
(-9.75507e-87 -1.10543e-87 -4.73915e-87)
(-2.03417e-88 -2.32815e-89 -9.88229e-89)
(-4.27298e-86 -4.46227e-87 -2.07588e-86)
(-2.56229e-87 -2.84335e-88 -1.2448e-87)
(-7.97317e-89 -9.02874e-90 -3.87348e-89)
(-1.69041e-90 -1.93368e-91 -8.21224e-91)
(-2.59185e-88 -2.70092e-89 -1.24685e-88)
(-1.58011e-89 -1.75157e-90 -7.6001e-90)
(-4.99915e-91 -5.65697e-92 -2.40413e-91)
(-1.07741e-92 -1.23181e-93 -5.18049e-93)
)
;
    }
    procBoundary4to12
    {
        type            processor;
        value           nonuniform List<vector> 
50
(
(-6.7081e-64 -7.76667e-65 -3.25889e-64)
(-3.24826e-66 -3.75919e-67 -1.57805e-66)
(-1.59844e-68 -1.84886e-69 -7.76546e-69)
(-7.95951e-71 -9.20085e-72 -3.86684e-71)
(-3.99482e-73 -4.61483e-74 -1.94074e-73)
(-2.01403e-75 -2.32506e-76 -9.78444e-76)
(-1.01725e-77 -1.17357e-78 -4.94197e-78)
(-5.13703e-80 -5.92255e-81 -2.49564e-80)
(-2.5899e-82 -2.98403e-83 -1.25821e-82)
(-1.30225e-84 -1.49951e-85 -6.32653e-85)
(-1.35073e-65 -1.56323e-66 -6.56202e-66)
(-6.67068e-68 -7.71676e-69 -3.24071e-68)
(-3.3472e-70 -3.86998e-71 -1.62611e-70)
(-1.69914e-72 -1.96331e-73 -8.25467e-73)
(-8.69112e-75 -1.00357e-75 -4.22227e-75)
(-4.4642e-77 -5.1514e-78 -2.16877e-77)
(-2.29648e-79 -2.64822e-80 -1.11566e-79)
(-1.18074e-81 -1.36069e-82 -5.73622e-82)
(-6.05883e-84 -6.97774e-85 -2.94347e-84)
(-3.09969e-86 -3.5676e-87 -1.50588e-86)
(-1.39687e-67 -1.61597e-68 -6.78618e-68)
(-7.03392e-70 -8.13359e-71 -3.41718e-70)
(-3.59804e-72 -4.15826e-73 -1.74798e-72)
(-1.86153e-74 -2.15004e-75 -9.0436e-75)
(-9.7019e-77 -1.11981e-77 -4.71332e-77)
(-5.07614e-79 -5.85499e-80 -2.46606e-79)
(-2.65904e-81 -3.06495e-82 -1.2918e-81)
(-1.3917e-83 -1.60308e-84 -6.76107e-84)
(-7.26717e-86 -8.36558e-87 -3.53049e-86)
(-3.78218e-88 -4.35114e-89 -1.83744e-88)
(-9.83945e-70 -1.13781e-70 -4.78014e-70)
(-5.05013e-72 -5.83724e-73 -2.45342e-72)
(-2.63259e-74 -3.04122e-75 -1.27895e-74)
(-1.38773e-76 -1.60212e-77 -6.74179e-77)
(-7.36708e-79 -8.49954e-80 -3.57903e-79)
(-3.9251e-81 -4.52537e-82 -1.90687e-81)
(-2.09308e-83 -2.41153e-84 -1.01685e-83)
(-1.11485e-85 -1.28361e-86 -5.41609e-86)
(-5.92253e-88 -6.81463e-89 -2.87725e-88)
(-3.13488e-90 -3.60482e-91 -1.52297e-90)
(-5.32689e-72 -6.1573e-73 -2.56522e-72)
(-2.78597e-74 -3.21885e-75 -1.3414e-74)
(-1.47965e-76 -1.70859e-77 -7.12306e-77)
(-7.94492e-79 -9.16843e-80 -3.82407e-79)
(-4.29517e-81 -4.95328e-82 -2.06702e-81)
(-2.32979e-83 -2.68491e-84 -1.12101e-83)
(-1.26446e-85 -1.45619e-86 -6.08309e-86)
(-6.85258e-88 -7.88634e-89 -3.2961e-88)
(-3.70282e-90 -4.25864e-91 -1.78077e-90)
(-1.99298e-92 -2.29069e-93 -9.58305e-93)
)
;
    }
}


// ************************************************************************* //
