/*--------------------------------*- C++ -*----------------------------------*\
| =========                 |                                                 |
| \\      /  F ield         | OpenFOAM: The Open Source CFD Toolbox           |
|  \\    /   O peration     | Version:  2.4.0                                 |
|   \\  /    A nd           | Web:      www.OpenFOAM.org                      |
|    \\/     M anipulation  |                                                 |
\*---------------------------------------------------------------------------*/
FoamFile
{
    version     2.0;
    format      ascii;
    class       volSymmTensorField;
    location    "0.16";
    object      B;
}
// * * * * * * * * * * * * * * * * * * * * * * * * * * * * * * * * * * * * * //

dimensions      [0 2 -2 0 0 0 0];

internalField   nonuniform List<symmTensor> 
200
(
(5.18539e+29 -2.7535e+27 -1.20071e+29 5.73428e+29 -9.06098e+28 7.63594e+29)
(3.70736e+29 3.35484e+26 -8.77606e+28 4.0185e+29 3.64004e+28 5.10381e+29)
(5.72815e+29 2.20753e+28 -2.51779e+29 6.5012e+29 -1.30894e+29 9.15457e+29)
(1.15178e+29 -1.13856e+27 -1.354e+29 3.11433e+29 9.32109e+28 4.57134e+29)
(1.85257e+30 4.47505e+28 -4.80847e+29 1.89473e+30 -2.51764e+29 2.12474e+30)
(8.47594e+28 1.2204e+29 3.56125e+29 1.08871e+30 9.45689e+29 9.22054e+29)
(2.74823e+30 4.06947e+28 -1.77037e+29 3.00374e+30 -1.30127e+29 3.06448e+30)
(1.0607e+31 -2.70129e+29 -2.06293e+30 1.01129e+31 1.35907e+28 9.85854e+30)
(8.38267e+29 7.41e+28 -8.84665e+28 7.26275e+29 6.29896e+28 4.19881e+29)
(3.97527e+30 -1.00244e+29 -1.1494e+30 3.32006e+30 -1.3485e+29 2.19207e+30)
(3.83103e+29 -8.68674e+27 -8.94371e+28 4.06617e+29 -5.64554e+28 5.04879e+29)
(3.63698e+29 -1.21981e+28 -1.64971e+29 4.46918e+29 -1.85844e+27 5.68603e+29)
(1.79722e+29 3.12955e+28 -9.83586e+28 2.99299e+29 -4.51215e+28 3.56922e+29)
(1.28534e+30 2.99252e+28 -3.46998e+29 1.37524e+30 3.79104e+28 1.48609e+30)
(-5.0127e+28 4.59611e+29 4.7638e+29 3.33171e+29 -2.72914e+29 6.09101e+29)
(1.57633e+30 -2.90017e+28 -1.68624e+29 1.92193e+30 6.7367e+28 2.06213e+30)
(8.84725e+30 -1.5671e+29 -1.10939e+30 8.64518e+30 -3.40513e+29 8.87395e+30)
(9.14205e+29 4.78015e+28 -9.10479e+28 9.19719e+29 2.10784e+28 7.89318e+29)
(1.11444e+30 4.405e+28 -5.44099e+29 1.11613e+30 1.60264e+29 5.62447e+29)
(2.7111e+29 4.0731e+28 -6.38082e+28 2.4718e+29 1.45592e+28 1.03157e+29)
(3.47659e+29 8.54319e+27 -9.27988e+28 5.25733e+29 3.02265e+27 4.7235e+29)
(2.5393e+29 3.25431e+28 -7.88239e+28 2.75482e+29 -5.98652e+28 3.23701e+29)
(2.52848e+29 3.41764e+28 -1.53568e+29 4.16721e+29 3.57523e+27 3.48621e+29)
(4.74195e+29 5.4867e+27 -3.08617e+29 7.20942e+29 -4.97361e+28 6.34338e+29)
(1.08814e+30 -1.05248e+28 -1.99201e+29 1.26355e+30 5.06034e+28 1.24116e+30)
(1.39077e+30 3.28985e+28 -3.05358e+29 1.30911e+30 -2.15914e+29 1.52171e+30)
(7.37239e+29 7.75815e+28 -1.86597e+29 8.41044e+29 2.92872e+28 7.1866e+29)
(9.00552e+29 6.5506e+28 -3.89172e+29 1.09107e+30 1.56706e+29 8.81708e+29)
(6.19044e+29 3.4764e+28 -1.72726e+29 6.66391e+29 2.78842e+28 5.32099e+29)
(1.46371e+30 -2.40698e+27 -5.9164e+29 1.56771e+30 2.2481e+29 1.02926e+30)
(2.78169e+29 -1.75079e+28 -7.55518e+28 3.7364e+29 -1.86501e+26 3.40707e+29)
(5.13394e+29 -9.98201e+27 -1.38301e+29 7.2269e+29 2.33315e+27 6.1744e+29)
(1.56408e+29 9.79464e+28 -5.54479e+28 1.37075e+29 -4.22694e+28 1.74781e+29)
(4.40996e+29 9.6057e+28 -1.71567e+29 6.33174e+29 4.76462e+28 6.44179e+29)
(8.75356e+29 -1.50935e+28 -2.23866e+29 9.77257e+29 3.88362e+28 9.62134e+29)
(7.84686e+29 1.13715e+28 -1.99942e+29 9.09898e+29 1.90225e+28 8.08351e+29)
(3.85321e+29 3.71742e+28 -2.19801e+29 4.85169e+29 4.71439e+28 2.9747e+29)
(4.61971e+29 6.16786e+28 -2.1889e+29 5.21066e+29 4.97859e+28 3.1605e+29)
(7.65405e+29 6.63041e+28 -4.09165e+29 8.7755e+29 1.87468e+29 6.28819e+29)
(6.16097e+29 1.89522e+28 -1.79202e+29 6.53991e+29 2.9116e+28 4.50265e+29)
(2.24664e+29 2.71877e+27 2.2688e+28 2.54952e+29 1.53184e+28 2.78657e+29)
(4.6756e+29 -8.50536e+27 4.92403e+28 5.91577e+29 -7.12848e+28 7.12258e+29)
(5.50925e+29 -2.76016e+27 1.36221e+28 6.75605e+29 2.74062e+28 8.1105e+29)
(1.13674e+30 1.89574e+28 -2.24805e+28 1.45456e+30 -1.00594e+29 1.73269e+30)
(1.2499e+30 1.56332e+28 -7.18173e+28 1.43887e+30 4.53084e+28 1.54002e+30)
(2.44679e+30 3.19072e+28 -2.48651e+29 2.75075e+30 -4.83448e+28 2.90643e+30)
(4.66491e+30 1.37172e+29 -9.1159e+29 4.66608e+30 1.75435e+29 3.90593e+30)
(4.27627e+30 -9.87739e+26 -4.73765e+29 4.27103e+30 1.65763e+28 3.87589e+30)
(6.24978e+30 -7.40704e+28 -2.54327e+30 7.57998e+30 2.46191e+29 6.75131e+30)
(5.19932e+30 3.71142e+29 -1.33882e+29 6.10954e+30 7.6261e+29 6.21217e+30)
(1.90277e+29 -1.90639e+28 4.04161e+28 2.93809e+29 -2.35381e+28 3.65638e+29)
(5.66047e+29 -1.68277e+28 3.48872e+27 6.53115e+29 -3.74679e+28 7.91955e+29)
(4.56817e+29 1.38106e+28 3.73474e+28 5.60506e+29 -5.39727e+28 7.1784e+29)
(1.0409e+30 1.47954e+28 1.14908e+28 1.08237e+30 -4.13175e+28 1.20665e+30)
(1.2824e+30 2.0636e+28 -6.51766e+28 1.47739e+30 2.90465e+28 1.63168e+30)
(3.052e+29 1.46339e+29 -1.46301e+29 4.90217e+29 2.90544e+28 4.7424e+29)
(1.88106e+30 5.72467e+28 -2.59841e+29 2.00528e+30 1.26902e+29 2.12428e+30)
(6.88842e+30 -1.55318e+29 -1.67495e+30 7.09308e+30 3.88859e+29 7.24653e+30)
(2.28285e+30 6.54559e+28 -1.69899e+29 2.22165e+30 2.0513e+29 1.87633e+30)
(7.69517e+30 2.2047e+29 -1.85919e+30 8.22498e+30 1.09659e+30 8.02344e+30)
(2.47143e+29 1.1446e+26 3.11617e+28 2.90238e+29 -3.74892e+28 3.38256e+29)
(1.03876e+29 -4.16615e+28 -3.11111e+28 2.06448e+29 -2.15961e+28 2.63739e+29)
(3.12263e+29 -4.03449e+28 -9.24007e+28 5.48768e+29 -6.80058e+28 7.34223e+29)
(9.67029e+29 3.29694e+28 1.16156e+29 1.09354e+30 -1.69876e+28 1.13795e+30)
(1.44862e+30 1.57106e+29 1.88781e+29 1.50634e+30 -7.78334e+28 1.78038e+30)
(4.48723e+29 4.33504e+28 -1.09436e+29 5.03173e+29 1.58225e+28 6.57111e+29)
(2.27192e+30 -1.57504e+28 -3.74039e+29 2.07509e+30 -9.96895e+28 2.6225e+30)
(6.96095e+29 3.7956e+28 -6.07803e+28 7.56024e+29 3.59069e+28 7.73835e+29)
(2.91353e+30 -4.20733e+27 -5.57417e+29 2.98263e+30 5.20054e+29 3.09197e+30)
(9.62754e+29 -1.79998e+28 -1.38262e+29 8.92362e+29 1.3089e+29 8.45479e+29)
(2.85461e+29 -3.54457e+27 2.15667e+28 3.61947e+29 -2.06676e+28 3.38756e+29)
(1.59834e+29 1.12419e+28 1.90646e+28 1.6279e+29 -1.57174e+28 2.04003e+29)
(9.37051e+28 2.17049e+28 2.79912e+28 1.72583e+29 1.04587e+28 1.9796e+29)
(1.64542e+29 1.84841e+28 -5.27238e+27 2.93221e+29 -7.95529e+26 2.91162e+29)
(2.16288e+29 -1.2355e+28 -1.10862e+28 2.80767e+29 -3.22302e+28 2.96341e+29)
(7.04716e+29 4.13154e+26 -1.46167e+29 7.60006e+29 -2.4473e+28 7.38251e+29)
(1.56832e+30 8.51853e+28 -1.89941e+29 1.58111e+30 -2.24798e+28 1.74816e+30)
(8.43393e+30 1.01336e+29 -6.56009e+28 8.4555e+30 -4.65412e+28 9.08104e+30)
(1.86796e+30 4.67166e+26 -1.9784e+29 1.95178e+30 -4.36364e+28 2.04235e+30)
(4.46221e+30 2.50554e+28 -3.71777e+29 4.59627e+30 2.83315e+29 4.89269e+30)
(1.10863e+30 3.76013e+28 2.70582e+29 1.12812e+30 -9.97776e+28 1.3345e+30)
(2.05634e+30 -1.31381e+28 4.61993e+29 2.26747e+30 1.32679e+29 2.72342e+30)
(2.71731e+30 8.81123e+28 7.4942e+29 3.2289e+30 -2.99995e+29 3.86075e+30)
(2.99203e+30 -4.27805e+28 4.28195e+29 3.78903e+30 7.04497e+28 4.62026e+30)
(7.88554e+30 2.5537e+29 2.62513e+29 9.49726e+30 -3.48615e+29 1.09309e+31)
(7.16839e+30 -2.30394e+29 -9.47771e+29 1.1162e+31 -8.88814e+29 1.29915e+31)
(1.2193e+32 1.29682e+30 -3.11611e+30 1.2676e+32 2.17951e+30 1.3625e+32)
(5.14386e+31 7.15129e+28 -4.6612e+30 5.90019e+31 6.11004e+29 6.32902e+31)
(1.83792e+32 1.6328e+31 2.00664e+31 1.77035e+32 -8.45326e+30 1.88331e+32)
(2.14224e+32 -7.7067e+30 -1.42408e+31 2.07123e+32 1.29243e+30 1.385e+32)
(1.55973e+30 1.25741e+28 3.00882e+29 1.53661e+30 -8.03439e+28 1.82451e+30)
(1.06519e+30 6.08738e+27 2.66175e+29 1.32515e+30 -1.04161e+29 1.47712e+30)
(2.07568e+30 3.04061e+28 4.92142e+29 2.58361e+30 -2.19505e+29 3.2614e+30)
(2.12783e+30 8.93003e+28 4.70086e+29 2.74376e+30 -3.14287e+29 3.27805e+30)
(3.02757e+30 3.20311e+29 2.10532e+29 4.03729e+30 -3.94372e+29 5.27482e+30)
(9.16378e+30 6.76717e+29 4.51264e+27 1.07049e+31 -3.19165e+29 1.24552e+31)
(9.89344e+30 1.78667e+30 -2.29694e+30 1.53071e+31 -5.41164e+29 1.67543e+31)
(1.74594e+32 2.31834e+30 -2.84785e+30 1.79084e+32 3.05323e+30 1.89184e+32)
(5.44891e+31 4.89034e+30 -4.02123e+30 6.55958e+31 1.47841e+30 6.80548e+31)
(2.25301e+32 5.79248e+30 2.97044e+31 2.02009e+32 -9.13679e+30 2.1554e+32)
(6.16695e+29 -3.76419e+28 1.50908e+29 7.76084e+29 -7.95311e+28 7.91942e+29)
(2.14016e+30 3.65705e+28 3.87126e+29 2.2078e+30 -2.90141e+29 2.59599e+30)
(1.98962e+30 -4.96645e+28 2.94967e+29 2.10526e+30 -1.97501e+29 2.35077e+30)
(2.82389e+30 2.47862e+28 2.75932e+29 3.24689e+30 -3.91406e+29 3.95239e+30)
(1.13815e+30 1.37181e+29 3.86805e+29 1.96091e+30 -4.85112e+29 2.3148e+30)
(5.17157e+30 5.64161e+29 3.21739e+29 6.06081e+30 -9.36478e+29 7.28684e+30)
(7.92694e+30 8.0938e+29 7.17983e+28 8.26357e+30 -1.75306e+29 9.95586e+30)
(1.02992e+31 2.78923e+30 -1.69392e+30 1.0662e+31 8.94909e+29 1.55068e+31)
(7.35075e+31 1.80493e+30 -9.91397e+29 7.35122e+31 1.87314e+30 8.13329e+31)
(3.84769e+31 3.39572e+30 -3.78094e+30 3.72576e+31 2.06701e+30 4.27069e+31)
(6.57283e+29 -2.392e+28 1.24761e+29 7.66305e+29 -9.88343e+28 9.28675e+29)
(5.98816e+29 -3.50508e+28 1.17153e+29 6.59388e+29 -7.83326e+28 6.61125e+29)
(1.34285e+30 1.30628e+28 2.4166e+29 1.48732e+30 -2.85038e+29 1.82354e+30)
(5.14264e+29 2.4335e+28 2.049e+29 1.08647e+30 -2.07318e+29 1.09948e+30)
(1.50549e+30 2.80612e+29 -1.40011e+29 2.37867e+30 -5.08046e+29 3.03735e+30)
(1.83917e+30 -7.00145e+28 3.53974e+29 2.29567e+30 -3.22532e+29 2.54662e+30)
(2.75904e+31 -5.16106e+29 1.60997e+30 2.80443e+31 -5.15659e+29 2.89239e+31)
(3.94378e+30 -2.25836e+29 5.10735e+28 5.53875e+30 -2.51288e+29 6.28896e+30)
(1.02732e+31 1.99998e+30 -1.95095e+30 1.10977e+31 5.09296e+29 1.36768e+31)
(5.1677e+31 1.58438e+30 -9.14001e+29 4.95412e+31 3.99769e+29 5.2428e+31)
(4.03157e+30 -1.97728e+29 9.586e+29 3.41635e+30 1.99393e+29 3.78485e+30)
(6.22593e+30 -8.94038e+28 1.30397e+30 5.34048e+30 -4.96435e+29 5.64554e+30)
(6.38115e+30 -4.44588e+29 2.00905e+30 5.65821e+30 8.03749e+28 6.68876e+30)
(1.73735e+31 -1.37731e+29 3.27137e+30 1.73286e+31 -7.7674e+29 1.91605e+31)
(2.91453e+31 -4.31289e+30 3.92716e+30 2.95482e+31 -2.35903e+30 3.26317e+31)
(4.02796e+32 1.03348e+31 2.28809e+31 3.97784e+32 2.86548e+30 4.19459e+32)
(1.39799e+32 1.53581e+30 9.83397e+30 1.65681e+32 -7.94747e+30 1.6862e+32)
(3.50196e+32 -3.96567e+31 5.83922e+30 3.40245e+32 -1.74517e+31 3.57188e+32)
(9.60159e+32 7.31319e+30 -1.07539e+32 8.45469e+32 4.31736e+31 4.91353e+32)
(2.87107e+32 5.08892e+31 1.18433e+31 2.90812e+32 8.45077e+31 2.78726e+32)
(1.94566e+30 -1.20513e+29 4.2967e+29 1.69536e+30 -1.63711e+29 1.64954e+30)
(3.83929e+30 -3.64407e+29 8.96335e+29 3.31563e+30 -3.40463e+29 3.59664e+30)
(6.11524e+30 -4.51876e+29 1.12562e+30 5.6885e+30 -4.96592e+29 5.85857e+30)
(5.41414e+30 -2.80163e+29 1.96958e+30 5.67014e+30 -8.72363e+29 6.33329e+30)
(2.2066e+31 1.538e+29 3.58575e+30 2.36018e+31 -1.79806e+30 2.52045e+31)
(3.23203e+31 -2.35501e+30 2.66764e+30 4.35833e+31 -3.50864e+30 4.17904e+31)
(5.87087e+32 8.95813e+30 2.7823e+31 5.74997e+32 -8.71826e+30 6.05671e+32)
(8.76907e+31 9.40832e+30 7.74557e+30 1.0172e+32 -6.71768e+30 1.11117e+32)
(5.68053e+32 -8.03202e+31 -2.79444e+31 5.95812e+32 -3.6799e+31 5.75802e+32)
(1.21354e+33 2.18181e+31 -1.12776e+32 1.12169e+33 9.46481e+31 8.05533e+32)
(1.88325e+30 -2.18151e+29 4.4021e+29 1.68925e+30 -2.26557e+29 1.93009e+30)
(2.20652e+30 -2.12863e+29 4.49338e+29 2.05905e+30 -2.80225e+29 2.06225e+30)
(3.82511e+30 -3.78639e+29 7.89386e+29 3.75469e+30 -5.4305e+29 3.96767e+30)
(4.57056e+30 -3.88952e+29 8.23149e+29 4.76554e+30 -6.24413e+29 4.76263e+30)
(6.47642e+30 -2.30885e+29 1.76285e+30 7.10207e+30 -1.28015e+30 7.91537e+30)
(2.21393e+31 3.73961e+28 2.48471e+30 2.30682e+31 -1.87021e+30 2.44857e+31)
(2.01835e+31 -9.09364e+29 1.50947e+30 2.84046e+31 -3.37908e+30 2.95508e+31)
(7.79811e+32 4.1997e+30 1.99162e+31 7.737e+32 -1.19981e+31 8.0846e+32)
(7.24528e+31 1.09993e+31 1.9037e+30 8.25682e+31 -6.14586e+30 9.06511e+31)
(3.95673e+32 -3.10734e+31 -2.08327e+31 3.88657e+32 -3.56373e+31 3.82355e+32)
(8.45749e+29 -1.11192e+29 2.1026e+29 8.20902e+29 -1.33629e+29 7.74341e+29)
(1.60369e+30 -2.43894e+29 3.83006e+29 1.57264e+30 -2.68741e+29 1.80827e+30)
(1.48549e+30 -2.17924e+29 3.69721e+29 1.55864e+30 -3.01315e+29 1.48707e+30)
(3.04302e+30 -2.87608e+29 6.46945e+29 3.28497e+30 -5.88314e+29 3.55028e+30)
(3.77817e+30 -3.05514e+29 6.84249e+29 4.39817e+30 -6.26622e+29 4.29696e+30)
(9.14234e+30 -2.42543e+29 1.43649e+30 9.99002e+30 -1.41248e+30 1.11685e+31)
(1.215e+31 -1.81726e+29 1.38316e+30 1.35732e+31 -1.96647e+30 1.40938e+31)
(8.42286e+30 2.41396e+30 7.5951e+28 1.61193e+31 -2.23323e+30 1.40188e+31)
(1.69221e+32 4.08478e+30 6.73666e+30 1.68219e+32 -6.99611e+30 1.80929e+32)
(4.11287e+31 7.46657e+30 1.51354e+30 4.26716e+31 -3.50042e+30 4.8705e+31)
(7.57824e+30 -6.79742e+28 5.036e+29 6.27191e+30 -1.85412e+29 6.05259e+30)
(1.76743e+31 -6.48917e+29 1.22748e+30 1.38794e+31 7.59401e+28 1.35821e+31)
(2.9738e+31 -7.776e+29 3.17973e+30 2.41076e+31 -5.7056e+29 2.34593e+31)
(9.39449e+31 -9.15015e+30 5.49124e+30 7.90809e+31 -1.2052e+30 7.65536e+31)
(8.18535e+32 1.12015e+31 2.83307e+31 7.62081e+32 -3.33818e+30 7.66669e+32)
(1.83162e+32 -1.11834e+31 2.51752e+31 1.58655e+32 -6.5749e+30 1.294e+32)
(1.36205e+33 -2.14433e+32 -4.81395e+31 1.11119e+33 1.66393e+31 1.02305e+33)
(1.39767e+34 1.14798e+32 -6.66257e+32 1.35746e+34 -3.14123e+31 1.36971e+34)
(1.06953e+34 9.03638e+31 7.13905e+31 1.1229e+34 9.16492e+32 1.21048e+34)
(6.78338e+33 -4.48589e+32 4.01384e+33 9.79325e+33 -3.32699e+33 9.77963e+33)
(6.71427e+30 -6.49306e+29 5.29543e+29 5.17346e+30 -2.41997e+29 4.96361e+30)
(9.44622e+30 -6.40478e+29 6.46596e+29 7.97425e+30 -1.6653e+29 7.4567e+30)
(1.79496e+31 -1.69711e+30 1.50202e+30 1.43391e+31 -6.72584e+29 1.32949e+31)
(3.33006e+31 -2.59497e+30 4.22881e+30 2.85135e+31 -1.57482e+30 2.64519e+31)
(1.06591e+32 -1.39685e+31 6.106e+30 1.08393e+32 -2.84562e+30 9.51728e+31)
(1.13181e+33 -7.95366e+30 3.21199e+31 1.06703e+33 -1.57298e+31 1.0747e+33)
(1.34965e+32 -1.64367e+31 2.48335e+31 1.11872e+32 -3.17764e+30 8.6622e+31)
(1.64029e+33 -3.20794e+32 -1.38412e+32 1.73412e+33 8.56895e+31 1.36537e+33)
(1.68108e+34 8.00977e+31 -5.4988e+32 1.64804e+34 2.56723e+32 1.66007e+34)
(4.8134e+33 2.97485e+32 1.55624e+32 5.25752e+33 1.21979e+32 6.38578e+33)
(2.41207e+30 -1.92184e+29 1.40781e+29 2.16627e+30 -2.27389e+28 1.97207e+30)
(5.8959e+30 -8.08431e+29 4.80004e+29 5.07847e+30 -3.35273e+29 4.55778e+30)
(8.02976e+30 -1.02705e+30 6.15264e+29 7.26432e+30 -3.01121e+29 6.26744e+30)
(1.72006e+31 -2.1237e+30 1.27027e+30 1.54882e+31 -8.25849e+29 1.38932e+31)
(3.12927e+31 -3.27892e+30 3.23785e+30 2.98074e+31 -1.92976e+30 2.70621e+31)
(5.71463e+31 -1.1985e+31 6.6775e+30 7.24702e+31 -3.47242e+30 5.84233e+31)
(2.45925e+33 -1.55696e+31 4.49789e+31 2.40253e+33 -1.81349e+31 2.39907e+33)
(1.12371e+32 -5.43326e+30 1.63102e+31 1.20408e+32 -5.97567e+30 7.23264e+31)
(1.14294e+33 -1.77274e+32 -2.35153e+32 1.43428e+33 1.01992e+31 1.13089e+33)
(9.12343e+33 3.3583e+31 -3.15596e+32 8.91226e+33 2.18866e+32 8.99582e+33)
(1.85261e+30 -3.46333e+29 1.4353e+29 1.64607e+30 -1.64641e+29 1.44416e+30)
(1.98051e+30 -2.58038e+29 1.29567e+29 1.96164e+30 -4.70392e+28 1.62049e+30)
(4.08122e+30 -6.45458e+29 3.38723e+29 3.94895e+30 -3.1469e+29 3.38438e+30)
(6.25506e+30 -1.00247e+30 4.62248e+29 6.52016e+30 -3.19632e+29 5.24556e+30)
(1.34563e+31 -1.84018e+30 9.69302e+29 1.3576e+31 -8.4027e+29 1.17746e+31)
(2.38052e+31 -3.76133e+30 2.48622e+30 2.62499e+31 -2.13395e+30 2.17804e+31)
(3.16288e+31 -1.7873e+30 3.04063e+30 4.52255e+31 -3.84896e+30 3.28269e+31)
(7.71818e+32 -1.27088e+31 1.90527e+31 7.5617e+32 -2.52572e+31 7.46047e+32)
(4.96441e+31 -6.92935e+29 7.68758e+30 5.90995e+31 -3.9979e+30 3.7119e+31)
(5.13553e+32 -6.54106e+31 -5.4929e+31 6.14996e+32 2.41272e+30 4.97883e+32)
)
;

boundaryField
{
    inlet
    {
        type            calculated;
        value           nonuniform 0();
    }
    outlet
    {
        type            calculated;
        value           nonuniform 0();
    }
    bottom
    {
        type            calculated;
        value           nonuniform List<symmTensor> 
40
(
(-1.69659e+13 -5.2484e+11 -4.83812e+13 -6.50354e+12 -1.09477e+13 8.53146e+13)
(-1.64859e+13 -2.63628e+12 -5.13303e+13 -9.34983e+12 -2.9747e+13 -5.12403e+12)
(-2.33471e+13 2.11789e+12 -4.81574e+13 2.07982e+13 -2.33891e+12 1.29267e+13)
(-1.93802e+13 -6.12651e+12 -4.49872e+13 1.40278e+13 8.11903e+12 5.91772e+12)
(-1.91109e+13 1.03716e+11 -5.38367e+13 -9.49186e+12 9.70109e+11 -6.41537e+12)
(-1.11493e+13 -1.833e+12 -5.0909e+13 1.3561e+12 4.17643e+11 5.3113e+13)
(-6.54149e+12 7.87885e+12 -4.78041e+13 -1.32368e+12 -2.27389e+13 3.19132e+11)
(-2.31309e+13 -2.2963e+12 -6.14438e+13 2.50162e+13 -1.5326e+12 -1.43793e+13)
(-1.47469e+13 2.65988e+12 -6.03387e+13 -5.4324e+12 -8.98647e+12 7.58348e+13)
(-2.73317e+13 7.42977e+12 -4.81176e+13 1.05654e+12 -2.23886e+13 -6.36518e+12)
(-1.43738e+13 5.8068e+12 -5.19617e+13 1.34694e+13 9.18811e+12 3.51119e+13)
(6.69525e+11 1.5789e+13 -3.64589e+13 -2.44694e+12 -6.50681e+12 -4.29571e+12)
(-3.56082e+13 -1.87014e+11 -4.95333e+13 -3.37243e+12 5.17884e+12 -1.34495e+13)
(-3.40396e+12 3.69023e+12 -7.72759e+13 7.68218e+12 9.19445e+12 6.3565e+13)
(-2.65935e+13 8.34435e+11 -7.6682e+13 1.09326e+13 -6.92986e+12 2.48015e+12)
(-2.048e+13 1.57156e+13 -5.41368e+13 1.09615e+13 1.98126e+13 3.20224e+13)
(-1.06465e+11 4.27852e+12 -8.55618e+13 3.92416e+12 -1.48583e+13 1.00156e+14)
(-2.72867e+13 2.61995e+13 5.94226e+12 -5.4373e+12 -2.49501e+13 -3.08177e+13)
(-1.47882e+13 -2.07897e+12 -7.157e+13 1.98613e+13 1.12457e+13 7.56131e+12)
(-1.83826e+13 -3.63832e+12 -8.57667e+13 6.18091e+12 2.05776e+13 2.71215e+12)
(-3.80411e+13 6.18397e+12 -1.03361e+12 1.28306e+13 3.09247e+13 -2.79036e+13)
(-6.04201e+13 -6.48206e+12 -7.76648e+13 1.68239e+13 3.86066e+13 2.14485e+14)
(-5.76507e+12 5.69405e+12 -8.69555e+13 -1.98977e+13 -4.19893e+13 -2.82727e+12)
(-6.49687e+12 2.25929e+12 -7.12762e+13 1.83803e+13 1.06265e+13 -1.28454e+13)
(-6.55318e+13 1.36136e+13 -1.0914e+14 1.99449e+13 -2.02231e+13 2.45892e+14)
(5.2113e+12 -2.14622e+13 -1.99475e+14 -2.24636e+13 -6.04374e+13 -1.36069e+13)
(-5.20326e+12 1.62488e+13 -7.11e+13 1.65379e+13 5.43754e+12 -2.25663e+13)
(-4.75044e+12 6.03954e+12 -6.9653e+13 1.14714e+13 1.79735e+13 -4.40577e+12)
(2.96191e+13 -2.26272e+13 -2.27175e+14 -1.17672e+13 -8.59317e+12 -4.18651e+13)
(1.35174e+13 2.05066e+13 -7.45616e+13 1.58829e+13 2.93494e+11 -5.37318e+13)
(-6.7196e+12 7.69825e+12 -8.22972e+13 1.56704e+13 2.29246e+13 2.04828e+12)
(-2.92411e+12 1.15925e+13 -7.20147e+13 8.18274e+12 1.18487e+13 -7.27772e+12)
(2.99639e+13 1.89158e+13 -6.25182e+13 1.3752e+12 8.80596e+12 -7.13308e+13)
(1.13424e+13 4.14811e+12 -9.01959e+13 1.15017e+13 1.55056e+13 3.21913e+12)
(-3.66519e+11 8.56714e+12 -7.5798e+13 1.13015e+13 6.43985e+12 -3.29181e+13)
(-2.71468e+12 7.37039e+12 -7.82118e+13 9.75138e+12 3.15966e+13 -5.94735e+12)
(5.18966e+13 -6.76841e+12 -1.08543e+14 7.6576e+12 -9.11373e+10 1.44492e+13)
(1.01392e+13 1.37807e+13 -5.6395e+13 2.04283e+12 -8.95519e+12 -6.98714e+13)
(9.62924e+12 -2.14331e+11 -8.8313e+13 1.88902e+13 2.95932e+13 5.67818e+12)
(1.37884e+12 4.86154e+12 -7.56187e+13 1.10992e+13 1.57796e+13 -1.8538e+13)
)
;
    }
    top
    {
        type            symmetryPlane;
    }
    side1
    {
        type            symmetryPlane;
    }
    side2
    {
        type            symmetryPlane;
    }
    procBoundary4to3
    {
        type            processor;
        value           nonuniform List<symmTensor> 
20
(
(-6.9664e+28 4.48033e+27 -6.32256e+28 -3.07733e+28 4.87423e+28 9.23674e+28)
(-6.21137e+28 -1.12212e+28 -7.26192e+28 1.91206e+27 -4.19397e+27 9.82486e+28)
(-5.74001e+28 -1.13238e+28 -7.90006e+28 1.15468e+28 -5.13005e+28 1.65181e+28)
(-2.83616e+28 1.44082e+28 -7.99577e+28 7.58866e+28 1.30638e+28 -6.6049e+26)
(-5.14441e+28 -5.77124e+27 5.45206e+28 -1.04743e+27 -4.21414e+28 5.28227e+28)
(-3.22456e+28 9.36121e+26 4.81427e+28 -4.03136e+27 -3.15308e+28 3.42868e+28)
(-3.96023e+28 -5.20347e+27 4.29572e+28 1.39173e+28 -2.44686e+28 1.50886e+28)
(-2.80963e+28 6.44787e+26 1.21385e+28 9.46082e+27 -1.07321e+28 1.67009e+28)
(2.1707e+28 2.34303e+28 2.77901e+29 -1.07406e+29 9.83254e+28 1.27213e+29)
(-4.38975e+27 -2.58576e+28 1.5069e+29 -2.18179e+28 -4.61105e+28 2.47091e+28)
(-1.05363e+29 -3.9106e+28 2.00135e+29 -2.15215e+28 -1.18409e+29 1.6981e+29)
(-5.95849e+28 -7.71275e+28 9.67355e+28 2.78772e+28 -4.26031e+28 -3.55219e+27)
(1.82519e+29 3.09994e+28 6.02638e+29 -9.73968e+28 -2.53279e+29 -1.50688e+29)
(1.75343e+29 -1.4744e+29 4.90735e+29 -1.75066e+29 -7.55579e+28 1.7422e+28)
(4.54789e+28 -7.42941e+28 2.153e+29 -3.98903e+28 -1.16075e+29 -7.24689e+28)
(3.79538e+28 -1.43077e+29 2.27102e+29 -8.25981e+28 -1.13554e+29 1.26336e+29)
(9.85819e+29 -3.51872e+29 4.35075e+29 -4.43806e+29 1.54767e+29 -4.29281e+29)
(3.41373e+29 -1.33977e+29 1.79205e+29 -9.56772e+28 6.75643e+27 -2.6211e+29)
(5.09525e+29 -4.18734e+29 2.27263e+29 -1.54368e+29 -1.9329e+29 -2.38021e+29)
(4.76857e+28 -8.56235e+28 7.50604e+28 2.02445e+28 2.7636e+27 -9.89062e+28)
)
;
    }
    procBoundary4to5
    {
        type            processor;
        value           nonuniform List<symmTensor> 
20
(
(6.76047e+29 3.10284e+29 3.22197e+28 5.99732e+28 6.21784e+29 -1.28006e+30)
(3.30397e+29 -1.90062e+29 -1.02667e+30 3.06875e+29 4.3978e+29 -8.78827e+29)
(6.74353e+28 3.54051e+28 -1.19664e+29 -7.49771e+27 -1.2624e+28 -1.59809e+29)
(1.27381e+29 -3.48589e+28 -5.80704e+29 1.99424e+29 2.84411e+29 -3.17244e+29)
(4.0512e+29 2.6301e+29 -2.08125e+29 1.59078e+30 -1.90213e+29 -4.72508e+30)
(-3.77074e+29 2.02306e+29 -8.33019e+28 -8.42892e+28 4.5782e+29 7.00386e+29)
(-9.94902e+28 1.59101e+29 -8.19727e+29 -1.8448e+28 1.18495e+30 -4.45807e+29)
(1.3743e+28 1.31953e+28 3.10856e+27 -8.53811e+27 4.56467e+28 -3.53283e+28)
(9.05585e+30 -7.40245e+30 -1.38047e+31 1.17779e+31 1.83173e+31 1.11809e+31)
(4.44504e+31 -8.45482e+30 -1.29075e+31 1.43487e+31 1.97371e+31 -6.14955e+31)
(6.81087e+30 -3.73687e+30 4.11831e+30 -1.79673e+30 -5.78616e+30 5.87796e+30)
(1.53449e+30 1.15728e+30 -2.80346e+30 -1.88975e+30 1.11631e+30 1.65177e+30)
(1.13832e+32 -9.81098e+31 2.72657e+32 1.30005e+32 -1.70986e+32 -2.6464e+32)
(3.48852e+31 1.69896e+31 -1.93174e+31 -6.57849e+30 -2.07168e+31 3.21109e+31)
(5.12307e+31 6.90153e+30 -3.21273e+31 -2.11005e+31 6.32945e+31 -1.52767e+32)
(1.20566e+31 -1.28919e+31 -6.16889e+29 6.39948e+30 -1.30121e+31 7.94579e+30)
(-5.9888e+32 1.11629e+32 1.70796e+31 1.24434e+32 1.26574e+33 1.08803e+33)
(-1.92958e+33 -6.50323e+32 4.0589e+33 3.52781e+32 -1.17844e+33 6.31543e+32)
(-2.24915e+32 1.47845e+32 3.9101e+31 -5.35969e+31 2.32828e+31 5.14109e+32)
(3.27512e+31 9.79536e+30 -1.01265e+32 -4.69812e+31 1.08427e+32 -1.21254e+31)
)
;
    }
    procBoundary4to12
    {
        type            processor;
        value           nonuniform List<symmTensor> 
50
(
(-1.41912e+28 1.70848e+28 -9.39766e+28 3.31187e+28 3.39603e+28 -3.03531e+27)
(-3.66275e+28 -9.55457e+27 -6.6174e+28 2.71853e+28 1.76924e+28 4.62882e+27)
(-8.97923e+28 -3.53106e+28 -1.41829e+29 7.25124e+28 1.57192e+28 1.1155e+28)
(1.09761e+28 3.5135e+28 -1.10526e+29 -3.34998e+28 -1.1763e+28 3.13084e+28)
(-2.13518e+28 1.12898e+29 -1.70718e+29 -2.13633e+28 5.25878e+28 4.28952e+28)
(-4.6117e+28 5.80098e+28 -1.92095e+29 6.85118e+27 1.07238e+29 2.36444e+28)
(-3.96125e+28 4.66591e+28 -1.79915e+29 5.19466e+27 4.0318e+28 -1.4571e+28)
(-8.53012e+28 8.02073e+28 -2.24263e+29 9.06637e+28 8.40955e+28 4.35158e+28)
(6.3022e+27 1.09376e+29 -2.06408e+29 -7.69872e+28 1.12435e+29 -4.81075e+26)
(-5.46298e+28 1.41969e+29 -4.02069e+29 1.40745e+29 2.14499e+29 7.00542e+28)
(-6.07967e+28 -2.27119e+28 6.45108e+27 2.33471e+28 -1.44724e+28 1.71583e+28)
(-6.23922e+28 -3.74535e+28 3.41804e+28 5.26175e+28 -3.24417e+28 1.64466e+28)
(-5.38001e+28 3.867e+28 2.21812e+28 1.29267e+28 -7.41544e+27 1.9203e+28)
(-6.16746e+28 9.5242e+28 8.32907e+26 8.3688e+27 -1.71663e+28 3.24461e+28)
(-3.24038e+27 1.19453e+29 -2.10432e+28 -2.064e+27 -1.57266e+28 -7.03369e+27)
(-8.14019e+28 -7.01716e+28 -5.37393e+28 1.51187e+29 -3.33735e+27 -2.04572e+28)
(-1.09663e+29 -1.59667e+29 -2.23812e+28 2.86512e+29 2.28767e+29 -1.63182e+29)
(-4.3871e+28 2.01251e+29 -6.37828e+28 3.80665e+27 1.95184e+29 4.46971e+28)
(-1.35966e+29 1.45198e+29 -3.98774e+28 8.46098e+27 1.1567e+29 2.84296e+29)
(-9.03391e+28 -1.26411e+28 -1.78114e+29 9.48107e+28 2.18116e+29 -6.83053e+28)
(-5.73689e+28 -1.54677e+28 6.51027e+28 3.43473e+28 -7.03221e+28 -3.03057e+27)
(-7.72946e+28 1.79651e+28 6.34057e+28 1.63206e+28 -6.76829e+28 1.14039e+29)
(-3.47045e+28 -5.61169e+27 4.57359e+28 2.51613e+28 -4.28067e+28 4.88069e+27)
(-2.3495e+29 3.7685e+27 5.6221e+28 5.29866e+28 -2.58606e+29 1.48548e+29)
(-2.82551e+29 2.30675e+29 -1.20057e+28 6.20037e+29 1.50007e+29 8.54208e+28)
(-3.14422e+29 7.74131e+29 -4.34523e+29 -4.57123e+29 -2.60085e+29 8.39889e+29)
(-3.15832e+29 2.9694e+29 1.77999e+29 2.24802e+29 -2.0852e+29 1.57966e+29)
(-5.57029e+29 2.08981e+29 1.24834e+30 8.99344e+29 -1.27682e+30 5.01766e+29)
(-2.64228e+29 3.0994e+29 -2.46113e+29 5.58277e+29 -3.05131e+29 2.9993e+29)
(-6.09529e+28 4.3049e+29 -6.05375e+29 -2.72035e+29 1.20539e+28 1.84321e+29)
(1.02685e+28 -1.54902e+29 1.72454e+29 -2.13329e+28 -1.14268e+29 1.06372e+29)
(-3.62259e+28 -9.75389e+28 1.57299e+29 3.7991e+28 -1.09577e+29 -4.26131e+28)
(-1.15573e+29 -2.03797e+29 1.87402e+29 3.78211e+28 -2.519e+29 1.11671e+29)
(-2.11493e+29 -1.73986e+29 2.74071e+29 1.40028e+29 -2.91263e+29 -2.99354e+28)
(-3.3466e+29 -2.69952e+29 4.9039e+29 1.24317e+29 -6.3771e+29 2.77517e+29)
(-2.5649e+29 -9.08743e+28 3.62562e+29 2.52763e+29 -4.63107e+29 1.7332e+29)
(-4.68031e+29 1.18277e+29 2.13093e+29 1.61511e+29 -8.18284e+29 5.5806e+29)
(-6.36101e+29 3.16938e+29 2.90605e+29 5.16003e+29 -1.21314e+30 5.23886e+29)
(-1.28013e+30 1.47326e+30 -2.14239e+29 -3.58134e+29 -1.179e+30 8.42331e+29)
(-6.25287e+29 1.14623e+30 1.35725e+30 -1.25901e+30 -1.83986e+30 3.65052e+30)
(1.00257e+28 -8.48292e+28 6.32596e+28 5.85779e+28 -6.65677e+27 -8.00905e+28)
(3.42477e+28 -2.54169e+29 4.94646e+28 8.30425e+28 -1.18011e+29 -1.38299e+29)
(-6.22582e+27 -1.9592e+29 8.10619e+28 1.83335e+29 -4.644e+28 -1.38746e+29)
(-7.0539e+27 -4.5336e+29 1.8001e+29 1.8979e+29 -2.75429e+29 -2.58658e+29)
(-2.04685e+29 -7.39739e+29 3.14312e+29 7.91044e+29 -2.91397e+29 -4.41007e+29)
(-4.36505e+29 -8.60142e+29 5.57285e+29 8.09212e+29 -7.17719e+29 -6.73718e+29)
(-1.36698e+30 -1.92853e+30 1.29278e+30 3.16092e+30 -1.47397e+30 -1.50219e+30)
(-2.48773e+30 4.04788e+29 1.71863e+30 2.23987e+30 -1.884e+30 -1.79252e+30)
(8.1535e+30 -3.17732e+30 9.51465e+30 2.57956e+30 -9.6117e+30 -4.00594e+30)
(-1.2187e+30 6.65857e+29 2.68592e+30 3.20795e+30 -2.90759e+30 -6.03489e+30)
)
;
    }
}


// ************************************************************************* //
