/*--------------------------------*- C++ -*----------------------------------*\
| =========                 |                                                 |
| \\      /  F ield         | OpenFOAM: The Open Source CFD Toolbox           |
|  \\    /   O peration     | Version:  2.4.0                                 |
|   \\  /    A nd           | Web:      www.OpenFOAM.org                      |
|    \\/     M anipulation  |                                                 |
\*---------------------------------------------------------------------------*/
FoamFile
{
    version     2.0;
    format      ascii;
    class       surfaceScalarField;
    location    "0.17";
    object      phib;
}
// * * * * * * * * * * * * * * * * * * * * * * * * * * * * * * * * * * * * * //

dimensions      [0 3 -1 0 0 0 0];

internalField   nonuniform List<scalar> 
490
(
-1.4253e+10
-7.43003e+09
4.09452e+09
-2.56977e+10
-1.16193e+09
5.83532e+09
-2.81587e+10
-4.34257e+09
5.46488e+09
-2.99981e+10
-1.09016e+10
6.48603e+09
-3.65727e+10
-1.35475e+10
7.81849e+09
-4.54668e+10
-1.7402e+10
9.18139e+09
-5.97579e+10
-2.07948e+10
1.21916e+10
-5.04508e+10
-1.59817e+10
-1.34136e+10
-4.8655e+10
-1.26496e+10
-6.03785e+09
-1.49582e+10
-7.60444e+09
-3.00084e+10
-1.97708e+09
6.05228e+09
-3.40224e+10
-2.54234e+09
5.39446e+09
-3.68909e+10
-7.0369e+09
5.56281e+09
-4.43924e+10
-1.04167e+10
7.0166e+09
-5.31058e+10
-1.36539e+10
8.81984e+09
-6.10783e+10
-2.03126e+10
1.08831e+10
-6.19e+10
-1.85448e+10
-1.42825e+09
-7.04964e+10
-1.03979e+10
3.01262e+09
-6.08579e+10
-1.15166e+10
-1.07715e+10
-1.13411e+10
6.93222e+09
-3.88319e+10
-2.94789e+09
5.21362e+09
-4.36006e+10
-2.4444e+09
4.67082e+09
-5.04039e+10
-6.50379e+09
6.27022e+09
-5.98744e+10
-8.70171e+09
7.75548e+09
-6.68355e+10
-1.70945e+10
1.04017e+10
-7.57172e+10
-2.08541e+10
9.42316e+09
-1.01905e+11
-5.01711e+09
1.266e+10
-8.0868e+10
-9.96966e+09
-2.14651e+10
-7.85677e+10
-9.33612e+09
-4.48073e+09
-5.76223e+09
-1.3171e+10
-5.16147e+10
9.01483e+08
-5.70811e+10
3.02205e+09
-6.94113e+10
5.82634e+09
-8.78684e+10
9.75543e+09
-1.20109e+11
1.51459e+10
-1.61425e+11
2.04621e+10
-1.12125e+11
-5.43167e+10
-8.55393e+10
-3.65558e+10
-6.35109e+10
-3.13645e+10
-7.37917e+09
-1.14287e+10
-6.24487e+09
4.91953e+09
-1.19952e+10
-7.77209e+09
7.11042e+09
-2.14345e+10
-1.64385e+08
7.92237e+09
-2.12054e+10
-2.75493e+09
6.71267e+09
-2.19791e+10
-6.45809e+09
8.44621e+09
-1.7193e+10
-8.48464e+09
7.24582e+09
-1.43186e+10
-1.03115e+10
9.19827e+09
-3.65404e+10
-1.18237e+10
8.34072e+09
-4.03952e+10
-4.95301e+09
-1.1802e+10
-1.39364e+10
8.45274e+09
-1.25945e+10
-7.1911e+09
7.26282e+09
-2.35697e+10
8.51708e+08
7.74588e+09
-2.6056e+10
1.32493e+09
6.55979e+09
-2.53351e+10
-3.21059e+09
6.75136e+09
-2.46178e+10
-5.89304e+09
7.5375e+09
-2.33234e+10
-6.85652e+09
7.96047e+09
-3.34003e+10
-9.89343e+09
8.23062e+09
-3.78348e+10
1.48191e+09
-5.85848e+09
-6.12339e+10
4.15929e+09
3.51527e+09
-1.34682e+08
-2.38778e+08
-2.75857e+10
2.0277e+09
7.93669e+09
-2.97763e+10
1.50959e+09
6.20357e+09
-2.9351e+10
1.56617e+09
5.60369e+09
-2.94906e+10
-2.13402e+09
6.81852e+09
-2.86681e+10
-3.06011e+09
6.7463e+09
-2.51667e+10
-8.65982e+09
7.72507e+09
-2.55942e+10
6.79004e+08
2.51501e+09
-6.12262e+10
1.14082e+10
4.24058e+09
-5.1978e+10
9.14809e+09
-1.87177e+10
6.49135e+08
4.47137e+09
-3.67081e+10
6.23386e+09
-3.49545e+10
2.77799e+09
-3.28298e+10
5.26782e+09
-3.07776e+10
5.56928e+09
-2.67061e+10
8.01425e+09
-2.49872e+10
1.00834e+10
-8.71088e+10
8.4838e+09
-6.90204e+10
-4.32359e+10
-7.22129e+10
-1.9024e+10
-1.27132e+10
-4.13321e+09
-2.55891e+09
6.37067e+09
-7.62884e+07
-5.10839e+09
4.1515e+09
-1.78084e+09
-6.22964e+09
9.78483e+09
-5.64337e+09
-2.83342e+09
6.399e+09
-6.1423e+09
-4.96591e+09
8.33856e+09
-9.19792e+09
-4.9059e+09
7.25336e+09
-7.70443e+09
-8.31344e+09
8.2408e+09
-7.84515e+09
-9.49399e+09
7.05098e+09
-2.46437e+10
-1.33771e+10
6.28493e+09
-2.3317e+10
7.56475e+09
-8.34175e+09
-4.28585e+09
4.47131e+09
-9.50815e+09
-6.35583e+09
1.01597e+10
-1.56851e+10
-7.54866e+08
7.26197e+09
-1.76598e+10
-1.8343e+09
7.72696e+09
-1.88779e+10
-2.58478e+09
6.37443e+09
-1.82936e+10
-4.67706e+09
7.1474e+09
-1.86537e+10
-5.44605e+09
5.72331e+09
-3.34612e+10
-5.76757e+09
5.22255e+09
-3.97742e+10
-6.82318e+09
3.27436e+09
-1.76948e+10
3.13929e+09
-1.38055e+10
-5.75346e+09
1.33766e+10
-2.17108e+10
7.45961e+08
7.0071e+09
-2.39548e+10
2.34749e+08
6.85805e+09
-2.49792e+10
8.23139e+08
5.18547e+09
-2.53654e+10
-1.11248e+09
5.66018e+09
-2.55901e+10
-3.88309e+08
3.66102e+09
-2.73987e+10
-4.45277e+09
3.33032e+09
-3.46161e+10
5.34459e+09
3.45795e+08
-6.28388e+10
4.69689e+09
-2.01509e+09
-9.57375e+09
9.65165e+09
-2.62926e+10
8.11465e+09
-2.93728e+10
6.60411e+09
-2.78565e+10
3.98633e+09
-2.56399e+10
4.17573e+09
-2.14766e+10
2.73851e+09
-1.42617e+10
2.48022e+09
-1.2338e+10
2.10733e+09
-5.033e+10
1.00719e+08
-4.68335e+10
-1.78236e+10
3.16332e+10
-8.73925e+09
-2.0628e+09
-2.50212e+09
-9.9042e+09
-5.13586e+09
6.04988e+09
-3.05333e+09
-6.34458e+09
2.33702e+09
-4.05939e+09
-8.65972e+09
8.44331e+09
-3.61737e+09
-5.33654e+09
3.89661e+09
-4.294e+09
-7.49595e+09
7.87881e+09
-2.48582e+09
-8.12188e+09
4.31983e+09
-7.72867e+08
-1.12782e+10
6.62251e+09
3.84041e+09
-1.37799e+10
2.91837e+09
-1.79848e+10
7.25847e+09
-1.93033e+10
-3.71639e+09
1.41214e+10
-1.17764e+10
-4.481e+09
1.97793e+09
-1.20176e+10
-7.99323e+09
9.15185e+09
-1.3062e+10
-3.49479e+09
3.60642e+09
-1.37047e+10
-4.50628e+09
6.18689e+09
-1.25468e+10
-4.8909e+09
3.38442e+09
-1.13649e+10
-7.83691e+09
4.25648e+09
-8.53805e+09
-1.04224e+10
1.53994e+09
-1.14139e+10
-1.20343e+10
4.40466e+09
-2.05403e+10
2.13052e+09
-1.57504e+10
-2.07993e+09
3.53556e+09
-1.86756e+10
-6.83872e+09
1.229e+10
-2.06808e+10
-1.42989e+09
2.29994e+09
-2.11769e+10
-2.20356e+09
4.39033e+09
-2.07909e+10
-1.45901e+09
2.22683e+09
-2.04674e+10
-3.91382e+09
2.3605e+09
-1.87283e+10
-5.62164e+09
-6.2403e+08
-2.03614e+10
-9.59151e+09
1.14796e+09
-2.0753e+10
-1.23942e+10
-1.26363e+09
-4.02662e+09
4.5622e+09
-2.45727e+10
1.03369e+10
-2.63652e+10
1.55786e+09
-2.70055e+10
3.19672e+09
-2.58127e+10
7.79388e+08
-2.52235e+10
6.90315e+08
-2.50452e+10
-1.61192e+09
-2.69807e+10
-1.57878e+09
-3.4609e+10
-1.86256e+09
-6.84591e+10
3.63236e+09
3.2137e+10
-1.9257e+10
-7.25333e+09
-1.40936e+10
-8.75046e+09
-1.24972e+10
-1.13131e+10
-6.80698e+09
-1.0572e+10
-4.05157e+09
-1.05279e+10
6.69188e+08
-8.33834e+09
5.6021e+09
-1.05032e+10
1.12389e+10
-1.06154e+10
1.60891e+10
-1.18314e+10
-1.26733e+10
-1.30198e+10
-2.50289e+09
-1.25838e+10
-7.2085e+09
-7.70323e+09
-7.04184e+09
-6.11842e+09
-8.55036e+09
-4.99056e+09
-5.46885e+09
-3.10294e+09
-6.84154e+09
-5.39247e+08
-8.8104e+09
1.47738e+09
-1.10921e+10
5.80378e+09
-1.17531e+10
-1.54239e+10
-1.21176e+10
-1.02435e+09
-6.19709e+09
-8.39031e+08
-6.30717e+09
-4.63182e+09
-8.5606e+09
-1.90659e+09
-8.97559e+09
-2.82703e+09
-1.04686e+10
-2.98801e+09
-1.30558e+10
-6.84727e+09
-1.44869e+10
-8.51301e+09
-1.70974e+10
-1.04062e+10
-1.51746e+10
-1.0247e+10
-9.52819e+09
-1.09633e+10
-1.20905e+10
-1.42272e+10
-1.88271e+10
-2.72532e+10
-3.76287e+10
-4.44026e+10
)
;

boundaryField
{
    inlet
    {
        type            fixedValue;
        value           nonuniform 0();
    }
    outlet
    {
        type            calculated;
        value           nonuniform 0();
    }
    bottom
    {
        type            fixedValue;
        value           uniform 0;
    }
    top
    {
        type            symmetryPlane;
        value           nonuniform List<scalar> 
40
(
-3.11063e-25
-1.32879e-25
-2.01379e-25
-2.92578e-25
-3.086e-25
-2.60001e-25
-3.02185e-25
-5.17038e-25
-4.17499e-25
-3.45482e-25
-5.0581e-25
-5.73291e-25
-4.23792e-25
-4.07613e-25
-4.95082e-25
-8.78609e-25
-3.82588e-25
-4.33964e-25
-6.9301e-25
-1.00586e-24
-4.60264e-25
-6.50728e-25
-9.22443e-25
-1.71242e-24
-6.82494e-25
-7.87593e-25
-1.40959e-24
-2.21771e-24
-5.77784e-25
-7.66383e-25
-1.03537e-24
-2.11758e-24
-4.5685e-25
-4.77786e-25
-7.09987e-25
-1.36378e-24
-3.28803e-25
-3.83399e-25
-6.13699e-25
-1.06076e-24
)
;
    }
    side1
    {
        type            symmetryPlane;
        value           nonuniform 0();
    }
    side2
    {
        type            symmetryPlane;
        value           uniform 0;
    }
    procBoundary26to18
    {
        type            processor;
        value           nonuniform List<scalar> 
50
(
5.34874e+09
6.77126e+09
1.33867e+09
6.25495e+09
1.23036e+10
1.71148e+10
2.28942e+10
2.00882e+10
1.68917e+10
1.88434e+10
6.21179e+09
7.0635e+09
7.14618e+09
2.29912e+09
6.60413e+09
5.63413e+09
1.04305e+10
1.22912e+10
1.45719e+10
1.44566e+10
3.2087e+09
4.01039e+09
6.07173e+09
7.00963e+09
5.57248e+09
7.95398e+09
7.77743e+09
1.09244e+10
1.20887e+10
1.9701e+10
1.09202e+08
4.40243e+09
6.94152e+09
7.62146e+09
9.33648e+09
7.54713e+09
1.02347e+10
9.99368e+09
1.25332e+10
1.4433e+10
8.1752e+09
9.63692e+09
1.20537e+10
1.33251e+10
1.16691e+10
1.14964e+10
9.89011e+09
1.16012e+10
9.89951e+09
1.14066e+10
)
;
    }
    procBoundary26to25
    {
        type            processor;
        value           nonuniform List<scalar> 
20
(
1.22398e+10
1.85031e+10
3.4589e+10
4.77653e+10
1.06368e+10
1.23302e+10
1.56438e+10
3.34034e+10
2.03227e+09
1.28602e+10
9.8332e+09
1.86584e+10
1.95656e+10
1.13068e+10
2.3955e+10
2.02705e+10
1.58331e+10
2.23907e+10
1.41747e+10
1.95596e+10
)
;
    }
    procBoundary26to27
    {
        type            processor;
        value           nonuniform List<scalar> 
20
(
-4.49357e+10
-7.14072e+10
-7.09756e+10
-6.18939e+10
-5.69725e+10
-6.78646e+10
-7.04042e+10
-6.62297e+10
-2.01398e+10
-4.87743e+10
-7.61402e+10
-1.00754e+11
7.69853e+09
-7.84975e+09
-3.21772e+10
-7.29895e+10
2.46143e+10
1.06849e+10
-1.27846e+10
-2.74402e+10
)
;
    }
}


// ************************************************************************* //
