/*--------------------------------*- C++ -*----------------------------------*\
| =========                 |                                                 |
| \\      /  F ield         | OpenFOAM: The Open Source CFD Toolbox           |
|  \\    /   O peration     | Version:  2.4.0                                 |
|   \\  /    A nd           | Web:      www.OpenFOAM.org                      |
|    \\/     M anipulation  |                                                 |
\*---------------------------------------------------------------------------*/
FoamFile
{
    version     2.0;
    format      ascii;
    class       volSymmTensorField;
    location    "0.08";
    object      B;
}
// * * * * * * * * * * * * * * * * * * * * * * * * * * * * * * * * * * * * * //

dimensions      [0 2 -2 0 0 0 0];

internalField   nonuniform List<symmTensor> 
200
(
(1.39578e+11 7.85797e+09 1.34413e+09 1.52507e+11 1.7866e+10 1.35836e+11)
(1.64187e+11 1.1339e+10 -5.25379e+08 1.89289e+11 3.49323e+10 1.61279e+11)
(2.03111e+11 6.49642e+09 -3.2737e+08 2.24846e+11 2.01746e+10 2.07236e+11)
(2.59332e+11 1.71016e+09 -8.08844e+09 3.12104e+11 3.98569e+10 2.7138e+11)
(2.00146e+11 2.32654e+09 -2.24577e+09 2.30225e+11 1.87825e+10 2.12261e+11)
(2.45418e+11 -8.20288e+09 -1.53932e+10 3.44846e+11 5.39367e+10 2.89425e+11)
(1.90209e+11 -8.9754e+09 -1.33322e+10 2.41909e+11 2.78278e+10 2.17588e+11)
(3.18489e+11 -8.61117e+09 -4.3882e+10 3.8898e+11 4.79265e+10 3.72051e+11)
(4.01539e+11 -6.83309e+10 -4.66149e+10 5.20081e+11 6.55499e+10 4.67363e+11)
(3.20262e+11 -2.89202e+10 -2.95703e+10 3.81751e+11 3.28547e+10 3.71793e+11)
(1.61612e+11 1.15732e+10 9.91144e+09 1.7123e+11 2.65903e+10 1.5213e+11)
(2.39022e+11 1.35315e+10 4.19442e+09 2.56667e+11 3.12887e+10 2.34704e+11)
(3.04796e+11 1.90298e+10 1.67835e+09 3.37397e+11 5.49879e+10 3.05089e+11)
(3.8836e+11 1.10653e+10 1.89912e+09 4.2277e+11 3.50755e+10 3.9866e+11)
(4.61161e+11 6.30583e+09 -7.84138e+09 5.39186e+11 5.93433e+10 4.88688e+11)
(4.43591e+11 3.0088e+09 -5.79897e+09 5.05136e+11 3.77051e+10 4.7206e+11)
(5.32137e+11 -1.3112e+10 -2.04275e+10 7.09505e+11 9.22656e+10 6.08157e+11)
(5.21184e+11 -2.35235e+10 -3.66365e+10 6.77555e+11 6.29025e+10 5.98951e+11)
(9.71834e+11 -3.4273e+10 -5.95358e+10 1.15807e+12 9.96004e+10 1.09622e+12)
(1.08046e+12 -1.16146e+11 -1.16466e+11 1.21428e+12 8.18138e+10 1.15806e+12)
(2.41596e+11 1.12946e+10 1.10558e+10 2.40154e+11 3.94887e+10 2.11848e+11)
(2.95077e+11 1.88095e+10 1.85972e+10 2.93758e+11 4.67322e+10 2.7714e+11)
(4.19244e+11 2.35133e+10 1.3252e+10 4.3108e+11 5.12739e+10 4.14411e+11)
(5.68149e+11 3.51253e+10 1.31355e+10 5.95847e+11 8.27343e+10 5.78233e+11)
(8.66201e+11 2.64445e+10 9.98404e+09 9.17931e+11 7.41959e+10 8.94652e+11)
(7.90555e+11 3.31104e+10 -2.29962e+09 8.95891e+11 9.96248e+10 8.53309e+11)
(1.06069e+12 3.03647e+10 -1.20046e+10 1.21089e+12 1.13443e+11 1.14011e+12)
(1.05382e+12 3.24038e+10 -2.03294e+09 1.42708e+12 1.89464e+11 1.24184e+12)
(2.54728e+12 -9.25369e+10 -6.58241e+10 3.16866e+12 2.21761e+11 2.92622e+12)
(5.01238e+12 -3.17451e+11 -1.81547e+11 5.47645e+12 4.11591e+11 5.57004e+12)
(3.38324e+11 6.15475e+09 4.5881e+09 2.976e+11 5.62061e+10 2.86847e+11)
(3.64833e+11 1.22849e+10 2.4645e+10 3.31614e+11 5.05333e+10 3.22957e+11)
(5.72744e+11 2.50709e+10 4.13706e+10 5.24456e+11 7.0561e+10 5.37257e+11)
(8.23472e+11 3.85153e+10 4.27952e+10 7.90343e+11 7.68511e+10 8.15119e+11)
(1.13769e+12 5.50323e+10 5.63303e+10 1.09546e+12 1.20154e+11 1.14163e+12)
(1.26152e+12 9.32842e+10 7.18488e+10 1.2516e+12 1.35457e+11 1.30966e+12)
(1.24947e+12 1.57934e+11 1.0302e+11 1.32217e+12 1.93684e+11 1.36711e+12)
(1.74829e+12 2.76864e+11 1.85342e+11 1.92864e+12 2.29054e+11 2.08232e+12)
(2.6748e+13 5.37122e+10 4.43823e+11 2.8181e+13 8.5419e+11 3.00885e+13)
(1.06491e+13 -2.14121e+11 3.74394e+11 1.16647e+13 8.48054e+11 1.37993e+13)
(9.58061e+10 1.52797e+10 2.01072e+09 1.12243e+11 -4.99384e+09 9.38045e+10)
(1.3542e+11 2.07386e+10 1.8138e+09 1.6557e+11 -1.46516e+09 1.40655e+11)
(1.43033e+11 8.48434e+09 1.18116e+09 1.73007e+11 -3.31772e+09 1.46295e+11)
(2.59376e+11 3.82549e+09 5.02118e+09 3.07232e+11 1.31813e+09 2.75354e+11)
(1.90318e+11 -8.43873e+08 6.264e+09 2.57837e+11 -2.8396e+09 2.10614e+11)
(2.2209e+11 -2.46021e+09 -4.85191e+07 2.50687e+11 1.01383e+09 2.31665e+11)
(3.2404e+11 -1.73509e+10 1.7697e+10 4.22573e+11 2.40618e+09 3.45779e+11)
(1.26966e+11 1.87886e+09 1.24445e+10 2.02297e+11 -1.22667e+10 1.39697e+11)
(4.41522e+11 -2.02655e+09 9.01332e+09 5.41921e+11 6.12776e+09 4.85054e+11)
(3.23921e+11 -5.80893e+10 1.48173e+10 4.06895e+11 9.75495e+08 3.52156e+11)
(1.47516e+11 2.51141e+10 1.523e+09 1.65438e+11 -2.74088e+09 1.427e+11)
(2.17727e+11 2.06847e+10 2.74974e+09 2.35913e+11 -3.66006e+09 2.12649e+11)
(3.26793e+11 3.76677e+10 4.03043e+09 3.76621e+11 2.5247e+09 3.30639e+11)
(3.27724e+11 1.54323e+10 1.35644e+09 3.82974e+11 -1.89595e+09 3.36561e+11)
(1.08401e+12 6.71222e+09 6.27398e+09 1.2125e+12 7.26609e+09 1.11942e+12)
(3.92464e+11 1.95346e+10 -3.2333e+09 5.37295e+11 3.99276e+09 4.28126e+11)
(1.20522e+12 -4.44936e+09 -7.20404e+09 1.31733e+12 5.09578e+09 1.22353e+12)
(1.28876e+12 2.70026e+10 5.75155e+10 1.4673e+12 -1.35816e+10 1.28685e+12)
(3.51016e+11 -6.51798e+10 6.9725e+10 5.95359e+11 -2.48875e+10 4.30232e+11)
(1.47804e+12 -6.66307e+10 6.84705e+10 1.82547e+12 1.15658e+11 1.73225e+12)
(1.76892e+11 2.76355e+10 6.41731e+09 1.79569e+11 -3.25157e+09 1.64148e+11)
(3.55182e+11 3.85659e+10 3.85368e+09 3.56892e+11 6.04178e+08 3.37498e+11)
(4.86043e+11 3.9039e+10 7.15214e+09 4.96921e+11 -1.24142e+09 4.69778e+11)
(1.00532e+12 1.20368e+11 1.26337e+10 1.08432e+12 1.67655e+10 1.0114e+12)
(7.37463e+11 4.95988e+10 5.04465e+09 8.43934e+11 1.14704e+09 7.50285e+11)
(5.89491e+11 9.09862e+10 -3.20802e+09 8.00268e+11 1.51712e+10 6.45723e+11)
(2.18314e+12 2.42435e+11 -8.05449e+09 2.43162e+12 -3.98136e+10 2.11848e+12)
(6.87207e+11 1.24163e+11 1.08958e+11 8.72265e+11 -3.16362e+10 7.31194e+11)
(2.76135e+13 5.47992e+10 6.55188e+11 2.79674e+13 1.24313e+12 2.94507e+13)
(4.53628e+12 3.36987e+11 6.31451e+11 3.82087e+12 3.54875e+11 4.70233e+12)
(1.56334e+11 1.68938e+10 7.71492e+09 1.28234e+11 1.4038e+09 1.1424e+11)
(4.20877e+11 4.4621e+10 1.60121e+10 3.64929e+11 2.95663e+09 3.58235e+11)
(9.24803e+11 7.1974e+10 2.00541e+10 8.46806e+11 1.07298e+10 8.4249e+11)
(1.46421e+12 1.01499e+11 1.92834e+10 1.36366e+12 5.07199e+09 1.34846e+12)
(1.05419e+12 1.76766e+11 3.03323e+10 9.00437e+11 2.53941e+10 9.03969e+11)
(4.7835e+12 1.98918e+11 -2.59031e+10 4.52083e+12 -2.56749e+10 4.41798e+12)
(6.03634e+12 2.42974e+11 1.26491e+11 5.61728e+12 -3.93377e+10 5.58463e+12)
(1.03494e+14 -4.54824e+11 3.20687e+12 1.04609e+14 1.81643e+12 1.06872e+14)
(3.23674e+13 -3.73237e+11 1.43879e+12 3.15387e+13 8.94782e+11 3.33201e+13)
(4.38962e+13 -3.29727e+12 -3.29559e+12 3.73265e+13 3.98834e+12 4.2681e+13)
(1.41439e+11 3.6605e+10 -1.00616e+10 1.98042e+11 -1.15563e+10 1.66695e+11)
(7.62872e+10 7.99599e+09 -3.33054e+09 9.32063e+10 -1.29787e+10 7.63563e+10)
(1.75089e+11 5.00605e+10 -1.0041e+10 2.82241e+11 -1.71569e+10 2.14095e+11)
(9.94714e+10 1.05483e+10 2.58271e+09 1.27647e+11 -2.28618e+10 1.06906e+11)
(3.32273e+11 -1.33288e+10 7.17091e+09 4.89791e+11 -1.54095e+10 3.75406e+11)
(1.80515e+11 3.52993e+10 -4.34362e+09 2.34404e+11 -3.12533e+10 1.93149e+11)
(9.4369e+11 -7.18359e+10 -1.23462e+10 1.09446e+12 -3.82239e+10 9.40076e+11)
(2.53323e+11 -2.18628e+10 4.07323e+10 3.19607e+11 -2.93418e+10 2.53983e+11)
(2.3299e+11 -6.04703e+10 3.2715e+10 2.20827e+11 -6.52711e+10 1.58859e+11)
(1.36647e+11 2.41802e+10 6.35068e+10 2.02078e+11 3.44546e+10 2.06876e+11)
(1.32869e+11 1.4187e+10 -6.20626e+09 1.62341e+11 -1.50622e+10 1.35648e+11)
(1.52378e+11 6.63661e+10 -1.65051e+10 2.29524e+11 -2.46894e+10 1.8144e+11)
(1.9828e+11 1.20107e+10 -7.13698e+09 2.33767e+11 -2.40946e+10 1.98563e+11)
(2.72597e+11 8.40412e+10 -1.97186e+10 4.6093e+11 -4.68311e+10 3.41745e+11)
(3.2296e+11 4.90866e+10 -8.72886e+09 4.32794e+11 -6.87202e+10 3.62602e+11)
(3.13645e+11 5.3636e+10 -6.0315e+10 6.57311e+11 -1.00553e+11 4.29543e+11)
(6.88916e+11 4.75694e+10 -1.90844e+10 5.96728e+11 -1.36784e+11 5.90466e+11)
(6.38754e+11 -5.46551e+10 7.75804e+10 4.31661e+11 -1.61159e+11 4.95397e+11)
(8.66634e+12 -3.94349e+10 4.5521e+11 8.21216e+12 7.61221e+11 8.69188e+12)
(5.03591e+12 2.47099e+11 3.30225e+11 4.35269e+12 -1.1301e+11 4.73226e+12)
(1.71328e+11 3.95288e+10 -1.64995e+10 1.95861e+11 -1.27932e+10 1.79125e+11)
(2.63375e+11 2.97088e+10 -2.00051e+10 2.99476e+11 -2.89832e+10 2.50952e+11)
(4.51921e+11 9.45854e+10 -3.02251e+10 5.09581e+11 -3.32234e+10 4.57378e+11)
(5.19917e+11 4.11822e+10 -3.37391e+10 5.56898e+11 -5.40909e+10 4.93077e+11)
(4.59777e+11 1.38145e+11 -1.09565e+11 5.52093e+11 -1.44086e+11 4.25897e+11)
(9.95622e+11 9.27395e+10 -1.47518e+11 9.33132e+11 -1.9814e+11 8.35548e+11)
(6.41968e+12 -7.87206e+10 -8.38768e+10 5.36385e+12 -2.6961e+11 5.61601e+12)
(5.35486e+13 -7.65961e+11 3.17277e+12 5.33438e+13 1.77791e+12 5.46436e+13)
(8.35059e+12 -3.90097e+11 1.08512e+12 5.48959e+12 4.73065e+11 7.71044e+12)
(3.81772e+13 -1.19402e+12 -5.15252e+12 3.17791e+13 1.19064e+12 3.34637e+13)
(1.43019e+11 1.92449e+10 -1.81179e+10 1.44213e+11 -8.32856e+09 1.30069e+11)
(3.93007e+11 5.58876e+10 -3.01104e+10 3.76739e+11 -9.28845e+09 3.65605e+11)
(5.67322e+11 6.56142e+10 -7.19024e+10 5.43045e+11 -4.98978e+10 4.60543e+11)
(8.00587e+11 1.42985e+11 -1.00793e+11 7.11619e+11 -4.28319e+10 6.41008e+11)
(1.91155e+12 7.55229e+10 -1.99481e+11 1.80917e+12 -1.38638e+11 1.64799e+12)
(7.80669e+12 -1.21139e+10 -2.35673e+11 6.86154e+12 -1.82749e+11 6.8759e+12)
(7.15943e+13 -1.28335e+12 6.07547e+12 7.41996e+13 2.86005e+12 7.53424e+13)
(4.12923e+13 -1.9159e+12 2.68323e+12 4.04555e+13 7.57914e+11 4.13068e+13)
(3.57036e+13 -3.61273e+12 -1.05185e+13 2.44163e+13 -7.24582e+11 1.48164e+13)
(-1.61809e+12 9.51515e+12 -4.14126e+11 -1.84248e+12 6.48639e+12 -1.99321e+12)
(6.28591e+10 1.32222e+09 -4.5864e+09 7.61417e+10 -3.66898e+09 7.24888e+10)
(3.07014e+10 4.25506e+10 -1.72156e+10 1.45889e+11 -2.6651e+10 1.29417e+11)
(8.03027e+10 -1.10104e+10 -3.84898e+09 9.39003e+10 -1.09865e+10 9.36638e+10)
(-1.05056e+10 -6.32864e+09 -1.71177e+10 7.56279e+10 -3.2537e+10 5.8521e+10)
(5.34729e+10 5.58988e+09 -4.29706e+09 2.97856e+10 -3.21701e+10 6.98138e+10)
(2.25831e+11 -1.42419e+11 -4.53895e+10 3.05611e+11 -5.50608e+10 2.37913e+11)
(1.36783e+11 1.69976e+10 -1.90044e+10 5.18409e+10 -3.32253e+10 1.47653e+11)
(6.33437e+11 -1.01142e+11 -5.03348e+09 4.10391e+11 -2.64358e+10 4.91153e+11)
(1.66867e+12 6.51705e+10 1.77553e+11 1.14345e+12 1.37564e+11 1.42944e+12)
(3.3724e+12 3.25463e+11 1.9217e+11 2.12568e+12 -5.63114e+10 2.94718e+12)
(4.60611e+10 3.66832e+10 -1.9277e+10 9.47925e+10 -1.89294e+10 1.17851e+11)
(1.52576e+11 -1.30828e+10 -1.53233e+10 2.01534e+11 -1.4102e+10 1.83132e+11)
(6.79573e+09 2.81506e+10 -7.92379e+09 1.10756e+11 -4.65084e+10 1.35045e+11)
(3.48812e+11 -3.14282e+10 -7.74268e+09 3.80746e+11 -2.40858e+10 3.71254e+11)
(1.15022e+11 -9.63967e+10 -3.40059e+10 2.1747e+11 -9.65136e+10 2.3363e+11)
(2.83332e+11 -6.15961e+10 -7.7148e+09 2.20295e+11 -1.12087e+11 3.26302e+11)
(1.68956e+12 -4.4685e+11 -2.26324e+10 1.33054e+12 -1.40427e+11 1.54358e+12)
(5.74664e+12 -2.14957e+11 3.96718e+11 5.05571e+12 2.97365e+11 5.45706e+12)
(2.20485e+13 -6.51367e+11 4.71816e+10 1.9545e+13 4.39503e+10 2.06424e+13)
(1.07072e+13 -2.29088e+11 -1.62237e+11 1.01699e+13 -2.38793e+10 1.03688e+13)
(1.04888e+11 1.1511e+10 -3.08367e+10 1.96667e+11 -2.19807e+10 1.85543e+11)
(1.03443e+11 4.32412e+10 -3.20407e+10 2.01995e+11 -3.63967e+10 2.23296e+11)
(3.91229e+11 -5.35995e+10 -4.69598e+10 5.47136e+11 -5.19726e+10 4.9225e+11)
(1.51095e+11 -9.94424e+09 -3.02601e+10 2.93877e+11 -7.33374e+10 3.14831e+11)
(1.0795e+12 -1.26186e+11 -5.87821e+10 1.2776e+12 -9.46638e+10 1.22565e+12)
(9.04805e+11 -3.91505e+11 -8.93765e+10 7.79115e+11 -2.57479e+11 1.07075e+12)
(9.36657e+12 -6.92401e+11 1.34292e+12 8.90109e+12 5.69242e+11 9.55052e+12)
(2.85257e+13 -1.91742e+12 2.92104e+11 2.45548e+13 4.30453e+11 2.65333e+13)
(1.04626e+13 -1.47785e+12 -2.34312e+12 4.59597e+12 6.50629e+11 1.51109e+12)
(2.2975e+11 2.37804e+12 -6.30521e+11 -2.92937e+11 1.33141e+12 -3.1947e+11)
(1.99558e+11 4.40883e+10 -4.34878e+10 2.8936e+11 -2.01982e+10 3.04622e+11)
(2.42021e+11 1.85054e+10 -7.12472e+10 3.74895e+11 -4.0424e+10 3.60812e+11)
(2.61896e+11 6.22532e+10 -7.96361e+10 4.44657e+11 -7.01604e+10 4.61552e+11)
(5.93013e+11 -7.67819e+10 -1.51824e+11 1.0405e+12 -1.12854e+11 9.34509e+11)
(1.06318e+12 -9.11085e+10 -1.12695e+11 1.13457e+12 -1.0497e+11 1.16401e+12)
(1.08006e+13 -8.68133e+11 1.36102e+12 1.18229e+13 5.93902e+11 1.16767e+13)
(2.22714e+13 -3.15775e+12 1.20483e+12 2.00463e+13 1.16517e+11 2.06038e+13)
(3.12771e+13 -4.93596e+12 -2.44445e+12 1.87227e+13 2.78112e+12 1.76658e+12)
(2.60338e+13 -4.14894e+12 -4.35729e+12 1.2677e+13 6.86859e+12 -4.87653e+12)
(2.31287e+13 -7.01702e+12 -5.90433e+12 1.3033e+13 6.80922e+12 -5.41178e+12)
(6.74263e+10 1.16673e+10 8.15917e+08 1.74613e+11 -3.552e+10 1.6991e+11)
(1.03376e+11 -1.18936e+10 -9.20954e+09 1.19251e+11 9.34721e+09 1.2917e+11)
(3.18188e+10 4.72438e+09 7.35966e+09 1.13163e+11 -5.28285e+10 1.39236e+11)
(9.10905e+10 -8.55155e+09 -3.26315e+09 8.21303e+10 1.48465e+10 1.10021e+11)
(1.09031e+11 -3.809e+10 1.53654e+10 1.32383e+11 -9.04124e+10 1.62796e+11)
(8.73802e+10 2.05675e+10 -1.60652e+10 4.22579e+10 1.89422e+10 1.24691e+11)
(3.72917e+11 -2.06548e+11 2.26211e+10 4.94215e+11 -5.35469e+10 4.80898e+11)
(2.81114e+10 1.06238e+10 -1.73724e+10 2.82917e+10 -2.29927e+09 1.43535e+11)
(9.59497e+11 -1.28123e+11 1.11603e+10 8.05305e+11 3.69844e+09 8.93221e+11)
(1.78914e+11 -3.49037e+10 -6.03286e+10 6.24844e+10 -2.42862e+10 1.45068e+11)
(1.564e+11 -2.03633e+10 -2.93887e+10 2.10867e+11 1.66148e+10 2.13186e+11)
(5.37455e+10 3.12226e+10 1.34816e+10 9.88817e+10 -4.08114e+10 1.66716e+11)
(1.90427e+11 -3.91981e+10 -1.72175e+10 2.38251e+11 2.16893e+10 2.52142e+11)
(6.35342e+10 -7.11498e+08 7.61815e+09 1.20952e+11 -4.51563e+10 1.6149e+11)
(1.24342e+11 -2.54178e+10 -4.50212e+09 1.28209e+11 2.24544e+10 1.70702e+11)
(1.13913e+11 -1.20461e+11 2.31281e+09 1.59597e+11 -1.25939e+11 2.73658e+11)
(1.57886e+11 1.27581e+09 -5.48951e+10 9.32878e+09 6.58959e+10 2.69156e+11)
(1.23132e+12 -5.25785e+11 -1.5153e+10 8.63752e+11 8.28892e+10 1.19316e+12)
(2.93066e+11 -2.92597e+10 -6.4658e+10 -3.25272e+09 7.75543e+10 -5.90201e+10)
(1.9112e+12 7.56082e+09 -1.09638e+11 1.09925e+12 3.76503e+11 1.46849e+12)
(2.8775e+10 1.12522e+10 -5.94455e+09 7.94541e+10 -1.71165e+10 1.17439e+11)
(2.79442e+11 -5.15865e+10 -4.51754e+10 4.05385e+11 1.10863e+10 4.0295e+11)
(1.43964e+11 1.34906e+10 1.92826e+10 2.34354e+11 -5.55685e+10 3.02183e+11)
(5.25065e+11 -1.16228e+11 -2.42618e+10 6.5415e+11 2.64783e+10 6.63006e+11)
(2.37368e+11 -6.54333e+10 2.57595e+10 3.47865e+11 -1.02312e+11 4.53155e+11)
(4.67031e+11 -1.93667e+11 3.27187e+10 5.06381e+11 5.41747e+10 6.99474e+11)
(3.10643e+12 -9.12224e+11 2.17203e+11 1.70606e+12 -2.77778e+11 2.47353e+12)
(3.91722e+12 -2.03837e+11 4.35352e+11 1.3256e+12 5.93032e+11 1.25339e+11)
(6.26678e+12 -2.70764e+12 -9.39071e+11 5.97712e+12 1.33065e+12 3.08178e+12)
(-4.29229e+11 -8.83816e+11 -8.66948e+11 -1.03006e+12 -3.55405e+11 -2.51142e+10)
(1.77775e+11 -4.59852e+10 -2.16559e+10 3.30141e+11 4.69389e+09 3.29387e+11)
(1.24883e+11 2.66166e+10 -1.4293e+10 2.23396e+11 -3.82379e+10 3.01665e+11)
(6.76443e+11 -9.55686e+10 -6.20684e+10 9.66583e+11 -1.38844e+10 9.55378e+11)
(3.44215e+11 -1.8294e+10 1.23644e+10 6.11658e+11 -1.24448e+11 7.45951e+11)
(1.85647e+12 -3.83184e+11 -3.7416e+10 2.45312e+12 -1.51392e+10 2.41621e+12)
(1.29135e+12 -4.62049e+11 -1.47987e+11 1.58708e+12 -2.86837e+11 2.02149e+12)
(2.01866e+12 -9.7294e+11 8.12116e+11 3.8871e+12 -2.37204e+10 2.96498e+11)
(6.45153e+12 -7.93421e+11 -4.11601e+12 4.12288e+12 1.48546e+12 2.91338e+11)
(9.25686e+12 -2.82227e+12 -2.90561e+12 4.22538e+12 2.28622e+11 5.98604e+12)
(1.30385e+13 -1.83204e+12 -3.07229e+11 1.2049e+13 -8.37239e+11 1.25015e+13)
)
;

boundaryField
{
    inlet
    {
        type            calculated;
        value           nonuniform 0();
    }
    outlet
    {
        type            calculated;
        value           nonuniform List<symmTensor> 
20
(
(4.59071e-13 -8354.22 -21749.6 12676.1 14996 8130.98)
(8.19379e-13 -16673.3 -27137.5 20114.7 20564.5 5985.27)
(5.1601e-12 -41706.8 -31293.2 28575.9 72631.4 45092.3)
(1.51074e-11 23212.1 -12701.4 -69200.1 100455 183649)
(1.74173e-13 -7533.31 4181.74 19920.3 442.577 -4914.41)
(1.85535e-12 1403.52 17748.1 41896.1 27495.3 19735.9)
(2.01966e-12 64804.4 48923.8 -121321 59576.3 26657.2)
(8.56748e-12 5712.56 56133.3 -92488.8 140082 95574)
(2.95797e-13 17127.8 17467.5 5288.32 9100.02 6555.48)
(7.02162e-13 54914 40708.2 -104227 -28384.8 -8889.34)
(3.65663e-13 19709.5 22806.7 -90761.7 50319.2 -19566.9)
(1.07495e-12 32657.7 790.179 -96371.8 113982 -99020.6)
(5.57761e-13 49247.3 1902.45 -146739 -9727.82 -4824.21)
(1.28772e-13 9946.31 -5168.65 -106703 -10394.8 -20094.4)
(2.02118e-13 935.637 -26843 -40240.1 43242.1 -41101.9)
(1.41824e-12 3492.83 -18458.8 15759.2 74661.4 -186483)
(3.69101e-14 9442.48 -10859.1 -34641.9 -8732.44 -4947.83)
(3.66425e-13 8921.36 -27751.1 -31817.2 35770.2 3262.62)
(4.9556e-14 -1554.63 -11499.7 -52261.1 -14563.7 -11080.7)
(1.78962e-12 -53850.2 -29307.5 -30858.3 -68715.9 6281.18)
)
;
    }
    bottom
    {
        type            calculated;
        value           nonuniform List<symmTensor> 
40
(
(-2667.53 7228.63 1291.68 9225.91 30424.1 -360.518)
(-1195.52 8342.32 2872.21 5736.91 40665 -17492.8)
(5849.08 6231.52 6173.81 5053.27 38016.2 -8500.2)
(14213.2 2968.88 -5965.18 -5430.83 52037.2 -19459.3)
(-4707.78 6467.19 -5877.96 9609.34 39866 -14131.4)
(-3542.48 9910.86 3613.9 9381.06 39382.4 1378.37)
(2101.44 10630.2 5944.83 1356.21 50741.2 -16328.1)
(12350.7 6304.66 11187.7 -4697.44 42035.6 -2670.66)
(-9277.7 6710.76 -1374.03 13173.9 35496.1 711.325)
(-6440.95 9685.44 -4510.95 10151.5 51966.2 -13599.5)
(-2721.74 14602.3 8682.44 4628.49 49508.1 4631.69)
(11385.9 11748.6 13560.7 -11242.4 57898.2 -10588.5)
(-12511.5 980.729 -12913.2 17752.1 45184.3 -10040)
(-13505.5 9440.05 606.6 15850.8 47593 1457.68)
(-8266.23 16772.9 170.062 4960.28 67120.7 -9406.65)
(4957.65 20226.2 21698.7 -12440 56385.1 15314.7)
(-14446.1 2363.61 -6239.02 16112.1 32477 -1308.46)
(-19474.5 3362.56 -13188.4 22131.8 59211.6 -7160.5)
(-19453.4 16969.8 5281.8 13742.5 64295.7 7579.38)
(672.302 24011.7 15270.1 -17753.5 80167.2 6769.23)
(-18110.7 -3109.15 -17944.3 19575.7 44615.6 1438.29)
(-22320.3 2233.26 -9651.77 23360.6 45978.8 945.76)
(-29387.7 15265.4 -12448.5 19177.2 80113.6 1929.17)
(-11507.1 35764.8 23261.4 -15309.9 75742.9 29827.3)
(-16028.9 -5406.96 -17985.8 15116.6 27687.2 6665.89)
(-28332.6 -4289.71 -22084.9 29694.8 56784.4 4061.58)
(-37845 13518.7 -14220.1 29023.8 70517.6 9376.6)
(-41130.7 50851.7 6030.17 -17723.3 100616 26983.3)
(-17092.3 -3597.1 -34539.8 12353.9 43492.7 11847.6)
(-29017 -8770.47 -27983.8 29284 37969.8 13067.9)
(-53106.8 8210.97 -27750 41476.8 81862.6 10428.5)
(-66593.1 67911.1 7246.41 -22355.7 102178 39219.9)
(-18078 -20204.3 -30040 16972.8 28429.2 -1803.37)
(-34673.9 -11824.8 -46944.5 29580.9 54884.6 13723.4)
(-75701.7 -20898.6 -42905.3 64630.5 77078.9 32052.9)
(-235609 7895.26 30584.9 -24967.8 211997 71426.7)
(-15389.8 -13200.2 -34198.2 12676.1 25381.9 18828.3)
(-13520.5 -29194.1 -55657 20114.7 34735.5 8380.18)
(-53315.8 -56018.9 -84877.5 28575.9 88782.2 30194.3)
(-189503 -25363.4 -100737 -69200.1 179329 214051)
)
;
    }
    top
    {
        type            symmetryPlane;
    }
    side1
    {
        type            symmetryPlane;
    }
    side2
    {
        type            symmetryPlane;
    }
    procBoundary23to15
    {
        type            processor;
        value           nonuniform List<symmTensor> 
50
(
(-5.15846e+09 8.05756e+09 -1.91292e+09 1.20694e+10 2.17465e+10 -8.5806e+09)
(-4.70417e+09 4.10943e+09 -1.13605e+09 6.83108e+09 1.08279e+10 -3.08772e+09)
(-1.27222e+10 5.50133e+08 -8.49835e+09 2.17381e+10 2.72568e+10 -8.28189e+09)
(-9.43065e+09 3.69131e+09 -2.29363e+09 1.08028e+10 1.40037e+10 -2.80912e+09)
(-2.66633e+10 -4.42865e+09 -1.25157e+10 3.39218e+10 3.68168e+10 -5.21389e+09)
(-1.2531e+10 -7.85838e+08 -7.56259e+09 1.09066e+10 1.66118e+10 1.58702e+08)
(-2.3944e+10 -3.75224e+08 -3.05112e+10 2.03022e+10 3.74236e+10 6.14031e+09)
(-3.41471e+10 -4.04515e+10 -3.80642e+10 3.27975e+10 4.83252e+10 -1.69371e+09)
(-1.94033e+10 -1.03054e+10 -1.94164e+10 1.4891e+10 1.68952e+10 3.79467e+09)
(-9.55993e+09 -2.70949e+10 -5.00133e+10 2.24744e+10 2.09475e+10 -2.69882e+09)
(-5.99993e+09 1.3268e+10 1.49205e+09 9.7791e+09 -3.44397e+09 -8.68142e+08)
(-7.81511e+09 9.82697e+09 5.65748e+08 1.47335e+10 -3.51255e+09 -6.30781e+09)
(-9.61934e+09 4.07829e+09 2.49877e+09 1.27946e+10 -7.17002e+08 -1.09102e+09)
(-1.41301e+10 1.70212e+09 2.64562e+09 1.98909e+10 -1.52383e+09 -5.0171e+09)
(-5.61527e+09 -2.55007e+08 9.54565e+08 7.76047e+09 2.28883e+08 -7.08359e+08)
(-1.38321e+10 -5.40295e+09 6.59076e+09 1.89336e+10 2.21533e+09 -4.82537e+09)
(-1.1282e+10 -6.23187e+09 3.26452e+09 2.09387e+10 -2.16475e+09 -8.13259e+09)
(-1.52294e+10 -7.59046e+09 -1.72161e+09 1.28759e+10 5.76766e+09 3.35738e+08)
(-4.79314e+10 -4.6942e+10 -6.76405e+08 8.58877e+10 3.68165e+09 -1.54708e+10)
(-3.4989e+10 -2.17907e+10 7.47445e+09 1.27807e+10 9.43498e+09 1.34129e+10)
(-6.56042e+09 7.96173e+09 -4.17206e+08 5.51211e+09 -8.16303e+09 -1.91307e+09)
(-2.17658e+10 2.2662e+10 -3.51292e+09 2.85632e+10 -5.95294e+09 2.05576e+09)
(-7.55298e+09 1.02106e+10 6.07861e+08 5.81558e+09 -1.29167e+10 -3.56804e+09)
(-2.2293e+10 6.55689e+09 9.88596e+08 4.69404e+10 4.96506e+08 -4.1155e+09)
(-1.0874e+10 1.25529e+10 4.91321e+09 2.34131e+09 -8.36388e+09 -3.24916e+09)
(-1.64531e+10 -1.23588e+10 -6.43836e+09 4.25091e+10 1.93369e+08 -3.65953e+09)
(-2.04737e+10 -1.28617e+09 8.17098e+09 2.38573e+10 -6.88767e+09 -1.05442e+10)
(-1.44356e+10 -4.19196e+10 6.5964e+09 3.34285e+10 -1.15655e+10 -2.11512e+10)
(-4.24271e+09 2.01641e+09 6.91028e+09 3.66849e+08 -9.45438e+08 -7.25639e+08)
(1.22193e+10 2.44022e+10 4.88292e+10 1.73222e+10 -1.23488e+10 -1.16368e+10)
(-5.10369e+10 1.39119e+10 -4.88907e+09 4.64956e+10 -1.59531e+10 8.70754e+09)
(-5.59829e+09 -6.30929e+08 -1.79455e+09 1.40462e+08 -4.54137e+09 1.90197e+09)
(-5.94249e+10 1.94865e+10 -9.84456e+09 6.92638e+10 -1.3818e+10 -6.21523e+08)
(-7.85402e+08 -1.87828e+07 -1.11664e+09 -1.30573e+10 -8.67844e+09 4.85377e+09)
(-5.72697e+09 -5.31574e+10 -5.30867e+08 4.9249e+10 -5.45563e+09 -1.44537e+10)
(-1.14053e+10 2.86655e+10 -1.06963e+10 -2.91551e+10 -1.16416e+10 8.69839e+09)
(2.47649e+10 -6.46827e+10 -2.78124e+10 2.59777e+10 -2.54062e+10 -1.83258e+10)
(-1.40653e+10 8.64253e+09 1.74413e+10 -9.31395e+09 -1.70292e+10 3.80195e+09)
(3.52596e+10 -2.21862e+10 8.30874e+09 -1.77559e+10 -2.37647e+10 -1.34396e+10)
(-7.54362e+09 6.90948e+09 -5.98864e+09 -3.41779e+10 -1.1552e+08 4.47977e+08)
(-1.07561e+10 -3.17808e+09 -1.26327e+09 6.45283e+09 4.04582e+09 4.06241e+09)
(-7.80786e+10 6.47075e+09 -5.45187e+09 6.02647e+10 -3.22399e+10 1.462e+10)
(-7.14841e+09 -4.63913e+09 -1.09153e+09 -9.85464e+08 5.88615e+09 6.54502e+09)
(-8.82006e+10 -3.56786e+10 2.10074e+10 1.09773e+11 -7.61505e+10 2.27993e+10)
(-5.52821e+09 8.07147e+09 -5.5756e+09 -1.96491e+10 1.60816e+10 1.42959e+10)
(-9.01242e+09 -1.10247e+11 2.64498e+08 1.01798e+11 -2.41398e+10 3.91828e+09)
(-3.69779e+10 2.21324e+10 -1.37921e+10 -2.65455e+10 -3.97091e+09 3.53678e+10)
(-3.41889e+08 -6.06335e+10 2.58053e+09 3.32919e+10 -2.85425e+09 1.17507e+10)
(-2.70655e+10 -5.59302e+09 -9.92106e+08 -2.82945e+10 -2.82703e+10 3.47942e+10)
(3.50656e+10 5.50317e+10 6.56498e+10 -4.75241e+10 1.77198e+10 -4.7718e+09)
)
;
    }
    procBoundary23to22
    {
        type            processor;
        value           nonuniform List<symmTensor> 
20
(
(-1.67522e+09 7.56232e+09 6.04128e+09 6.20225e+09 1.37703e+10 -7.46551e+09)
(4.5854e+09 7.62376e+09 5.59151e+09 1.33353e+10 2.63955e+10 -1.59575e+10)
(9.50839e+09 8.13493e+09 -6.62803e+09 3.09336e+09 4.38786e+10 -1.87263e+10)
(3.31541e+10 1.05071e+10 2.5193e+10 -9.92803e+09 6.09688e+10 -2.09209e+10)
(-5.10389e+09 1.96367e+10 2.37257e+09 1.30295e+10 -5.22517e+09 -2.84637e+09)
(-8.17385e+09 2.67985e+10 6.03321e+09 1.51413e+10 -7.95191e+09 -6.58527e+09)
(6.64086e+09 2.46733e+10 2.8421e+09 1.49381e+10 -4.81719e+09 -1.19302e+10)
(2.23007e+10 1.40472e+10 -1.73849e+09 -1.7773e+09 7.75587e+09 -2.56243e+10)
(-6.11955e+09 8.68314e+09 -1.40768e+09 7.85208e+09 -8.74586e+09 -2.66667e+09)
(-1.78549e+10 2.99259e+10 -1.01088e+10 1.63654e+10 -1.18129e+10 -1.51336e+09)
(-1.65362e+10 2.70955e+10 -1.17563e+10 2.77183e+10 -1.80774e+10 -3.10152e+09)
(-3.82518e+09 1.33893e+10 -1.11482e+10 7.95997e+09 -4.99348e+09 -2.90675e+09)
(-4.52201e+10 2.6434e+10 -1.8148e+10 2.02273e+10 -1.23798e+10 1.38977e+10)
(-2.7696e+10 1.32905e+10 -1.37505e+10 2.59594e+10 -6.54139e+09 1.24045e+10)
(-4.65404e+10 2.89575e+10 -2.26977e+10 7.49253e+09 -1.11561e+10 2.29563e+10)
(-5.21035e+10 1.1847e+10 -2.48975e+10 2.05683e+10 -1.37958e+09 1.69566e+10)
(-2.12435e+10 -5.36934e+09 -1.1598e+10 1.59167e+10 1.04294e+10 1.00369e+10)
(-3.25534e+10 1.1187e+10 -5.80057e+09 -1.58917e+09 -1.03229e+10 1.98868e+10)
(-8.98432e+10 -3.69957e+10 1.40479e+10 7.08966e+10 2.34061e+09 3.74694e+10)
(-3.06497e+10 -2.14942e+10 6.14495e+07 2.40617e+10 -4.81012e+09 2.46572e+10)
)
;
    }
    procBoundary23to31
    {
        type            processor;
        value           nonuniform List<symmTensor> 
50
(
(5.71121e+10 -5.28572e+09 2.40965e+10 -3.72561e+10 6.02056e+10 -1.64142e+10)
(5.40532e+10 -8.31909e+09 1.92652e+10 -3.93137e+10 6.19208e+10 -1.73586e+10)
(4.61262e+10 -4.05151e+09 4.07864e+10 -3.82394e+10 4.90274e+10 -6.56981e+09)
(6.77282e+10 -2.08573e+09 7.37336e+10 -7.55658e+10 7.48586e+10 7.0912e+09)
(9.84759e+10 5.17476e+09 1.05802e+11 -9.7823e+10 8.29401e+10 2.25234e+10)
(2.25746e+11 5.82148e+09 1.73541e+11 -1.98601e+11 1.44774e+11 1.01603e+10)
(1.50114e+11 -3.70936e+10 4.0553e+11 -3.6802e+11 1.99818e+11 7.21627e+10)
(-5.86035e+11 -6.02343e+10 1.18041e+12 -6.98065e+11 3.03984e+11 2.06433e+12)
(-1.52937e+12 -7.72012e+11 2.86676e+12 -1.54728e+12 -3.00689e+10 4.63485e+12)
(-1.81446e+12 -2.31484e+12 1.22971e+12 -3.05995e+12 -4.31975e+11 1.18318e+13)
(5.5982e+10 -6.43726e+09 5.90159e+09 -2.36204e+10 1.33122e+10 -2.68167e+10)
(8.5271e+10 5.57987e+09 2.01768e+10 -4.05231e+10 1.16987e+10 -3.05741e+10)
(1.72829e+11 3.33581e+10 5.43668e+10 -1.02852e+11 2.57077e+10 -5.95901e+10)
(3.68296e+11 7.54797e+10 6.52568e+10 -1.76211e+11 4.66812e+10 -6.25104e+10)
(6.21659e+11 9.95842e+10 -1.73204e+10 -3.71372e+11 8.64203e+10 -1.72803e+11)
(1.03645e+12 9.23886e+10 1.59434e+11 -5.15887e+11 7.16114e+10 -2.0881e+11)
(-1.67736e+12 1.00469e+11 4.43299e+12 -1.00909e+12 3.74734e+11 2.5659e+12)
(-2.71955e+11 -1.98117e+12 7.57593e+12 -1.0154e+12 -1.03921e+11 2.18592e+12)
(-5.08366e+12 -4.2754e+12 -4.36411e+12 -3.50937e+12 5.8072e+11 6.37433e+12)
(-2.55507e+13 3.47469e+12 -1.51026e+12 -1.08518e+12 2.61812e+12 4.85273e+12)
(1.35981e+10 4.72906e+09 -1.02567e+10 -3.49705e+09 1.04875e+09 -7.15762e+09)
(1.28929e+11 3.72702e+10 -6.48674e+10 -7.46034e+10 2.71264e+10 -4.83584e+10)
(1.40428e+11 1.29975e+11 -4.53109e+10 -8.08944e+10 1.40041e+10 -7.52227e+10)
(2.15242e+11 2.53672e+11 -2.66199e+11 -1.17976e+11 8.23701e+09 -2.41392e+11)
(1.5836e+12 9.74499e+10 -5.77773e+11 -7.04029e+11 -4.08382e+10 -4.58712e+11)
(-4.56382e+12 1.32421e+12 9.99348e+12 -1.15214e+12 6.26308e+09 2.08423e+12)
(6.96136e+11 -1.54582e+12 9.90893e+12 -2.13045e+12 5.58388e+11 -2.7535e+11)
(3.72756e+12 -4.86587e+12 -1.01051e+13 1.10711e+12 7.46645e+12 -1.49163e+13)
(1.17073e+13 -1.12959e+13 4.56361e+12 1.33835e+13 2.38565e+13 -3.76024e+13)
(3.38427e+13 -1.42872e+13 7.77391e+11 7.59155e+12 8.1105e+12 -1.32166e+13)
(-5.74251e+10 2.57846e+10 -6.12018e+10 -8.35443e+09 5.58708e+09 2.55424e+10)
(-1.06144e+11 1.13797e+11 -1.21376e+11 -1.65012e+10 -3.40819e+10 4.09126e+10)
(-1.81357e+11 1.15306e+11 -1.88707e+11 -6.45017e+08 -5.32344e+10 3.36287e+10)
(-8.33752e+10 7.72071e+10 -1.51221e+11 7.22505e+09 -8.79229e+10 1.20698e+10)
(-8.49234e+11 7.30461e+10 9.23435e+11 3.79328e+11 -2.2244e+11 5.07603e+10)
(1.07433e+12 2.1821e+11 1.46973e+10 1.1519e+12 -4.69705e+11 1.59493e+11)
(1.79413e+12 -5.43417e+12 4.96584e+12 5.0211e+12 1.98513e+13 -2.02724e+13)
(7.86158e+11 -8.96051e+12 -2.30567e+11 9.0525e+12 2.47462e+13 -1.82378e+13)
(3.82e+12 -7.36864e+11 -5.14343e+11 2.38485e+12 1.67393e+12 -4.13667e+12)
(2.85891e+12 4.60461e+12 2.17158e+12 5.73327e+12 3.2061e+12 -1.1851e+13)
(-3.56698e+10 -1.76299e+10 -1.41658e+10 8.26184e+09 -8.25408e+09 2.75565e+10)
(-1.21953e+11 -5.07818e+09 -8.73178e+10 3.12756e+10 8.59957e+08 1.09002e+11)
(-2.00193e+11 7.42499e+10 -6.38965e+10 -3.4567e+10 -9.17748e+10 1.80818e+11)
(-4.66661e+11 -5.13691e+10 -9.72348e+10 2.3373e+11 -1.01028e+11 2.90688e+11)
(-2.87204e+11 -8.64676e+10 -1.2222e+11 1.1023e+11 -1.82694e+11 3.26376e+11)
(-3.39296e+11 9.73346e+09 -1.45085e+11 1.27916e+12 -2.64181e+11 -8.94044e+11)
(2.52647e+11 -4.79787e+11 -7.05389e+11 1.1455e+12 6.11932e+09 6.12581e+11)
(1.68062e+12 -5.57576e+12 -2.06572e+11 5.32676e+12 2.07422e+12 -5.21609e+12)
(-6.46068e+12 -7.88025e+12 -1.2388e+13 9.28186e+12 -9.44644e+12 3.12009e+11)
(-5.95776e+12 1.6452e+12 -1.1979e+13 2.92727e+12 -6.13596e+12 9.81923e+11)
)
;
    }
}


// ************************************************************************* //
