/*--------------------------------*- C++ -*----------------------------------*\
| =========                 |                                                 |
| \\      /  F ield         | OpenFOAM: The Open Source CFD Toolbox           |
|  \\    /   O peration     | Version:  2.4.0                                 |
|   \\  /    A nd           | Web:      www.OpenFOAM.org                      |
|    \\/     M anipulation  |                                                 |
\*---------------------------------------------------------------------------*/
FoamFile
{
    version     2.0;
    format      ascii;
    class       volVectorField;
    location    "0.08";
    object      gradp;
}
// * * * * * * * * * * * * * * * * * * * * * * * * * * * * * * * * * * * * * //

dimensions      [1 -2 -2 0 0 0 0];

internalField   nonuniform List<vector> 
200
(
(6.12562e+13 9.09774e+14 -3.0083e+13)
(-3.75148e+13 1.08193e+15 -3.76917e+13)
(-1.62156e+14 1.22907e+15 -4.85657e+13)
(-3.69445e+14 1.36904e+15 -6.16253e+13)
(-6.70645e+14 1.47306e+15 -8.42559e+13)
(-1.03519e+15 1.5288e+15 -9.64391e+13)
(-1.43293e+15 1.47255e+15 -1.1331e+14)
(-1.85533e+15 1.31886e+15 -9.59647e+13)
(-2.28097e+15 1.00129e+15 -3.74968e+13)
(-2.77782e+15 4.40381e+14 -6.03994e+12)
(4.90738e+14 1.41779e+15 -4.21028e+13)
(3.99611e+14 1.72514e+15 -7.08635e+13)
(2.16822e+14 2.04438e+15 -9.56739e+13)
(-3.60189e+13 2.33631e+15 -1.25141e+14)
(-4.17503e+14 2.60838e+15 -1.54275e+14)
(-9.72828e+14 2.81406e+15 -2.43978e+14)
(-1.64893e+15 2.932e+15 -2.69356e+14)
(-2.40406e+15 2.83329e+15 -3.34836e+14)
(-3.40115e+15 2.46325e+15 -2.77568e+14)
(-4.79083e+15 1.16558e+15 -7.63246e+13)
(1.31961e+15 2.05601e+15 -9.53324e+13)
(1.21566e+15 2.5933e+15 -1.05919e+14)
(1.06017e+15 3.15992e+15 -1.29725e+14)
(7.58561e+14 3.78626e+15 -1.68247e+14)
(2.8486e+14 4.45949e+15 -2.06226e+14)
(-3.87942e+14 5.1995e+15 -3.32894e+14)
(-1.39445e+15 5.99788e+15 -4.5121e+14)
(-2.79284e+15 6.8472e+15 -7.59718e+14)
(-5.6164e+15 6.4055e+15 -5.53383e+14)
(-1.00355e+16 2.66826e+15 -7.30634e+14)
(2.62478e+15 2.53031e+15 -1.94531e+14)
(2.60743e+15 3.1791e+15 -1.20253e+14)
(2.60274e+15 3.89665e+15 -3.55619e+13)
(2.56312e+15 4.76011e+15 6.33631e+13)
(2.40898e+15 5.8491e+15 1.20704e+14)
(2.10394e+15 7.27618e+15 2.99505e+14)
(1.64647e+15 9.49798e+15 1.06177e+14)
(-1.58882e+15 1.32366e+16 -5.27866e+14)
(-1.1759e+16 1.42392e+16 -1.89903e+15)
(-2.29383e+16 9.22445e+15 -3.24049e+13)
(-2.25281e+13 8.58654e+14 -2.38102e+14)
(-9.66593e+13 9.9659e+14 -2.93019e+14)
(-2.38743e+14 1.11758e+15 -3.54607e+14)
(-4.83654e+14 1.22864e+15 -4.36716e+14)
(-7.82049e+14 1.30194e+15 -4.78325e+14)
(-1.12816e+15 1.21917e+15 -5.47538e+14)
(-1.43141e+15 1.11409e+15 -4.971e+14)
(-1.61273e+15 8.10098e+14 -4.4754e+14)
(-1.99321e+15 5.40545e+14 -3.44028e+14)
(-2.6385e+15 3.42973e+14 -1.68742e+14)
(3.63583e+14 1.31339e+15 -3.77677e+14)
(2.28184e+14 1.61598e+15 -5.00037e+14)
(4.3134e+13 1.91452e+15 -6.1414e+14)
(-2.23542e+14 2.16571e+15 -7.94695e+14)
(-7.97783e+14 2.41323e+15 -1.0338e+15)
(-1.34109e+15 2.43573e+15 -1.28773e+15)
(-1.93967e+15 2.39136e+15 -1.49312e+15)
(-2.43034e+15 1.77129e+15 -1.67755e+15)
(-2.57391e+15 1.63783e+15 -1.55921e+15)
(-3.65837e+15 6.23124e+12 -8.7822e+14)
(1.15086e+15 1.81213e+15 -6.1534e+14)
(1.1056e+15 2.51428e+15 -7.40643e+14)
(8.60719e+14 3.2561e+15 -9.7868e+14)
(5.13759e+14 4.08787e+15 -1.24651e+15)
(-2.42011e+14 4.89946e+15 -1.69106e+15)
(-1.17189e+15 6.06907e+15 -2.28734e+15)
(-2.76029e+15 6.59873e+15 -3.3957e+15)
(-3.11979e+15 6.53835e+15 -5.0531e+15)
(-5.52333e+15 3.81116e+15 -6.13165e+15)
(-5.92662e+15 2.73853e+15 -2.68615e+15)
(2.89329e+15 2.36216e+15 -8.41279e+14)
(3.11613e+15 3.35998e+15 -1.02447e+15)
(3.19031e+15 4.50642e+15 -1.19111e+15)
(3.06317e+15 5.92374e+15 -1.56809e+15)
(3.16463e+15 7.14612e+15 -2.20716e+15)
(2.05746e+15 9.16414e+15 -3.94965e+15)
(-1.00111e+15 1.11482e+16 -7.98225e+15)
(-8.00549e+15 1.28869e+16 -1.16815e+16)
(-1.01736e+16 7.17931e+15 -1.47128e+16)
(-1.67577e+16 -6.17935e+15 -1.11987e+16)
(-2.52311e+14 5.45788e+14 -4.85602e+14)
(-4.10331e+14 5.58607e+14 -5.72598e+14)
(-6.21986e+14 5.97302e+14 -6.46971e+14)
(-7.65342e+14 4.81342e+14 -7.41895e+14)
(-1.02528e+15 2.7433e+14 -8.24548e+14)
(-1.09527e+15 -1.27286e+14 -8.67132e+14)
(-1.11293e+15 -5.42646e+14 -8.32339e+14)
(-1.3655e+15 -1.07457e+15 -7.27244e+14)
(-1.38882e+15 -1.2494e+15 -6.75539e+14)
(-1.13695e+15 -8.76996e+14 -4.33929e+14)
(-1.34246e+14 8.14212e+14 -7.73709e+14)
(-3.5707e+14 1.00895e+15 -9.10998e+14)
(-7.26084e+14 1.04586e+15 -1.12799e+15)
(-1.37893e+15 1.04064e+15 -1.30605e+15)
(-1.99521e+15 6.68007e+14 -1.58178e+15)
(-2.44264e+15 3.03738e+13 -1.71698e+15)
(-2.89636e+15 -1.70575e+15 -1.75291e+15)
(-2.61555e+15 -4.5356e+15 -1.69016e+15)
(-8.43292e+14 -6.79694e+15 -1.37504e+15)
(3.00893e+15 -2.86226e+15 -6.28771e+14)
(4.1618e+14 1.31425e+15 -1.19439e+15)
(5.29668e+13 1.75421e+15 -1.58247e+15)
(-5.58607e+14 2.23678e+15 -2.03056e+15)
(-1.52105e+15 2.54883e+15 -2.69838e+15)
(-3.0458e+15 2.58211e+15 -3.35201e+15)
(-5.84279e+15 9.40421e+14 -4.153e+15)
(-1.02449e+16 -4.38473e+15 -4.93337e+15)
(-1.15479e+16 -9.15919e+15 -5.55701e+15)
(1.95786e+15 -1.46403e+16 -6.63391e+15)
(1.81815e+16 -1.38444e+16 -2.38629e+15)
(1.57256e+15 2.05709e+15 -1.70906e+15)
(1.48798e+15 2.82958e+15 -2.38952e+15)
(8.6315e+14 3.83412e+15 -3.4502e+15)
(-6.88261e+14 4.87207e+15 -4.92599e+15)
(-5.21203e+15 5.12054e+15 -6.85287e+15)
(-1.63763e+16 4.80164e+13 -9.67515e+15)
(-2.30956e+16 -2.64903e+15 -1.26381e+16)
(-2.31266e+16 -1.06332e+16 -1.68374e+16)
(-1.02138e+16 -9.92017e+15 -1.64111e+16)
(5.99784e+16 9.77094e+15 -8.31858e+15)
(-4.71229e+14 1.7474e+14 -2.83891e+14)
(-6.13042e+14 1.73278e+14 -2.96244e+14)
(-7.80496e+14 9.76105e+12 -3.02674e+14)
(-1.0519e+15 -8.75028e+13 -2.79988e+14)
(-1.18281e+15 -4.54181e+14 -3.05472e+14)
(-1.15309e+15 -7.119e+14 -3.10134e+14)
(-9.83769e+14 -9.86262e+14 -3.35277e+14)
(-1.11097e+15 -1.22561e+15 -3.72347e+14)
(-1.0546e+15 -1.102e+15 -2.69191e+14)
(9.118e+14 -3.90521e+14 -1.17035e+14)
(-5.97686e+14 1.79326e+14 -3.7044e+14)
(-9.05524e+14 1.87576e+11 -4.33973e+14)
(-1.22103e+15 -2.99222e+14 -4.31821e+14)
(-1.67566e+15 -9.64665e+14 -4.5414e+14)
(-2.11277e+15 -1.63071e+15 -3.10381e+14)
(-1.88871e+15 -2.82166e+15 -1.5542e+14)
(-1.85384e+15 -4.17029e+15 -6.36032e+13)
(-1.22116e+15 -5.95633e+15 1.40835e+14)
(8.2254e+14 -7.89555e+15 1.56047e+14)
(2.75382e+15 -3.11754e+15 3.18099e+14)
(-9.0421e+14 3.15562e+14 -6.52192e+14)
(-1.57014e+15 1.4864e+14 -7.79547e+14)
(-2.7102e+15 -4.59429e+14 -9.36152e+14)
(-3.71487e+15 -1.70404e+15 -9.22873e+14)
(-4.89679e+15 -3.53428e+15 -8.48245e+14)
(-6.23225e+15 -6.66399e+15 -3.64897e+14)
(-7.25311e+15 -1.08175e+16 6.79208e+14)
(-8.5615e+15 -1.76972e+16 1.76324e+15)
(4.62297e+15 -2.02465e+16 3.39695e+15)
(2.2938e+16 -9.56517e+15 7.66944e+14)
(-7.93598e+14 8.12588e+14 -1.13066e+15)
(-2.45551e+15 1.001e+15 -1.62228e+15)
(-4.92639e+15 6.77661e+14 -2.15839e+15)
(-7.82536e+15 -4.28379e+14 -2.92204e+15)
(-1.20327e+16 -3.68858e+15 -3.23295e+15)
(-1.64551e+16 -9.4616e+15 -2.95525e+15)
(-2.39202e+16 -2.74215e+16 -3.52037e+14)
(-2.00791e+16 -3.79791e+16 3.36199e+15)
(1.70866e+16 -2.56283e+16 7.33157e+15)
(6.23771e+16 -1.55342e+16 8.45591e+15)
(-3.93193e+14 3.48805e+14 -6.30845e+12)
(-4.70435e+14 3.01822e+14 2.10268e+13)
(-5.69968e+14 3.4114e+14 3.82562e+13)
(-7.74297e+14 2.04466e+14 8.68168e+13)
(-1.12174e+15 1.94285e+14 1.25007e+14)
(-1.19065e+15 1.27641e+13 1.05898e+14)
(-1.31202e+15 -2.20052e+14 1.13271e+14)
(-1.15402e+15 -5.20573e+14 3.32148e+12)
(-5.7182e+14 -6.81235e+14 9.98168e+13)
(9.89733e+13 -2.16583e+14 1.54192e+14)
(-4.55792e+14 2.24929e+14 6.76942e+13)
(-5.53488e+14 2.35661e+14 4.78518e+13)
(-7.90619e+14 3.22945e+13 1.77705e+14)
(-9.90322e+14 1.20191e+13 1.82356e+14)
(-1.0393e+15 -2.0043e+14 3.91874e+14)
(-1.65295e+15 -5.72467e+13 5.17815e+14)
(-1.94834e+15 -8.25771e+13 4.65548e+14)
(-1.91267e+15 -1.11866e+15 4.88283e+14)
(-2.76047e+14 -9.31114e+14 2.49452e+14)
(1.49166e+15 -1.4479e+15 1.44975e+14)
(-4.87015e+14 9.79004e+13 2.21939e+13)
(-8.55705e+14 -1.47077e+14 1.68198e+14)
(-1.01725e+15 -5.25735e+14 2.45454e+14)
(-1.23975e+15 -1.3998e+15 6.97245e+14)
(-1.26028e+15 -2.094e+15 1.01893e+15)
(-9.5494e+14 -3.53931e+15 1.83365e+15)
(-3.43485e+15 -4.84623e+15 2.66809e+15)
(-2.85109e+15 -4.00534e+15 3.02686e+15)
(-1.23029e+15 -3.15943e+15 4.45259e+15)
(4.85699e+15 -8.23942e+14 1.19772e+15)
(-1.15754e+15 1.95154e+14 -6.83442e+13)
(-1.80076e+15 -6.91914e+13 -1.36971e+14)
(-3.29607e+15 -8.02259e+14 1.36264e+14)
(-4.12685e+15 -2.56144e+15 3.72502e+14)
(-5.31832e+15 -5.71676e+15 1.29205e+15)
(-7.1574e+15 -1.17596e+16 2.47074e+15)
(-2.88039e+15 -1.50105e+16 4.19759e+15)
(1.46092e+15 -1.33069e+16 9.04569e+15)
(6.08674e+15 -2.14728e+15 1.09288e+16)
(9.45841e+15 1.04749e+15 5.60824e+15)
)
;

boundaryField
{
    inlet
    {
        type            zeroGradient;
    }
    outlet
    {
        type            zeroGradient;
    }
    bottom
    {
        type            zeroGradient;
    }
    top
    {
        type            symmetryPlane;
    }
    side1
    {
        type            symmetryPlane;
    }
    side2
    {
        type            symmetryPlane;
    }
    procBoundary23to15
    {
        type            processor;
        value           nonuniform List<vector> 
50
(
(-1.74835e+14 5.91846e+14 -1.01529e+13)
(-2.38974e+14 6.70999e+14 -1.75231e+13)
(-3.57379e+14 7.49443e+14 -2.59969e+13)
(-5.24009e+14 8.10063e+14 -3.73922e+13)
(-7.37034e+14 8.57542e+14 -4.73233e+13)
(-9.718e+14 8.50712e+14 -5.04564e+13)
(-1.22905e+15 8.10339e+14 -4.53191e+13)
(-1.46155e+15 6.91086e+14 -1.68592e+13)
(-1.64419e+15 4.87407e+14 1.03971e+13)
(-1.90749e+15 2.07685e+14 -1.54443e+13)
(-2.14922e+14 5.33131e+14 -1.50186e+14)
(-2.89675e+14 6.16672e+14 -1.72957e+14)
(-4.2096e+14 6.90683e+14 -2.19288e+14)
(-5.92254e+14 7.5819e+14 -2.39887e+14)
(-7.78839e+14 7.70284e+14 -2.84593e+14)
(-9.65387e+14 7.53438e+14 -2.52673e+14)
(-1.12154e+15 6.54717e+14 -2.33618e+14)
(-1.28326e+15 5.47974e+14 -1.81656e+14)
(-1.63966e+15 4.50603e+14 -1.52524e+14)
(-1.89134e+15 1.90658e+14 -5.48595e+13)
(-3.33584e+14 3.72939e+14 -3.46263e+14)
(-4.60098e+14 3.94279e+14 -3.96429e+14)
(-5.71554e+14 4.06623e+14 -4.35604e+14)
(-7.32986e+14 3.8453e+14 -4.83463e+14)
(-7.77951e+14 3.63885e+14 -4.84205e+14)
(-8.08682e+14 2.53952e+14 -5.10068e+14)
(-1.00179e+15 2.3174e+14 -4.40191e+14)
(-1.20204e+15 1.76476e+14 -4.17843e+14)
(-1.23844e+15 7.2868e+13 -3.48453e+14)
(-1.24386e+15 -3.70442e+12 -1.70337e+14)
(-4.6385e+14 2.18537e+14 -2.47326e+14)
(-5.75567e+14 1.96274e+14 -2.73483e+14)
(-6.99472e+14 2.10537e+14 -2.7172e+14)
(-7.47776e+14 1.59436e+14 -2.81093e+14)
(-8.63975e+14 -1.34304e+13 -2.60353e+14)
(-8.24543e+14 -2.12877e+14 -2.42952e+14)
(-8.26413e+14 -2.56662e+14 -2.65225e+14)
(-9.89692e+14 -2.75754e+14 -2.05413e+14)
(-8.47646e+14 -4.07501e+14 -1.99056e+14)
(-2.31211e+14 -4.06637e+14 -9.46581e+13)
(-4.72582e+14 2.92144e+14 -4.10965e+13)
(-5.38158e+14 3.2352e+14 -3.24882e+13)
(-5.95907e+14 3.42497e+14 -2.94062e+13)
(-6.96611e+14 3.83318e+14 -1.24331e+11)
(-6.55899e+14 3.0679e+14 -1.34172e+13)
(-8.24274e+14 1.29511e+14 6.48994e+13)
(-8.81666e+14 -9.24243e+12 -1.3333e+13)
(-9.90305e+14 -2.21162e+14 4.76328e+13)
(-8.84027e+14 -1.60539e+14 -1.35245e+13)
(-3.03977e+14 -8.93904e+13 3.62639e+13)
)
;
    }
    procBoundary23to22
    {
        type            processor;
        value           nonuniform List<vector> 
20
(
(9.87119e+13 7.49148e+14 -1.15091e+13)
(5.46057e+14 1.09597e+15 -3.11275e+13)
(1.37924e+15 1.52628e+15 -5.31847e+13)
(2.69805e+15 1.90228e+15 -2.04162e+14)
(3.54856e+13 7.07337e+14 -1.95029e+14)
(4.49406e+14 1.02928e+15 -3.04729e+14)
(1.28605e+15 1.24943e+15 -4.5832e+14)
(2.62305e+15 1.44215e+15 -6.95647e+14)
(-1.23878e+14 4.58938e+14 -4.32379e+14)
(4.97357e+13 6.74701e+14 -6.10602e+14)
(5.06045e+14 9.00813e+14 -9.40257e+14)
(1.6799e+15 1.23713e+15 -1.23737e+15)
(-3.01471e+14 2.40196e+14 -2.52218e+14)
(-3.76887e+14 2.16678e+14 -3.3349e+14)
(-3.62213e+14 2.46596e+14 -4.97298e+14)
(-8.05171e+13 5.11331e+14 -7.69126e+14)
(-2.64451e+14 2.93427e+14 -3.35938e+12)
(-2.82713e+14 2.82572e+14 3.50973e+12)
(-3.78756e+14 2.03796e+14 3.78242e+13)
(-2.44279e+14 1.13099e+14 -2.32402e+13)
)
;
    }
    procBoundary23to31
    {
        type            processor;
        value           nonuniform List<vector> 
50
(
(3.87325e+15 2.43907e+15 -2.00422e+14)
(3.94834e+15 2.76377e+15 7.12918e+12)
(4.22219e+15 3.09879e+15 2.51383e+14)
(4.66346e+15 3.4371e+15 5.5902e+14)
(5.317e+15 3.78555e+15 6.04415e+14)
(6.90982e+15 4.09793e+15 8.4708e+14)
(1.05263e+16 4.49507e+15 5.80172e+14)
(6.68954e+15 4.50418e+15 -9.78287e+14)
(-1.36406e+16 3.61693e+15 -4.96579e+15)
(-5.69627e+16 2.42282e+15 -1.0358e+16)
(4.98652e+15 2.61885e+15 -9.11098e+14)
(5.39411e+15 3.32342e+15 -9.59093e+14)
(5.98824e+15 4.10794e+15 -1.01776e+15)
(5.79317e+15 5.0603e+15 -1.17654e+15)
(6.23879e+15 6.33661e+15 -2.14641e+15)
(6.83224e+15 8.03785e+15 -6.80494e+15)
(4.68517e+15 1.05837e+16 -1.09876e+16)
(-1.10576e+16 1.42557e+16 -1.99717e+16)
(-4.36558e+16 1.93294e+16 -2.12312e+16)
(-7.92654e+15 1.21955e+16 -2.34459e+15)
(3.60108e+15 2.74018e+15 -2.16288e+15)
(3.60702e+15 3.81377e+15 -3.05683e+15)
(3.52637e+15 5.14082e+15 -4.42354e+15)
(1.05178e+15 7.21065e+15 -6.66845e+15)
(-1.26939e+16 1.04431e+16 -1.01237e+16)
(-2.13819e+16 1.59373e+16 -1.57941e+16)
(-3.16073e+16 2.64969e+16 -2.90394e+16)
(-2.60901e+16 3.69665e+16 -3.73483e+16)
(4.27661e+16 2.49598e+16 -2.71387e+16)
(1.84799e+16 -2.7355e+15 -8.23309e+15)
(7.51252e+13 1.82559e+15 -1.8159e+15)
(-1.83999e+15 2.62267e+15 -2.59128e+15)
(-5.56896e+15 3.42491e+15 -3.83389e+15)
(-1.24473e+16 4.46353e+15 -5.56882e+15)
(-2.29632e+16 4.75106e+15 -7.62156e+15)
(-5.36981e+16 -1.36657e+15 -7.74467e+15)
(-6.42882e+16 -5.07566e+15 -7.04672e+15)
(-4.97505e+15 -1.84791e+16 9.21948e+13)
(4.95128e+16 -5.56901e+16 8.25501e+15)
(1.05263e+17 -1.44912e+16 -4.68521e+15)
(-8.51596e+14 7.1395e+14 -3.63702e+14)
(-2.85053e+15 8.91596e+14 -5.00671e+14)
(-6.00176e+15 6.47133e+14 -6.79496e+14)
(-1.10687e+16 -1.40037e+14 -6.3592e+14)
(-1.96566e+16 -2.88273e+15 -2.48684e+14)
(-1.95425e+16 -9.97145e+15 3.97392e+14)
(-6.52934e+15 -3.14294e+16 1.0425e+16)
(2.28754e+16 -4.30433e+16 1.8447e+16)
(2.74784e+16 -3.81481e+15 1.91282e+16)
(7.05656e+15 5.8305e+15 1.15613e+16)
)
;
    }
}


// ************************************************************************* //
