/*--------------------------------*- C++ -*----------------------------------*\
| =========                 |                                                 |
| \\      /  F ield         | OpenFOAM: The Open Source CFD Toolbox           |
|  \\    /   O peration     | Version:  2.4.0                                 |
|   \\  /    A nd           | Web:      www.OpenFOAM.org                      |
|    \\/     M anipulation  |                                                 |
\*---------------------------------------------------------------------------*/
FoamFile
{
    version     2.0;
    format      ascii;
    class       volVectorField;
    location    "0.06";
    object      A_Source;
}
// * * * * * * * * * * * * * * * * * * * * * * * * * * * * * * * * * * * * * //

dimensions      [1 -2 -2 0 0 0 0];

internalField   nonuniform List<vector> 
200
(
(1.6061e-84 -2.08355e-84 -1.11487e-84)
(1.0001e-86 -1.29704e-86 -6.94217e-87)
(6.49943e-89 -8.42682e-89 -4.51155e-89)
(4.27021e-91 -5.53517e-91 -2.96415e-91)
(2.78792e-93 -3.61298e-93 -1.93522e-93)
(1.79539e-95 -2.32626e-95 -1.24626e-95)
(1.13804e-97 -1.47426e-97 -7.89966e-98)
(7.10245e-100 -9.19905e-100 -4.93013e-100)
(4.36987e-102 -5.65878e-102 -3.03332e-102)
(2.65466e-104 -3.43703e-104 -1.84272e-104)
(7.56131e-87 -9.8138e-87 -5.24865e-87)
(4.39701e-89 -5.7058e-89 -3.05216e-89)
(2.62963e-91 -3.41158e-91 -1.82535e-91)
(1.61317e-93 -2.09234e-93 -1.11977e-93)
(1.00713e-95 -1.30596e-95 -6.99097e-96)
(6.34244e-98 -8.22232e-98 -4.40258e-98)
(3.99925e-100 -5.18343e-100 -2.77606e-100)
(2.51203e-102 -3.25515e-102 -1.74371e-102)
(1.56696e-104 -2.03009e-104 -1.0877e-104)
(9.69122e-107 -1.25532e-106 -6.72711e-107)
(3.09249e-89 -4.01504e-89 -2.14664e-89)
(1.8305e-91 -2.37627e-91 -1.27064e-91)
(1.08568e-93 -1.40915e-93 -7.53618e-94)
(6.49298e-96 -8.42597e-96 -4.50707e-96)
(3.92657e-98 -5.09445e-98 -2.72561e-98)
(2.4003e-100 -3.11351e-100 -1.66615e-100)
(1.47956e-102 -1.91875e-102 -1.02703e-102)
(9.16502e-105 -1.18828e-104 -6.36186e-105)
(5.68545e-107 -7.36977e-107 -3.94653e-107)
(3.52158e-109 -4.56387e-109 -2.44449e-109)
(1.14255e-91 -1.47365e-91 -7.93095e-92)
(6.99236e-94 -9.01577e-94 -4.85371e-94)
(4.23826e-96 -5.46298e-96 -2.94197e-96)
(2.55754e-98 -3.2956e-98 -1.7753e-98)
(1.54319e-100 -1.98799e-100 -1.0712e-100)
(9.33908e-103 -1.20281e-102 -6.48268e-103)
(5.67754e-105 -7.31075e-105 -3.94104e-105)
(3.46793e-107 -4.46468e-107 -2.40725e-107)
(2.12648e-109 -2.73719e-109 -1.47608e-109)
(1.30698e-111 -1.68204e-111 -9.0723e-112)
(3.06597e-86 -3.97682e-86 -2.12822e-86)
(1.94956e-88 -2.52802e-88 -1.35328e-88)
(1.29374e-90 -1.67714e-90 -8.98041e-91)
(8.67654e-93 -1.1245e-92 -6.02278e-93)
(5.77962e-95 -7.48889e-95 -4.0119e-95)
(3.79569e-97 -4.91723e-97 -2.63476e-97)
(2.45246e-99 -3.1765e-99 -1.70236e-99)
(1.55948e-101 -2.01951e-101 -1.08251e-101)
(9.77234e-104 -1.26528e-103 -6.78343e-104)
(6.04424e-106 -7.82433e-106 -4.19558e-106)
(1.47614e-88 -1.91563e-88 -1.02466e-88)
(8.75637e-91 -1.13612e-90 -6.07819e-91)
(5.34109e-93 -6.92839e-93 -3.70749e-93)
(3.34128e-95 -4.33317e-95 -2.31933e-95)
(2.12678e-97 -2.75744e-97 -1.4763e-97)
(1.36512e-99 -1.76949e-99 -9.47595e-100)
(8.77063e-102 -1.1366e-101 -6.08809e-102)
(5.61128e-104 -7.27018e-104 -3.89504e-104)
(3.5639e-106 -4.61658e-106 -2.47386e-106)
(2.24351e-108 -2.90563e-108 -1.55732e-108)
(6.16565e-91 -8.00401e-91 -4.27986e-91)
(3.72151e-93 -4.8305e-93 -2.58327e-93)
(2.25002e-95 -2.92004e-95 -1.56184e-95)
(1.37134e-97 -1.77938e-97 -9.5191e-98)
(8.4494e-100 -1.09611e-99 -5.86511e-100)
(5.26122e-102 -6.82365e-102 -3.65205e-102)
(3.30259e-104 -4.28236e-104 -2.29248e-104)
(2.08276e-106 -2.70002e-106 -1.44574e-106)
(1.31502e-108 -1.70437e-108 -9.12815e-109)
(8.2878e-111 -1.07393e-110 -5.75294e-111)
(2.32471e-93 -2.99764e-93 -1.61368e-93)
(1.45032e-95 -1.86953e-95 -1.00673e-95)
(8.95807e-98 -1.15437e-97 -6.2182e-98)
(5.50669e-100 -7.09402e-100 -3.82244e-100)
(3.38376e-102 -4.35798e-102 -2.34882e-102)
(2.08488e-104 -2.6845e-104 -1.44721e-104)
(1.29009e-106 -1.66078e-106 -8.95512e-107)
(8.01879e-109 -1.03209e-108 -5.5662e-109)
(5.00229e-111 -6.43731e-111 -3.47232e-111)
(3.12707e-113 -4.02345e-113 -2.17064e-113)
(3.00839e-88 -3.90158e-88 -2.08826e-88)
(1.95285e-90 -2.53191e-90 -1.35556e-90)
(1.3229e-92 -1.71468e-92 -9.18283e-93)
(9.05379e-95 -1.17322e-94 -6.28464e-95)
(6.15163e-97 -7.96968e-97 -4.27012e-97)
(4.11893e-99 -5.33516e-99 -2.85914e-99)
(2.71211e-101 -3.51226e-101 -1.8826e-101)
(1.75679e-103 -2.27467e-103 -1.21947e-103)
(1.12101e-105 -1.4512e-105 -7.78142e-106)
(7.05781e-108 -9.13496e-108 -4.89915e-108)
(1.48077e-90 -1.92138e-90 -1.02787e-90)
(8.95769e-93 -1.16209e-92 -6.21794e-93)
(5.57126e-95 -7.22598e-95 -3.86726e-95)
(3.55322e-97 -4.6074e-97 -2.46645e-97)
(2.30531e-99 -2.98849e-99 -1.60022e-99)
(1.50785e-101 -1.95422e-101 -1.04667e-101)
(9.86867e-104 -1.27871e-103 -6.85029e-104)
(6.42962e-106 -8.32924e-106 -4.46309e-106)
(4.15716e-108 -5.38428e-108 -2.88567e-108)
(2.6632e-110 -3.44866e-110 -1.84865e-110)
(6.31457e-93 -8.19632e-93 -4.38323e-93)
(3.88551e-95 -5.04274e-95 -2.69711e-95)
(2.39409e-97 -3.10664e-97 -1.66185e-97)
(1.48667e-99 -1.92878e-99 -1.03197e-99)
(9.3306e-102 -1.21028e-101 -6.47679e-102)
(5.91678e-104 -7.6729e-104 -4.10711e-104)
(3.78152e-106 -4.90273e-106 -2.62493e-106)
(2.42746e-108 -3.14646e-108 -1.68501e-108)
(1.55966e-110 -2.02116e-110 -1.08263e-110)
(9.99993e-113 -1.29561e-112 -6.9414e-113)
(2.42904e-95 -3.13137e-95 -1.6861e-95)
(1.54443e-97 -1.99033e-97 -1.07206e-97)
(9.71858e-100 -1.25205e-99 -6.74611e-100)
(6.08451e-102 -7.83638e-102 -4.22353e-102)
(3.80677e-104 -4.90151e-104 -2.64245e-104)
(2.38752e-106 -3.07338e-106 -1.65728e-106)
(1.50345e-108 -1.93495e-108 -1.04361e-108)
(9.50775e-111 -1.22343e-110 -6.59976e-111)
(6.03304e-113 -7.76178e-113 -4.1878e-113)
(3.83528e-115 -4.93344e-115 -2.66224e-115)
(2.01269e-90 -2.60988e-90 -1.3971e-90)
(1.33323e-92 -1.7283e-92 -9.25452e-93)
(9.21602e-95 -1.19436e-94 -6.39725e-95)
(6.43414e-97 -8.33626e-97 -4.46622e-97)
(4.45762e-99 -5.77413e-99 -3.09423e-99)
(3.04197e-101 -3.93958e-101 -2.11157e-101)
(2.04056e-103 -2.64217e-103 -1.41644e-103)
(1.34605e-105 -1.74258e-105 -9.34354e-106)
(8.74365e-108 -1.13173e-107 -6.06936e-108)
(5.6021e-110 -7.24967e-110 -3.88867e-110)
(1.01236e-92 -1.31342e-92 -7.02723e-93)
(6.24308e-95 -8.09814e-95 -4.33361e-95)
(3.9578e-97 -5.13262e-97 -2.74729e-97)
(2.57254e-99 -3.3353e-99 -1.78571e-99)
(1.70068e-101 -2.20436e-101 -1.18052e-101)
(1.13316e-103 -1.4684e-103 -7.86578e-104)
(7.55265e-106 -9.78477e-106 -5.24264e-106)
(5.00948e-108 -6.48858e-108 -3.47731e-108)
(3.29632e-110 -4.26871e-110 -2.28812e-110)
(2.14843e-112 -2.78166e-112 -1.49132e-112)
(4.40582e-95 -5.71806e-95 -3.05828e-95)
(2.76276e-97 -3.58516e-97 -1.91776e-97)
(1.73428e-99 -2.25017e-99 -1.20384e-99)
(1.0969e-101 -1.42292e-101 -7.61409e-102)
(7.01037e-104 -9.09201e-104 -4.86621e-104)
(4.52586e-106 -5.8684e-106 -3.1416e-106)
(2.94421e-108 -3.81666e-108 -2.04371e-108)
(1.92324e-110 -2.49256e-110 -1.33501e-110)
(1.25712e-112 -1.62888e-112 -8.72622e-113)
(8.19768e-115 -1.06196e-114 -5.69038e-115)
(1.72846e-97 -2.22767e-97 -1.1998e-97)
(1.11966e-99 -1.44256e-99 -7.77206e-100)
(7.17575e-102 -9.2422e-102 -4.98101e-102)
(4.57406e-104 -5.88952e-104 -3.17506e-104)
(2.9129e-106 -3.74962e-106 -2.02198e-106)
(1.85909e-108 -2.39254e-108 -1.29048e-108)
(1.19104e-110 -1.53248e-110 -8.26755e-111)
(7.66123e-113 -9.85572e-113 -5.31801e-113)
(4.94359e-115 -6.35856e-115 -3.43157e-115)
(3.19513e-117 -4.10897e-117 -2.21789e-117)
(1.03577e-92 -1.3429e-92 -7.12986e-93)
(6.99919e-95 -9.07189e-95 -4.81717e-95)
(4.93556e-97 -6.39531e-97 -3.39632e-97)
(3.51398e-99 -4.55212e-99 -2.41768e-99)
(2.48168e-101 -3.21412e-101 -1.70715e-101)
(1.72561e-103 -2.23444e-103 -1.18685e-103)
(1.17896e-105 -1.52631e-105 -8.1074e-106)
(7.91793e-108 -1.02488e-107 -5.44403e-108)
(5.23468e-110 -6.7744e-110 -3.59855e-110)
(3.41235e-112 -4.41522e-112 -2.34541e-112)
(5.32203e-95 -6.90379e-95 -3.66283e-95)
(3.34483e-97 -4.33813e-97 -2.30168e-97)
(2.16076e-99 -2.80177e-99 -1.48664e-99)
(1.43099e-101 -1.85503e-101 -9.84387e-102)
(9.63695e-104 -1.24893e-103 -6.62822e-104)
(6.53946e-106 -8.4729e-106 -4.49705e-106)
(4.43769e-108 -5.74838e-108 -3.0512e-108)
(2.99586e-110 -3.87984e-110 -2.0595e-110)
(2.00581e-112 -2.59713e-112 -1.37867e-112)
(1.32979e-114 -1.72147e-114 -9.13858e-115)
(2.36304e-97 -3.06648e-97 -1.62606e-97)
(1.50967e-99 -1.95882e-99 -1.03868e-99)
(9.65224e-102 -1.25219e-101 -6.6398e-102)
(6.21645e-104 -8.06309e-104 -4.27562e-104)
(4.04474e-106 -5.24511e-106 -2.78149e-106)
(2.65789e-108 -3.44587e-108 -1.82748e-108)
(1.75952e-110 -2.28062e-110 -1.20959e-110)
(1.16936e-112 -1.51531e-112 -8.0375e-113)
(7.77446e-115 -1.00722e-114 -5.34283e-115)
(5.15526e-117 -6.67742e-117 -3.54225e-117)
(9.45195e-100 -1.21787e-99 -6.50302e-100)
(6.23632e-102 -8.03277e-102 -4.28995e-102)
(4.06956e-104 -5.24016e-104 -2.79899e-104)
(2.64054e-106 -3.39906e-106 -1.81584e-106)
(1.71125e-108 -2.20222e-108 -1.17659e-108)
(1.11116e-110 -1.42963e-110 -7.63873e-111)
(7.24099e-113 -9.31441e-113 -4.97704e-113)
(4.73663e-115 -6.09183e-115 -3.25515e-115)
(3.10755e-117 -3.99598e-117 -2.13525e-117)
(2.0416e-119 -2.62485e-119 -1.40259e-119)
)
;

boundaryField
{
    inlet
    {
        type            zeroGradient;
    }
    outlet
    {
        type            zeroGradient;
    }
    bottom
    {
        type            zeroGradient;
    }
    top
    {
        type            symmetryPlane;
    }
    side1
    {
        type            symmetryPlane;
    }
    side2
    {
        type            symmetryPlane;
    }
    procBoundary27to19
    {
        type            processor;
        value           nonuniform List<vector> 
50
(
(1.97177e-81 -2.55615e-81 -1.3687e-81)
(1.15599e-83 -1.49833e-83 -8.02425e-84)
(6.70844e-86 -8.69363e-86 -4.65663e-86)
(3.86272e-88 -5.00491e-88 -2.68129e-88)
(2.21211e-90 -2.86569e-90 -1.53553e-90)
(1.26267e-92 -1.63539e-92 -8.76474e-93)
(7.19587e-95 -9.31795e-95 -4.99498e-95)
(4.09938e-97 -5.30702e-97 -2.84556e-97)
(2.33612e-99 -3.02355e-99 -1.62161e-99)
(1.33199e-101 -1.72348e-101 -9.24593e-102)
(3.72744e-83 -4.83137e-83 -2.58739e-83)
(2.23118e-85 -2.89146e-85 -1.54876e-85)
(1.32142e-87 -1.71218e-87 -9.17255e-88)
(7.76204e-90 -1.00556e-89 -5.38798e-90)
(4.53304e-92 -5.87138e-92 -3.14659e-92)
(2.63767e-94 -3.41571e-94 -1.83092e-94)
(1.53187e-96 -1.98329e-96 -1.06334e-96)
(8.8905e-99 -1.15076e-98 -6.1713e-99)
(5.15995e-101 -6.67719e-101 -3.58175e-101)
(2.99548e-103 -3.87523e-103 -2.0793e-103)
(3.62231e-85 -4.69433e-85 -2.51441e-85)
(2.21309e-87 -2.86756e-87 -1.53621e-87)
(1.33726e-89 -1.73243e-89 -9.28254e-90)
(8.01119e-92 -1.03767e-91 -5.56093e-92)
(4.76979e-94 -6.177e-94 -3.31093e-94)
(2.8286e-96 -3.66236e-96 -1.96346e-96)
(1.6737e-98 -2.16656e-98 -1.16179e-98)
(9.89371e-101 -1.2804e-100 -6.86767e-101)
(5.84697e-103 -7.56493e-103 -4.05864e-103)
(3.45528e-105 -4.4693e-105 -2.39847e-105)
(2.40048e-87 -3.1104e-87 -1.66628e-87)
(1.49635e-89 -1.93854e-89 -1.03868e-89)
(9.22147e-92 -1.19445e-91 -6.40104e-92)
(5.63208e-94 -7.29388e-94 -3.90948e-94)
(3.41751e-96 -4.42503e-96 -2.37224e-96)
(2.06481e-98 -2.67299e-98 -1.43328e-98)
(1.24438e-100 -1.61055e-100 -8.6378e-101)
(7.48993e-103 -9.69152e-103 -5.1991e-103)
(4.50581e-105 -5.82872e-105 -3.12769e-105)
(2.70978e-107 -3.50441e-107 -1.88098e-107)
(1.22379e-89 -1.58545e-89 -8.42473e-90)
(7.78083e-92 -1.00785e-91 -5.35556e-92)
(4.88892e-94 -6.33153e-94 -3.36451e-94)
(3.04332e-96 -3.94062e-96 -2.09404e-96)
(1.88152e-98 -2.43581e-98 -1.29443e-98)
(1.15789e-100 -1.49869e-100 -7.9646e-101)
(7.10559e-103 -9.19491e-103 -4.88683e-103)
(4.35378e-105 -5.63257e-105 -2.9938e-105)
(2.66556e-107 -3.44758e-107 -1.83263e-107)
(1.63104e-109 -2.10897e-109 -1.12119e-109)
)
;
    }
    procBoundary27to26
    {
        type            processor;
        value           nonuniform List<vector> 
20
(
(1.13432e-81 -1.47144e-81 -7.87385e-82)
(3.66983e-84 -4.76228e-84 -2.5474e-84)
(1.14429e-86 -1.48542e-86 -7.94306e-87)
(3.51025e-89 -4.53055e-89 -2.43662e-89)
(2.14296e-83 -2.77944e-83 -1.48753e-83)
(7.0746e-86 -9.17932e-86 -4.9108e-86)
(2.25022e-88 -2.92066e-88 -1.56198e-88)
(7.04012e-91 -9.08427e-91 -4.88687e-91)
(2.08122e-85 -2.69896e-85 -1.44467e-85)
(7.00896e-88 -9.09289e-88 -4.86524e-88)
(2.27345e-90 -2.95044e-90 -1.57811e-90)
(7.25233e-93 -9.35585e-93 -5.03417e-93)
(1.37838e-87 -1.78723e-87 -9.56794e-88)
(4.73355e-90 -6.14009e-90 -3.28577e-90)
(1.5652e-92 -2.03102e-92 -1.08648e-92)
(5.08914e-95 -6.56365e-95 -3.5326e-95)
(7.02292e-90 -9.10471e-90 -4.83469e-90)
(2.4586e-92 -3.18872e-92 -1.69228e-92)
(8.28506e-95 -1.07494e-94 -5.70178e-95)
(2.74493e-97 -3.53939e-97 -1.88876e-97)
)
;
    }
    procBoundary27to28
    {
        type            processor;
        value           nonuniform List<vector> 
20
(
(2.6123e-107 -3.38265e-107 -1.81332e-107)
(1.42208e-109 -1.84246e-109 -9.87133e-110)
(6.73129e-112 -8.72499e-112 -4.67249e-112)
(2.91606e-114 -3.75075e-114 -2.02417e-114)
(5.98647e-109 -7.75063e-109 -4.15548e-109)
(3.31924e-111 -4.29981e-111 -2.30403e-111)
(1.59883e-113 -2.0721e-113 -1.10982e-113)
(7.04551e-116 -9.05987e-116 -4.89061e-116)
(7.0353e-111 -9.10712e-111 -4.88352e-111)
(3.97224e-113 -5.14498e-113 -2.75731e-113)
(1.94677e-115 -2.52271e-115 -1.35134e-115)
(8.72512e-118 -1.12168e-117 -6.0565e-118)
(5.61953e-113 -7.27329e-113 -3.90077e-113)
(3.23009e-115 -4.18312e-115 -2.24215e-115)
(1.61026e-117 -2.08637e-117 -1.11776e-117)
(7.33823e-120 -9.43135e-120 -5.0938e-120)
(3.44432e-115 -4.45725e-115 -2.36724e-115)
(2.01507e-117 -2.60924e-117 -1.38469e-117)
(1.02163e-119 -1.32352e-119 -7.01916e-120)
(4.73314e-122 -6.08161e-122 -3.25138e-122)
)
;
    }
}


// ************************************************************************* //
